 Gaussian 09, Revision D.01,
 Gaussian 09:  ES64L-G09RevD.01 24-Apr-2013

 --------------------
 #p B2PLYPD3/Def2QZVP
 --------------------

 --------
 methanol
 --------
 Symbolic Z-matrix:
 Charge =  0 Multiplicity = 1

                         Standard orientation:
 ---------------------------------------------------------------------
 Center     Atomic      Atomic             Coordinates (Angstroms)
 Number     Number       Type             X           Y           Z
 ---------------------------------------------------------------------
      1          6           0       -0.676058   -0.022847   -0.022924
      2          8           0        0.774678   -0.014877    0.082348
      3          1           0       -1.027477   -0.753199   -0.800567
      4          1           0       -1.168700    1.160659   -0.151205
      5          1           0       -1.076506   -0.341185    0.946421
      6          1           0        1.131603    0.189819   -0.515891
 ---------------------------------------------------------------------

 SCF Done:  E(RB2PLYPD3) =  -115.440851692     A.U. after   11 cycles
 E2(B2PLYPD3) =    -0.1451424172D+00 E(B2PLYPD3) =    -0.11558599410940D+03

 The electronic state is 1-A.
 Alpha  occ. eigenvalues --  -19.70411 -10.68989  -1.22314  -0.80750  -0.60745
 Alpha  occ. eigenvalues --   -0.51180  -0.49562  -0.40795  -0.36080
 Alpha virt. eigenvalues --    0.05256   0.08598   0.11239   0.12317   0.14066
 Alpha virt. eigenvalues --    0.16972   0.18501   0.28263   0.31218   0.31922
 Alpha virt. eigenvalues --    0.34606   0.38570   0.39781   0.40440   0.42711

 Mulliken charges:
               1
     1  C    0.049464
     2  O   -0.284206
     3  H    0.066933
     4  H    0.036814
     5  H    0.086288
     6  H    0.044708
 Sum of Mulliken charges =   0.00000

 Dipole moment (field-independent basis, Debye):
    X=             -0.9741    Y=              0.1893    Z=             -1.1176  Tot=              1.4946
 Quadrupole moment (field-independent basis, Debye-Ang):
   XX=            -12.9230   YY=            -13.5114   ZZ=            -12.8236
   XY=              0.7877   XZ=             -1.9903   YZ=             -0.1271

 Normal termination of Gaussian 09 at Wed Aug 26 22:26:36 2020.
