 Gaussian 09, Revision D.01,
 Gaussian 09:  ES64L-G09RevD.01 24-Apr-2013

 --------------------
 #p B2PLYPD3/Def2QZVP
 --------------------

 --------
 methanol
 --------
 Symbolic Z-matrix:
 Charge =  0 Multiplicity = 1

                         Standard orientation:
 ---------------------------------------------------------------------
 Center     Atomic      Atomic             Coordinates (Angstroms)
 Number     Number       Type             X           Y           Z
 ---------------------------------------------------------------------
      1          6           0        0.668994   -0.010231   -0.007931
      2          8           0       -0.748744    0.087941   -0.014427
      3          1           0        1.057758   -0.751182   -0.817930
      4          1           0        1.047904   -0.347926    1.070030
      5          1           0        1.079934    0.995715   -0.182773
      6          1           0       -1.209609   -0.538755    0.093678
 ---------------------------------------------------------------------

 SCF Done:  E(RB2PLYPD3) =  -115.499501059     A.U. after   10 cycles
 E2(B2PLYPD3) =    -0.1450400390D+00 E(B2PLYPD3) =    -0.11564454109842D+03

 The electronic state is 1-A.
 Alpha  occ. eigenvalues --  -19.70569 -10.68271  -1.20172  -0.80587  -0.60506
 Alpha  occ. eigenvalues --   -0.51041  -0.50451  -0.39925  -0.35424
 Alpha virt. eigenvalues --    0.05405   0.08683   0.11816   0.12375   0.14419
 Alpha virt. eigenvalues --    0.16904   0.18025   0.28923   0.32504   0.32900
 Alpha virt. eigenvalues --    0.36511   0.38561   0.38944   0.40620   0.42198

 Mulliken charges:
               1
     1  C    0.059290
     2  O   -0.344742
     3  H    0.049402
     4  H    0.042890
     5  H    0.087013
     6  H    0.106146
 Sum of Mulliken charges =   0.00000

 Dipole moment (field-independent basis, Debye):
    X=              0.7339    Y=             -1.1662    Z=              0.1655  Tot=              1.3878
 Quadrupole moment (field-independent basis, Debye-Ang):
   XX=            -12.6029   YY=            -12.7340   ZZ=            -13.7064
   XY=              2.1402   XZ=             -0.4239   YZ=             -0.0849

 Normal termination of Gaussian 09 at Wed Aug 26 15:55:25 2020.
