 Gaussian 09, Revision D.01,
 Gaussian 09:  ES64L-G09RevD.01 24-Apr-2013

 --------------------
 #p B2PLYPD3/Def2QZVP
 --------------------

 --------
 methanol
 --------
 Symbolic Z-matrix:
 Charge =  0 Multiplicity = 1

                         Standard orientation:
 ---------------------------------------------------------------------
 Center     Atomic      Atomic             Coordinates (Angstroms)
 Number     Number       Type             X           Y           Z
 ---------------------------------------------------------------------
      1          6           0        0.664287    0.018262   -0.016271
      2          8           0       -0.745545   -0.146792    0.006332
      3          1           0        1.060403    0.518405    0.862809
      4          1           0        0.928084    0.616115   -0.799492
      5          1           0        1.157297   -0.925491   -0.038456
      6          1           0       -1.167148    0.855730    0.022112
 ---------------------------------------------------------------------

 SCF Done:  E(RB2PLYPD3) =  -115.533318607     A.U. after   11 cycles
 E2(B2PLYPD3) =    -0.1492870580D+00 E(B2PLYPD3) =    -0.11568260566477D+03

 The electronic state is 1-A.
 Alpha  occ. eigenvalues --  -19.73495 -10.64310  -1.14036  -0.78702  -0.57340
 Alpha  occ. eigenvalues --   -0.52032  -0.49719  -0.41028  -0.34921
 Alpha virt. eigenvalues --    0.03841   0.07822   0.12521   0.12740   0.14876
 Alpha virt. eigenvalues --    0.17661   0.18074   0.29140   0.30390   0.33029
 Alpha virt. eigenvalues --    0.33908   0.39490   0.39869   0.41530   0.43980

 Mulliken charges:
               1
     1  C    0.086991
     2  O   -0.487538
     3  H    0.036939
     4  H    0.044033
     5  H    0.069236
     6  H    0.250339
 Sum of Mulliken charges =   0.00000

 Dipole moment (field-independent basis, Debye):
    X=              0.9020    Y=              1.6448    Z=             -0.0271  Tot=              1.8760
 Quadrupole moment (field-independent basis, Debye-Ang):
   XX=            -12.9176   YY=            -11.9467   ZZ=            -13.9885
   XY=             -2.4566   XZ=              0.0051   YZ=             -0.0634

 Normal termination of Gaussian 09 at Wed Aug 26 14:52:24 2020.
