 Gaussian 09, Revision D.01,
 Gaussian 09:  ES64L-G09RevD.01 24-Apr-2013

 --------------------
 #p B2PLYPD3/Def2QZVP
 --------------------

 --------
 methanol
 --------
 Symbolic Z-matrix:
 Charge =  0 Multiplicity = 1

                         Standard orientation:
 ---------------------------------------------------------------------
 Center     Atomic      Atomic             Coordinates (Angstroms)
 Number     Number       Type             X           Y           Z
 ---------------------------------------------------------------------
      1          6           0        0.654611    0.027296   -0.044718
      2          8           0       -0.742248   -0.157106    0.027307
      3          1           0        1.088626    0.591247    0.867029
      4          1           0        0.914646    0.514045   -0.770761
      5          1           0        1.195628   -0.909503    0.018336
      6          1           0       -1.188578    0.897285   -0.064752
 ---------------------------------------------------------------------

 SCF Done:  E(RB2PLYPD3) =  -115.495059644     A.U. after   11 cycles
 E2(B2PLYPD3) =    -0.1505264416D+00 E(B2PLYPD3) =    -0.11564558608535D+03

 The electronic state is 1-A.
 Alpha  occ. eigenvalues --  -19.74196 -10.63932  -1.13822  -0.79310  -0.57624
 Alpha  occ. eigenvalues --   -0.51782  -0.49549  -0.40786  -0.34767
 Alpha virt. eigenvalues --    0.03011   0.07526   0.12548   0.12716   0.14855
 Alpha virt. eigenvalues --    0.17903   0.18437   0.27498   0.29683   0.32661
 Alpha virt. eigenvalues --    0.34142   0.38386   0.39380   0.41192   0.44320

 Mulliken charges:
               1
     1  C    0.073998
     2  O   -0.483969
     3  H    0.027724
     4  H    0.061797
     5  H    0.064230
     6  H    0.256219
 Sum of Mulliken charges =   0.00000

 Dipole moment (field-independent basis, Debye):
    X=              0.8236    Y=              1.6634    Z=             -0.3390  Tot=              1.8868
 Quadrupole moment (field-independent basis, Debye-Ang):
   XX=            -12.8427   YY=            -12.0191   ZZ=            -14.0038
   XY=             -2.5410   XZ=              0.0928   YZ=             -0.3369

 Normal termination of Gaussian 09 at Wed Aug 26 19:10:38 2020.
