 Gaussian 09, Revision D.01,
 Gaussian 09:  ES64L-G09RevD.01 24-Apr-2013

 --------------------
 #p B2PLYPD3/Def2QZVP
 --------------------

 --------
 methanol
 --------
 Symbolic Z-matrix:
 Charge =  0 Multiplicity = 1

                         Standard orientation:
 ---------------------------------------------------------------------
 Center     Atomic      Atomic             Coordinates (Angstroms)
 Number     Number       Type             X           Y           Z
 ---------------------------------------------------------------------
      1          6           0        0.702772    0.069972    0.011737
      2          8           0       -0.751642   -0.185028   -0.008022
      3          1           0        1.020326    0.365043    0.803090
      4          1           0        0.968029    0.613122   -0.752334
      5          1           0        1.127186   -0.925987   -0.107939
      6          1           0       -1.319035    1.008212    0.050940
 ---------------------------------------------------------------------

 SCF Done:  E(RB2PLYPD3) =  -115.443040907     A.U. after   12 cycles
 E2(B2PLYPD3) =    -0.1545594862D+00 E(B2PLYPD3) =    -0.11559760039305D+03

 The electronic state is 1-A.
 Alpha  occ. eigenvalues --  -19.74696 -10.62291  -1.10020  -0.80789  -0.55362
 Alpha  occ. eigenvalues --   -0.53734  -0.47134  -0.39510  -0.35731
 Alpha virt. eigenvalues --    0.00580   0.07355   0.12222   0.12913   0.14655
 Alpha virt. eigenvalues --    0.17132   0.18501   0.23757   0.28882   0.32167
 Alpha virt. eigenvalues --    0.34023   0.37601   0.40022   0.43475   0.45377

 Mulliken charges:
               1
     1  C    0.084987
     2  O   -0.510268
     3  H    0.073684
     4  H    0.058026
     5  H    0.055065
     6  H    0.238506
 Sum of Mulliken charges =   0.00000

 Dipole moment (field-independent basis, Debye):
    X=              1.0940    Y=              1.7687    Z=              0.1217  Tot=              2.0832
 Quadrupole moment (field-independent basis, Debye-Ang):
   XX=            -12.5533   YY=            -11.8146   ZZ=            -13.8158
   XY=             -2.5024   XZ=             -0.0196   YZ=              0.0345

 Normal termination of Gaussian 09 at Wed Aug 26 22:39:58 2020.
