 Gaussian 09, Revision D.01,
 Gaussian 09:  ES64L-G09RevD.01 24-Apr-2013

 --------------------
 #p B2PLYPD3/Def2QZVP
 --------------------

 --------
 methanol
 --------
 Symbolic Z-matrix:
 Charge =  0 Multiplicity = 1

                         Standard orientation:
 ---------------------------------------------------------------------
 Center     Atomic      Atomic             Coordinates (Angstroms)
 Number     Number       Type             X           Y           Z
 ---------------------------------------------------------------------
      1          6           0        0.677563   -0.008968   -0.010799
      2          8           0       -0.747454    0.083651   -0.007005
      3          1           0        1.019436   -0.648741   -0.898556
      4          1           0        1.039789   -0.452604    1.028663
      5          1           0        1.008447    1.031106   -0.075051
      6          1           0       -1.153421   -0.545167    0.065781
 ---------------------------------------------------------------------

 SCF Done:  E(RB2PLYPD3) =  -115.477590451     A.U. after   11 cycles
 E2(B2PLYPD3) =    -0.1444798638D+00 E(B2PLYPD3) =    -0.11562207031453D+03

 The electronic state is 1-A.
 Alpha  occ. eigenvalues --  -19.69920 -10.67930  -1.21257  -0.81009  -0.60425
 Alpha  occ. eigenvalues --   -0.51428  -0.50459  -0.40497  -0.35609
 Alpha virt. eigenvalues --    0.05423   0.09008   0.11760   0.12265   0.14368
 Alpha virt. eigenvalues --    0.16668   0.17880   0.28914   0.32377   0.32846
 Alpha virt. eigenvalues --    0.36603   0.38999   0.39787   0.40413   0.42557

 Mulliken charges:
               1
     1  C    0.058015
     2  O   -0.310379
     3  H    0.055059
     4  H    0.043939
     5  H    0.087893
     6  H    0.065473
 Sum of Mulliken charges =   0.00000

 Dipole moment (field-independent basis, Debye):
    X=              0.8467    Y=             -1.1862    Z=              0.0981  Tot=              1.4607
 Quadrupole moment (field-independent basis, Debye-Ang):
   XX=            -12.9704   YY=            -12.5382   ZZ=            -13.5439
   XY=              2.0407   XZ=             -0.2594   YZ=             -0.0181

 Normal termination of Gaussian 09 at Wed Aug 26 13:39:59 2020.
