 Gaussian 09, Revision D.01,
 Gaussian 09:  ES64L-G09RevD.01 24-Apr-2013

 --------------------
 #p B2PLYPD3/Def2QZVP
 --------------------

 --------
 methanol
 --------
 Symbolic Z-matrix:
 Charge =  0 Multiplicity = 1

                         Standard orientation:
 ---------------------------------------------------------------------
 Center     Atomic      Atomic             Coordinates (Angstroms)
 Number     Number       Type             X           Y           Z
 ---------------------------------------------------------------------
      1          6           0       -0.661246   -0.004680    0.000817
      2          8           0        0.751391   -0.072275   -0.023548
      3          1           0       -1.059586    0.954304   -0.662058
      4          1           0       -1.090698    0.129613    1.096542
      5          1           0       -1.064666   -0.951657   -0.417391
      6          1           0        1.171303    0.474026    0.166391
 ---------------------------------------------------------------------

 SCF Done:  E(RB2PLYPD3) =  -115.431776951     A.U. after   11 cycles
 E2(B2PLYPD3) =    -0.1443961722D+00 E(B2PLYPD3) =    -0.11557617312305D+03

 The electronic state is 1-A.
 Alpha  occ. eigenvalues --  -19.70038 -10.69164  -1.23196  -0.81702  -0.61357
 Alpha  occ. eigenvalues --   -0.51250  -0.50230  -0.40187  -0.35484
 Alpha virt. eigenvalues --    0.05303   0.08942   0.11585   0.12188   0.14488
 Alpha virt. eigenvalues --    0.16881   0.17810   0.28788   0.32207   0.32885
 Alpha virt. eigenvalues --    0.35691   0.37743   0.38763   0.40900   0.41939

 Mulliken charges:
               1
     1  C    0.053376
     2  O   -0.259402
     3  H    0.034519
     4  H    0.047481
     5  H    0.093082
     6  H    0.030943
 Sum of Mulliken charges =   0.00000

 Dipole moment (field-independent basis, Debye):
    X=             -0.7503    Y=              1.0054    Z=              0.3905  Tot=              1.3138
 Quadrupole moment (field-independent basis, Debye-Ang):
   XX=            -12.7429   YY=            -12.8040   ZZ=            -13.6567
   XY=              1.9703   XZ=              0.6108   YZ=              0.3364

 Normal termination of Gaussian 09 at Wed Aug 26 12:49:01 2020.
