 Gaussian 09, Revision D.01,
 Gaussian 09:  ES64L-G09RevD.01 24-Apr-2013

 --------------------
 #p B2PLYPD3/Def2QZVP
 --------------------

 --------
 methanol
 --------
 Symbolic Z-matrix:
 Charge =  0 Multiplicity = 1

                         Standard orientation:
 ---------------------------------------------------------------------
 Center     Atomic      Atomic             Coordinates (Angstroms)
 Number     Number       Type             X           Y           Z
 ---------------------------------------------------------------------
      1          6           0        0.689004   -0.018420   -0.006330
      2          8           0       -0.775479    0.058100    0.008549
      3          1           0        1.009750   -0.756277   -0.846163
      4          1           0        1.182790   -0.375151    0.993541
      5          1           0        0.964746    1.212879   -0.211903
      6          1           0       -1.087476   -0.435731    0.034117
 ---------------------------------------------------------------------

 SCF Done:  E(RB2PLYPD3) =  -115.150076929     A.U. after   12 cycles
 E2(B2PLYPD3) =    -0.1442363157D+00 E(B2PLYPD3) =    -0.11529431324453D+03

 The electronic state is 1-A.
 Alpha  occ. eigenvalues --  -19.68462 -10.70541  -1.28574  -0.82056  -0.62160
 Alpha  occ. eigenvalues --   -0.50843  -0.48092  -0.40863  -0.36724
 Alpha virt. eigenvalues --    0.04844   0.09097   0.10765   0.11769   0.14523
 Alpha virt. eigenvalues --    0.16392   0.17615   0.28307   0.29998   0.33037
 Alpha virt. eigenvalues --    0.33770   0.36576   0.37802   0.41214   0.41649

 Mulliken charges:
               1
     1  C    0.041544
     2  O   -0.152569
     3  H    0.062423
     4  H    0.065802
     5  H    0.079720
     6  H   -0.096921
 Sum of Mulliken charges =   0.00000

 Dipole moment (field-independent basis, Debye):
    X=              1.1028    Y=             -1.1899    Z=              0.0543  Tot=              1.6233
 Quadrupole moment (field-independent basis, Debye-Ang):
   XX=            -13.1586   YY=            -12.3434   ZZ=            -13.5990
   XY=              1.5126   XZ=              0.0897   YZ=             -0.0135

 Normal termination of Gaussian 09 at Wed Aug 26 23:57:11 2020.
