 Gaussian 09, Revision D.01,
 Gaussian 09:  ES64L-G09RevD.01 24-Apr-2013

 --------------------
 #p B2PLYPD3/Def2QZVP
 --------------------

 --------
 methanol
 --------
 Symbolic Z-matrix:
 Charge =  0 Multiplicity = 1

                         Standard orientation:
 ---------------------------------------------------------------------
 Center     Atomic      Atomic             Coordinates (Angstroms)
 Number     Number       Type             X           Y           Z
 ---------------------------------------------------------------------
      1          6           0        0.680747   -0.023981   -0.022339
      2          8           0       -0.759671    0.086102    0.020223
      3          1           0        0.945876   -0.506220   -0.966313
      4          1           0        1.087717   -0.546788    0.983858
      5          1           0        1.041491    1.056952    0.004230
      6          1           0       -1.082198   -0.548875   -0.049520
 ---------------------------------------------------------------------

 SCF Done:  E(RB2PLYPD3) =  -115.439671643     A.U. after   11 cycles
 E2(B2PLYPD3) =    -0.1443901095D+00 E(B2PLYPD3) =    -0.11558406175250D+03

 The electronic state is 1-A.
 Alpha  occ. eigenvalues --  -19.69684 -10.68090  -1.22867  -0.80736  -0.60741
 Alpha  occ. eigenvalues --   -0.51909  -0.49581  -0.41147  -0.36133
 Alpha virt. eigenvalues --    0.05384   0.09064   0.11627   0.12032   0.14141
 Alpha virt. eigenvalues --    0.16841   0.18011   0.28649   0.31572   0.32875
 Alpha virt. eigenvalues --    0.36005   0.38244   0.40161   0.40682   0.42981

 Mulliken charges:
               1
     1  C    0.055063
     2  O   -0.277706
     3  H    0.064619
     4  H    0.049638
     5  H    0.078348
     6  H    0.030038
 Sum of Mulliken charges =   0.00000

 Dipole moment (field-independent basis, Debye):
    X=              1.0242    Y=             -1.2250    Z=             -0.2468  Tot=              1.6157
 Quadrupole moment (field-independent basis, Debye-Ang):
   XX=            -13.2668   YY=            -12.5649   ZZ=            -13.3439
   XY=              1.9659   XZ=              0.2001   YZ=              0.1789

 Normal termination of Gaussian 09 at Wed Aug 26 12:40:09 2020.
