 Gaussian 09, Revision D.01,
 Gaussian 09:  ES64L-G09RevD.01 24-Apr-2013

 --------------------
 #p B2PLYPD3/Def2QZVP
 --------------------

 --------
 methanol
 --------
 Symbolic Z-matrix:
 Charge =  0 Multiplicity = 1

                         Standard orientation:
 ---------------------------------------------------------------------
 Center     Atomic      Atomic             Coordinates (Angstroms)
 Number     Number       Type             X           Y           Z
 ---------------------------------------------------------------------
      1          6           0       -0.635824    0.016980   -0.028676
      2          8           0        0.733849   -0.189383    0.008728
      3          1           0       -0.978265    0.513051   -0.760845
      4          1           0       -1.193886    0.489994    0.771446
      5          1           0       -1.055459   -0.800512    0.040993
      6          1           0        1.171765    1.210649    0.050641
 ---------------------------------------------------------------------

 SCF Done:  E(RB2PLYPD3) =  -115.399963958     A.U. after   12 cycles
 E2(B2PLYPD3) =    -0.1572202660D+00 E(B2PLYPD3) =    -0.11555718422435D+03

 The electronic state is 1-A.
 Alpha  occ. eigenvalues --  -19.76240 -10.61393  -1.13211  -0.80878  -0.56655
 Alpha  occ. eigenvalues --   -0.51721  -0.49764  -0.39210  -0.34858
 Alpha virt. eigenvalues --   -0.03060   0.07271   0.12699   0.13117   0.15060
 Alpha virt. eigenvalues --    0.17646   0.18764   0.21410   0.29672   0.33047
 Alpha virt. eigenvalues --    0.35621   0.37362   0.39986   0.42309   0.45282

 Mulliken charges:
               1
     1  C    0.090846
     2  O   -0.454686
     3  H    0.040483
     4  H    0.023177
     5  H    0.068029
     6  H    0.232151
 Sum of Mulliken charges =   0.00000

 Dipole moment (field-independent basis, Debye):
    X=             -1.0475    Y=              1.7027    Z=             -0.0435  Tot=              1.9996
 Quadrupole moment (field-independent basis, Debye-Ang):
   XX=            -13.1194   YY=            -11.2456   ZZ=            -14.2293
   XY=              2.4211   XZ=              0.0407   YZ=             -0.1275

 Normal termination of Gaussian 09 at Wed Aug 26 19:00:56 2020.
