 Gaussian 09, Revision D.01,
 Gaussian 09:  ES64L-G09RevD.01 24-Apr-2013

 --------------------
 #p B2PLYPD3/Def2QZVP
 --------------------

 --------
 methanol
 --------
 Symbolic Z-matrix:
 Charge =  0 Multiplicity = 1

                         Standard orientation:
 ---------------------------------------------------------------------
 Center     Atomic      Atomic             Coordinates (Angstroms)
 Number     Number       Type             X           Y           Z
 ---------------------------------------------------------------------
      1          6           0       -0.673898   -0.031082    0.002832
      2          8           0        0.747838    0.126254   -0.007609
      3          1           0       -1.011481   -0.467174    0.889802
      4          1           0       -1.032312   -0.590818   -0.840582
      5          1           0       -1.055302    1.009164   -0.043086
      6          1           0        1.159779   -0.774707    0.037749
 ---------------------------------------------------------------------

 SCF Done:  E(RB2PLYPD3) =  -115.549319460     A.U. after   10 cycles
 E2(B2PLYPD3) =    -0.1478248238D+00 E(B2PLYPD3) =    -0.11569714428395D+03

 The electronic state is 1-A.
 Alpha  occ. eigenvalues --  -19.72646 -10.65102  -1.15092  -0.78784  -0.58302
 Alpha  occ. eigenvalues --   -0.52383  -0.48943  -0.40987  -0.35509
 Alpha virt. eigenvalues --    0.04806   0.08168   0.12249   0.12531   0.14950
 Alpha virt. eigenvalues --    0.17074   0.18149   0.29124   0.33139   0.33574
 Alpha virt. eigenvalues --    0.34488   0.38185   0.39851   0.41817   0.44293

 Mulliken charges:
               1
     1  C    0.073160
     2  O   -0.473954
     3  H    0.053554
     4  H    0.050876
     5  H    0.066584
     6  H    0.229780
 Sum of Mulliken charges =   0.00000

 Dipole moment (field-independent basis, Debye):
    X=             -0.9056    Y=             -1.5689    Z=              0.1059  Tot=              1.8146
 Quadrupole moment (field-independent basis, Debye-Ang):
   XX=            -13.0001   YY=            -12.1411   ZZ=            -13.7575
   XY=             -2.2029   XZ=              0.0897   YZ=             -0.0516

 Normal termination of Gaussian 09 at Thu Aug 27 00:13:44 2020.
