 Gaussian 09, Revision D.01,
 Gaussian 09:  ES64L-G09RevD.01 24-Apr-2013

 --------------------
 #p B2PLYPD3/Def2QZVP
 --------------------

 --------
 methanol
 --------
 Symbolic Z-matrix:
 Charge =  0 Multiplicity = 1

                         Standard orientation:
 ---------------------------------------------------------------------
 Center     Atomic      Atomic             Coordinates (Angstroms)
 Number     Number       Type             X           Y           Z
 ---------------------------------------------------------------------
      1          6           0        0.681441    0.025950   -0.021058
      2          8           0       -0.753981   -0.173442    0.005649
      3          1           0        0.981916    0.495230    0.884335
      4          1           0        1.106035    0.437463   -0.762276
      5          1           0        0.979888   -0.848634    0.023251
      6          1           0       -1.124637    1.147779   -0.064153
 ---------------------------------------------------------------------

 SCF Done:  E(RB2PLYPD3) =  -115.428431566     A.U. after   12 cycles
 E2(B2PLYPD3) =    -0.1559777538D+00 E(B2PLYPD3) =    -0.11558440931930D+03

 The electronic state is 1-A.
 Alpha  occ. eigenvalues --  -19.75386 -10.61682  -1.11176  -0.80780  -0.56081
 Alpha  occ. eigenvalues --   -0.52816  -0.47844  -0.40255  -0.35440
 Alpha virt. eigenvalues --   -0.00650   0.07518   0.12495   0.12800   0.14555
 Alpha virt. eigenvalues --    0.17086   0.18785   0.22725   0.29227   0.32528
 Alpha virt. eigenvalues --    0.34441   0.38067   0.40088   0.42435   0.45522

 Mulliken charges:
               1
     1  C    0.083649
     2  O   -0.482233
     3  H    0.045416
     4  H    0.046725
     5  H    0.073951
     6  H    0.232492
 Sum of Mulliken charges =   0.00000

 Dipole moment (field-independent basis, Debye):
    X=              1.2753    Y=              1.6526    Z=             -0.1544  Tot=              2.0932
 Quadrupole moment (field-independent basis, Debye-Ang):
   XX=            -13.4315   YY=            -11.3415   ZZ=            -13.8301
   XY=             -2.2530   XZ=             -0.0930   YZ=             -0.1611

 Normal termination of Gaussian 09 at Wed Aug 26 19:52:12 2020.
