 Gaussian 09, Revision D.01,
 Gaussian 09:  ES64L-G09RevD.01 24-Apr-2013

 --------------------
 #p B2PLYPD3/Def2QZVP
 --------------------

 --------
 methanol
 --------
 Symbolic Z-matrix:
 Charge =  0 Multiplicity = 1

                         Standard orientation:
 ---------------------------------------------------------------------
 Center     Atomic      Atomic             Coordinates (Angstroms)
 Number     Number       Type             X           Y           Z
 ---------------------------------------------------------------------
      1          6           0        0.675683    0.007785   -0.011953
      2          8           0       -0.726144   -0.022602    0.084553
      3          1           0        0.913832    1.121427   -0.371267
      4          1           0        0.862263   -0.910455   -0.757543
      5          1           0        1.132554   -0.214893    0.934640
      6          1           0       -1.153589    0.138027   -0.410533
 ---------------------------------------------------------------------

 SCF Done:  E(RB2PLYPD3) =  -115.367267608     A.U. after   11 cycles
 E2(B2PLYPD3) =    -0.1435476139D+00 E(B2PLYPD3) =    -0.11551081522193D+03

 The electronic state is 1-A.
 Alpha  occ. eigenvalues --  -19.68380 -10.68584  -1.24467  -0.83124  -0.60699
 Alpha  occ. eigenvalues --   -0.52401  -0.52041  -0.38901  -0.35144
 Alpha virt. eigenvalues --    0.05255   0.09469   0.11244   0.12684   0.13239
 Alpha virt. eigenvalues --    0.16936   0.17502   0.28499   0.31501   0.32292
 Alpha virt. eigenvalues --    0.36823   0.38172   0.39038   0.42023   0.43618

 Mulliken charges:
               1
     1  C    0.056635
     2  O   -0.228870
     3  H    0.045617
     4  H    0.047769
     5  H    0.094492
     6  H   -0.015642
 Sum of Mulliken charges =   0.00000

 Dipole moment (field-independent basis, Debye):
    X=              0.7631    Y=              0.3349    Z=             -0.9443  Tot=              1.2594
 Quadrupole moment (field-independent basis, Debye-Ang):
   XX=            -12.9470   YY=            -13.1602   ZZ=            -12.9799
   XY=             -0.5682   XZ=              2.1924   YZ=             -0.2147

 Normal termination of Gaussian 09 at Wed Aug 26 21:25:13 2020.
