 Gaussian 09, Revision D.01,
 Gaussian 09:  ES64L-G09RevD.01 24-Apr-2013

 --------------------
 #p B2PLYPD3/Def2QZVP
 --------------------

 --------
 methanol
 --------
 Symbolic Z-matrix:
 Charge =  0 Multiplicity = 1

                         Standard orientation:
 ---------------------------------------------------------------------
 Center     Atomic      Atomic             Coordinates (Angstroms)
 Number     Number       Type             X           Y           Z
 ---------------------------------------------------------------------
      1          6           0        0.671070    0.034827   -0.003938
      2          8           0       -0.740324   -0.145905    0.001913
      3          1           0        1.021867    0.524315    0.850079
      4          1           0        1.026080    0.523181   -0.831057
      5          1           0        1.066134   -0.956913   -0.000780
      6          1           0       -1.217906    0.867694   -0.009919
 ---------------------------------------------------------------------

 SCF Done:  E(RB2PLYPD3) =  -115.527914241     A.U. after   11 cycles
 E2(B2PLYPD3) =    -0.1498552031D+00 E(B2PLYPD3) =    -0.11567776944425D+03

 The electronic state is 1-A.
 Alpha  occ. eigenvalues --  -19.73589 -10.63852  -1.13361  -0.78812  -0.56899
 Alpha  occ. eigenvalues --   -0.52527  -0.49087  -0.40569  -0.35259
 Alpha virt. eigenvalues --    0.03615   0.07797   0.12504   0.12751   0.15033
 Alpha virt. eigenvalues --    0.17151   0.18313   0.28646   0.29945   0.33656
 Alpha virt. eigenvalues --    0.34068   0.38874   0.39597   0.42554   0.44419

 Mulliken charges:
               1
     1  C    0.080968
     2  O   -0.493170
     3  H    0.048203
     4  H    0.049274
     5  H    0.065027
     6  H    0.249699
 Sum of Mulliken charges =   0.00000

 Dipole moment (field-independent basis, Debye):
    X=              0.8662    Y=              1.6454    Z=             -0.0348  Tot=              1.8599
 Quadrupole moment (field-independent basis, Debye-Ang):
   XX=            -12.7797   YY=            -12.0091   ZZ=            -13.8516
   XY=             -2.3799   XZ=              0.0003   YZ=             -0.0320

 Normal termination of Gaussian 09 at Wed Aug 26 23:35:17 2020.
