 Gaussian 09, Revision D.01,
 Gaussian 09:  ES64L-G09RevD.01 24-Apr-2013

 --------------------
 #p B2PLYPD3/Def2QZVP
 --------------------

 --------
 methanol
 --------
 Symbolic Z-matrix:
 Charge =  0 Multiplicity = 1

                         Standard orientation:
 ---------------------------------------------------------------------
 Center     Atomic      Atomic             Coordinates (Angstroms)
 Number     Number       Type             X           Y           Z
 ---------------------------------------------------------------------
      1          6           0        0.668371   -0.005692    0.004418
      2          8           0       -0.754413    0.090911   -0.013467
      3          1           0        1.035854   -0.777943   -0.786055
      4          1           0        0.974586   -0.360842    1.006807
      5          1           0        1.057811    1.044222   -0.195871
      6          1           0       -1.043169   -0.598578    0.056349
 ---------------------------------------------------------------------

 SCF Done:  E(RB2PLYPD3) =  -115.480263281     A.U. after   10 cycles
 E2(B2PLYPD3) =    -0.1444653717D+00 E(B2PLYPD3) =    -0.11562472865242D+03

 The electronic state is 1-A.
 Alpha  occ. eigenvalues --  -19.70299 -10.67545  -1.22242  -0.80111  -0.61023
 Alpha  occ. eigenvalues --   -0.51529  -0.50081  -0.41881  -0.35763
 Alpha virt. eigenvalues --    0.05338   0.09125   0.11773   0.12108   0.14729
 Alpha virt. eigenvalues --    0.16938   0.17563   0.28886   0.32428   0.32915
 Alpha virt. eigenvalues --    0.37331   0.38325   0.39588   0.40674   0.42909

 Mulliken charges:
               1
     1  C    0.063196
     2  O   -0.305189
     3  H    0.040945
     4  H    0.053799
     5  H    0.079139
     6  H    0.068111
 Sum of Mulliken charges =   0.00000

 Dipole moment (field-independent basis, Debye):
    X=              1.0115    Y=             -1.2949    Z=              0.1811  Tot=              1.6530
 Quadrupole moment (field-independent basis, Debye-Ang):
   XX=            -13.4299   YY=            -12.2292   ZZ=            -13.6435
   XY=              1.9408   XZ=             -0.2063   YZ=             -0.1358

 Normal termination of Gaussian 09 at Wed Aug 26 12:45:13 2020.
