 Gaussian 09, Revision D.01,
 Gaussian 09:  ES64L-G09RevD.01 24-Apr-2013

 --------------------
 #p B2PLYPD3/Def2QZVP
 --------------------

 --------
 methanol
 --------
 Symbolic Z-matrix:
 Charge =  0 Multiplicity = 1

                         Standard orientation:
 ---------------------------------------------------------------------
 Center     Atomic      Atomic             Coordinates (Angstroms)
 Number     Number       Type             X           Y           Z
 ---------------------------------------------------------------------
      1          6           0        0.662482    0.035594   -0.000762
      2          8           0       -0.736288   -0.144932   -0.003925
      3          1           0        0.998513    0.484665    0.855044
      4          1           0        0.990966    0.552688   -0.831120
      5          1           0        1.072068   -0.960973   -0.016430
      6          1           0       -1.146136    0.869517    0.028479
 ---------------------------------------------------------------------

 SCF Done:  E(RB2PLYPD3) =  -115.531808809     A.U. after   11 cycles
 E2(B2PLYPD3) =    -0.1492279658D+00 E(B2PLYPD3) =    -0.11568103677484D+03

 The electronic state is 1-A.
 Alpha  occ. eigenvalues --  -19.73426 -10.63686  -1.14291  -0.78764  -0.57350
 Alpha  occ. eigenvalues --   -0.53232  -0.49173  -0.40737  -0.35320
 Alpha virt. eigenvalues --    0.03855   0.08016   0.12489   0.12660   0.14974
 Alpha virt. eigenvalues --    0.17336   0.18214   0.28909   0.30373   0.33516
 Alpha virt. eigenvalues --    0.34554   0.38778   0.40032   0.42979   0.44453

 Mulliken charges:
               1
     1  C    0.082780
     2  O   -0.483466
     3  H    0.046672
     4  H    0.046809
     5  H    0.061144
     6  H    0.246062
 Sum of Mulliken charges =   0.00000

 Dipole moment (field-independent basis, Debye):
    X=              0.9127    Y=              1.6558    Z=              0.0636  Tot=              1.8918
 Quadrupole moment (field-independent basis, Debye-Ang):
   XX=            -13.1103   YY=            -11.9445   ZZ=            -13.7626
   XY=             -2.2862   XZ=             -0.0462   YZ=              0.0230

 Normal termination of Gaussian 09 at Thu Aug 27 00:06:25 2020.
