 Gaussian 09, Revision D.01,
 Gaussian 09:  ES64L-G09RevD.01 24-Apr-2013

 --------------------
 #p B2PLYPD3/Def2QZVP
 --------------------

 --------
 methanol
 --------
 Symbolic Z-matrix:
 Charge =  0 Multiplicity = 1

                         Standard orientation:
 ---------------------------------------------------------------------
 Center     Atomic      Atomic             Coordinates (Angstroms)
 Number     Number       Type             X           Y           Z
 ---------------------------------------------------------------------
      1          6           0       -0.686977    0.027803    0.014107
      2          8           0        0.745588   -0.154080   -0.024856
      3          1           0       -1.086440    0.600768   -0.813845
      4          1           0       -0.951017    0.460815    0.822981
      5          1           0       -1.049240   -0.924213    0.011253
      6          1           0        1.243855    0.928451    0.093811
 ---------------------------------------------------------------------

 SCF Done:  E(RB2PLYPD3) =  -115.497533943     A.U. after   11 cycles
 E2(B2PLYPD3) =    -0.1515489809D+00 E(B2PLYPD3) =    -0.11564908292354D+03

 The electronic state is 1-A.
 Alpha  occ. eigenvalues --  -19.73940 -10.63065  -1.11863  -0.79560  -0.56364
 Alpha  occ. eigenvalues --   -0.52188  -0.48793  -0.40726  -0.35128
 Alpha virt. eigenvalues --    0.02591   0.07642   0.12539   0.12787   0.14956
 Alpha virt. eigenvalues --    0.17047   0.18222   0.26759   0.29478   0.33177
 Alpha virt. eigenvalues --    0.33581   0.39271   0.39706   0.41452   0.44972

 Mulliken charges:
               1
     1  C    0.087396
     2  O   -0.506334
     3  H    0.047135
     4  H    0.052357
     5  H    0.070006
     6  H    0.249441
 Sum of Mulliken charges =   0.00000

 Dipole moment (field-independent basis, Debye):
    X=             -0.9680    Y=              1.6526    Z=              0.2972  Tot=              1.9382
 Quadrupole moment (field-independent basis, Debye-Ang):
   XX=            -12.7638   YY=            -11.8069   ZZ=            -13.8716
   XY=              2.4433   XZ=              0.2045   YZ=              0.1667

 Normal termination of Gaussian 09 at Wed Aug 26 12:52:45 2020.
