 Gaussian 09, Revision D.01,
 Gaussian 09:  ES64L-G09RevD.01 24-Apr-2013

 --------------------
 #p B2PLYPD3/Def2QZVP
 --------------------

 --------
 methanol
 --------
 Symbolic Z-matrix:
 Charge =  0 Multiplicity = 1

                         Standard orientation:
 ---------------------------------------------------------------------
 Center     Atomic      Atomic             Coordinates (Angstroms)
 Number     Number       Type             X           Y           Z
 ---------------------------------------------------------------------
      1          6           0        0.686485    0.061600    0.012573
      2          8           0       -0.749167   -0.177151   -0.020168
      3          1           0        1.005948    0.329071    0.820600
      4          1           0        1.066787    0.676730   -0.715930
      5          1           0        1.140916   -0.932374   -0.104642
      6          1           0       -1.339225    0.974182    0.085878
 ---------------------------------------------------------------------

 SCF Done:  E(RB2PLYPD3) =  -115.457978883     A.U. after   11 cycles
 E2(B2PLYPD3) =    -0.1538719353D+00 E(B2PLYPD3) =    -0.11561185081818D+03

 The electronic state is 1-A.
 Alpha  occ. eigenvalues --  -19.74810 -10.62880  -1.10796  -0.80306  -0.54328
 Alpha  occ. eigenvalues --   -0.53544  -0.47857  -0.39520  -0.35662
 Alpha virt. eigenvalues --    0.00878   0.07258   0.12284   0.13051   0.14892
 Alpha virt. eigenvalues --    0.17179   0.18674   0.24104   0.29089   0.33006
 Alpha virt. eigenvalues --    0.34135   0.37496   0.39601   0.43076   0.44110

 Mulliken charges:
               1
     1  C    0.078912
     2  O   -0.503340
     3  H    0.071085
     4  H    0.052761
     5  H    0.054047
     6  H    0.246536
 Sum of Mulliken charges =   0.00000

 Dipole moment (field-independent basis, Debye):
    X=              0.9459    Y=              1.7503    Z=              0.2511  Tot=              2.0053
 Quadrupole moment (field-independent basis, Debye-Ang):
   XX=            -12.3232   YY=            -11.9310   ZZ=            -13.9690
   XY=             -2.5194   XZ=             -0.1403   YZ=              0.0780

 Normal termination of Gaussian 09 at Wed Aug 26 21:44:29 2020.
