 Gaussian 09, Revision D.01,
 Gaussian 09:  ES64L-G09RevD.01 24-Apr-2013

 --------------------
 #p B2PLYPD3/Def2QZVP
 --------------------

 --------
 methanol
 --------
 Symbolic Z-matrix:
 Charge =  0 Multiplicity = 1

                         Standard orientation:
 ---------------------------------------------------------------------
 Center     Atomic      Atomic             Coordinates (Angstroms)
 Number     Number       Type             X           Y           Z
 ---------------------------------------------------------------------
      1          6           0        0.687549   -0.017809   -0.011338
      2          8           0       -0.773470    0.050191    0.010723
      3          1           0        0.994731   -0.767551   -0.842845
      4          1           0        1.142243   -0.367767    1.027003
      5          1           0        0.944865    1.234347   -0.217585
      6          1           0       -1.019370   -0.393706    0.015671
 ---------------------------------------------------------------------

 SCF Done:  E(RB2PLYPD3) =  -114.807704223     A.U. after   12 cycles
 E2(B2PLYPD3) =    -0.1438899201D+00 E(B2PLYPD3) =    -0.11495159414301D+03

 The electronic state is 1-A.
 Alpha  occ. eigenvalues --  -19.68463 -10.70862  -1.33096  -0.82838  -0.62520
 Alpha  occ. eigenvalues --   -0.51205  -0.48269  -0.41401  -0.36966
 Alpha virt. eigenvalues --    0.04656   0.09296   0.10675   0.11576   0.14428
 Alpha virt. eigenvalues --    0.16312   0.17411   0.27975   0.29596   0.32755
 Alpha virt. eigenvalues --    0.33441   0.36152   0.37609   0.41325   0.42381

 Mulliken charges:
               1
     1  C    0.043010
     2  O   -0.052532
     3  H    0.064802
     4  H    0.064732
     5  H    0.079243
     6  H   -0.199255
 Sum of Mulliken charges =   0.00000

 Dipole moment (field-independent basis, Debye):
    X=              1.1943    Y=             -1.1490    Z=             -0.0086  Tot=              1.6573
 Quadrupole moment (field-independent basis, Debye-Ang):
   XX=            -13.4665   YY=            -12.1829   ZZ=            -13.4308
   XY=              1.4015   XZ=              0.1175   YZ=              0.0398

 Normal termination of Gaussian 09 at Thu Aug 27 00:25:28 2020.
