 Gaussian 09, Revision D.01,
 Gaussian 09:  ES64L-G09RevD.01 24-Apr-2013

 --------------------
 #p B2PLYPD3/Def2QZVP
 --------------------

 --------
 methanol
 --------
 Symbolic Z-matrix:
 Charge =  0 Multiplicity = 1

                         Standard orientation:
 ---------------------------------------------------------------------
 Center     Atomic      Atomic             Coordinates (Angstroms)
 Number     Number       Type             X           Y           Z
 ---------------------------------------------------------------------
      1          6           0       -0.680351    0.003935    0.013314
      2          8           0        0.742985    0.094215   -0.021615
      3          1           0       -1.030271   -0.307122    1.002959
      4          1           0       -0.994411   -0.809466   -0.806390
      5          1           0       -0.990847    0.959022   -0.248866
      6          1           0        1.153757   -0.619764    0.145329
 ---------------------------------------------------------------------

 SCF Done:  E(RB2PLYPD3) =  -115.527907837     A.U. after   11 cycles
 E2(B2PLYPD3) =    -0.1454164497D+00 E(B2PLYPD3) =    -0.11567332428701D+03

 The electronic state is 1-A.
 Alpha  occ. eigenvalues --  -19.70851 -10.66597  -1.18429  -0.80211  -0.59728
 Alpha  occ. eigenvalues --   -0.51398  -0.50877  -0.41011  -0.35102
 Alpha virt. eigenvalues --    0.05328   0.08772   0.11899   0.12473   0.14622
 Alpha virt. eigenvalues --    0.16777   0.17770   0.29125   0.32259   0.33209
 Alpha virt. eigenvalues --    0.36679   0.39525   0.40071   0.40721   0.43649

 Mulliken charges:
               1
     1  C    0.068311
     2  O   -0.403619
     3  H    0.054985
     4  H    0.035288
     5  H    0.087381
     6  H    0.157653
 Sum of Mulliken charges =   0.00000

 Dipole moment (field-independent basis, Debye):
    X=             -0.8419    Y=             -1.2330    Z=              0.3876  Tot=              1.5425
 Quadrupole moment (field-independent basis, Debye-Ang):
   XX=            -13.0432   YY=            -12.4017   ZZ=            -13.5736
   XY=             -2.1729   XZ=              0.3350   YZ=             -0.3353

 Normal termination of Gaussian 09 at Wed Aug 26 15:19:36 2020.
