 Gaussian 09, Revision D.01,
 Gaussian 09:  ES64L-G09RevD.01 24-Apr-2013

 --------------------
 #p B2PLYPD3/Def2QZVP
 --------------------

 --------
 methanol
 --------
 Symbolic Z-matrix:
 Charge =  0 Multiplicity = 1

                         Standard orientation:
 ---------------------------------------------------------------------
 Center     Atomic      Atomic             Coordinates (Angstroms)
 Number     Number       Type             X           Y           Z
 ---------------------------------------------------------------------
      1          6           0       -0.660243    0.007022    0.022898
      2          8           0        0.729567   -0.140566   -0.027245
      3          1           0       -1.038250    0.710962   -0.814175
      4          1           0       -0.954326    0.375734    0.906483
      5          1           0       -1.068971   -0.864606   -0.125657
      6          1           0        1.186470    0.860305    0.113920
 ---------------------------------------------------------------------

 SCF Done:  E(RB2PLYPD3) =  -115.517324117     A.U. after   11 cycles
 E2(B2PLYPD3) =    -0.1492394810D+00 E(B2PLYPD3) =    -0.11566656359769D+03

 The electronic state is 1-A.
 Alpha  occ. eigenvalues --  -19.73441 -10.63603  -1.14395  -0.79135  -0.57476
 Alpha  occ. eigenvalues --   -0.51960  -0.50952  -0.40683  -0.34654
 Alpha virt. eigenvalues --    0.03574   0.07951   0.12449   0.12931   0.14900
 Alpha virt. eigenvalues --    0.17470   0.18160   0.28742   0.29991   0.32983
 Alpha virt. eigenvalues --    0.34629   0.38210   0.41023   0.41980   0.44479

 Mulliken charges:
               1
     1  C    0.082383
     2  O   -0.483896
     3  H    0.027356
     4  H    0.046736
     5  H    0.072851
     6  H    0.254570
 Sum of Mulliken charges =   0.00000

 Dipole moment (field-independent basis, Debye):
    X=             -0.7857    Y=              1.5050    Z=              0.3599  Tot=              1.7355
 Quadrupole moment (field-independent basis, Debye-Ang):
   XX=            -12.9174   YY=            -12.0438   ZZ=            -13.7896
   XY=              2.5628   XZ=              0.2306   YZ=              0.2935

 Normal termination of Gaussian 09 at Wed Aug 26 15:10:09 2020.
