 Gaussian 09, Revision D.01,
 Gaussian 09:  ES64L-G09RevD.01 24-Apr-2013

 --------------------
 #p B2PLYPD3/Def2QZVP
 --------------------

 --------
 methanol
 --------
 Symbolic Z-matrix:
 Charge =  0 Multiplicity = 1

                         Standard orientation:
 ---------------------------------------------------------------------
 Center     Atomic      Atomic             Coordinates (Angstroms)
 Number     Number       Type             X           Y           Z
 ---------------------------------------------------------------------
      1          6           0       -0.676771    0.016946    0.000343
      2          8           0        0.750555   -0.139197   -0.008063
      3          1           0       -1.056417    0.567404   -0.840273
      4          1           0       -0.988486    0.489933    0.888971
      5          1           0       -1.057957   -0.920604   -0.011242
      6          1           0        1.159046    0.875170    0.024994
 ---------------------------------------------------------------------

 SCF Done:  E(RB2PLYPD3) =  -115.532381219     A.U. after   11 cycles
 E2(B2PLYPD3) =    -0.1496053252D+00 E(B2PLYPD3) =    -0.11568198654403D+03

 The electronic state is 1-A.
 Alpha  occ. eigenvalues --  -19.73450 -10.64050  -1.13385  -0.78991  -0.56846
 Alpha  occ. eigenvalues --   -0.51920  -0.49661  -0.41243  -0.35171
 Alpha virt. eigenvalues --    0.03887   0.07894   0.12503   0.12694   0.14814
 Alpha virt. eigenvalues --    0.17281   0.18210   0.28903   0.30542   0.33229
 Alpha virt. eigenvalues --    0.33659   0.39022   0.40589   0.41523   0.43838

 Mulliken charges:
               1
     1  C    0.080978
     2  O   -0.493335
     3  H    0.046007
     4  H    0.046974
     5  H    0.071374
     6  H    0.248002
 Sum of Mulliken charges =   0.00000

 Dipole moment (field-independent basis, Debye):
    X=             -0.9857    Y=              1.5882    Z=              0.0761  Tot=              1.8707
 Quadrupole moment (field-independent basis, Debye-Ang):
   XX=            -13.0390   YY=            -11.9256   ZZ=            -13.8177
   XY=              2.3833   XZ=              0.1024   YZ=              0.0308

 Normal termination of Gaussian 09 at Wed Aug 26 10:21:21 2020.
