 Gaussian 09, Revision D.01,
 Gaussian 09:  ES64L-G09RevD.01 24-Apr-2013

 --------------------
 #p B2PLYPD3/Def2QZVP
 --------------------

 --------
 methanol
 --------
 Symbolic Z-matrix:
 Charge =  0 Multiplicity = 1

                         Standard orientation:
 ---------------------------------------------------------------------
 Center     Atomic      Atomic             Coordinates (Angstroms)
 Number     Number       Type             X           Y           Z
 ---------------------------------------------------------------------
      1          6           0        0.662389   -0.020394    0.005497
      2          8           0       -0.751991    0.125432   -0.010432
      3          1           0        1.006475   -0.655751   -0.803865
      4          1           0        1.010543   -0.432033    0.874574
      5          1           0        1.074418    1.011751   -0.085004
      6          1           0       -1.049843   -0.805058    0.064773
 ---------------------------------------------------------------------

 SCF Done:  E(RB2PLYPD3) =  -115.546715162     A.U. after   11 cycles
 E2(B2PLYPD3) =    -0.1477108060D+00 E(B2PLYPD3) =    -0.11569442596785D+03

 The electronic state is 1-A.
 Alpha  occ. eigenvalues --  -19.72838 -10.64995  -1.16093  -0.78766  -0.58866
 Alpha  occ. eigenvalues --   -0.52369  -0.49052  -0.41848  -0.35504
 Alpha virt. eigenvalues --    0.04723   0.08362   0.12117   0.12544   0.15039
 Alpha virt. eigenvalues --    0.17382   0.17933   0.29190   0.32595   0.33351
 Alpha virt. eigenvalues --    0.35207   0.38173   0.39918   0.41798   0.44897

 Mulliken charges:
               1
     1  C    0.078100
     2  O   -0.458453
     3  H    0.042124
     4  H    0.049304
     5  H    0.063863
     6  H    0.225061
 Sum of Mulliken charges =   0.00000

 Dipole moment (field-independent basis, Debye):
    X=              1.0303    Y=             -1.5920    Z=              0.1848  Tot=              1.9053
 Quadrupole moment (field-independent basis, Debye-Ang):
   XX=            -13.4510   YY=            -11.9111   ZZ=            -13.8217
   XY=              2.0521   XZ=             -0.0810   YZ=             -0.1145

 Normal termination of Gaussian 09 at Wed Aug 26 11:06:41 2020.
