 Gaussian 09, Revision D.01,
 Gaussian 09:  ES64L-G09RevD.01 24-Apr-2013

 --------------------
 #p B2PLYPD3/Def2QZVP
 --------------------

 --------
 methanol
 --------
 Symbolic Z-matrix:
 Charge =  0 Multiplicity = 1

                         Standard orientation:
 ---------------------------------------------------------------------
 Center     Atomic      Atomic             Coordinates (Angstroms)
 Number     Number       Type             X           Y           Z
 ---------------------------------------------------------------------
      1          6           0       -0.677813   -0.010236   -0.000506
      2          8           0        0.750407    0.100870   -0.011427
      3          1           0       -1.002649   -0.458149    0.986153
      4          1           0       -1.001914   -0.672691   -0.877900
      5          1           0       -1.081811    0.996330   -0.085851
      6          1           0        1.149990   -0.611028    0.072048
 ---------------------------------------------------------------------

 SCF Done:  E(RB2PLYPD3) =  -115.525464881     A.U. after   10 cycles
 E2(B2PLYPD3) =    -0.1452564017D+00 E(B2PLYPD3) =    -0.11567072128288D+03

 The electronic state is 1-A.
 Alpha  occ. eigenvalues --  -19.70767 -10.67124  -1.18957  -0.79910  -0.59804
 Alpha  occ. eigenvalues --   -0.51334  -0.50661  -0.40772  -0.35443
 Alpha virt. eigenvalues --    0.05387   0.08761   0.11960   0.12382   0.14456
 Alpha virt. eigenvalues --    0.17053   0.17753   0.29049   0.32429   0.32975
 Alpha virt. eigenvalues --    0.37339   0.39333   0.39596   0.40114   0.43046

 Mulliken charges:
               1
     1  C    0.068583
     2  O   -0.388779
     3  H    0.048645
     4  H    0.048240
     5  H    0.083111
     6  H    0.140201
 Sum of Mulliken charges =   0.00000

 Dipole moment (field-independent basis, Debye):
    X=             -0.8962    Y=             -1.2983    Z=              0.1698  Tot=              1.5867
 Quadrupole moment (field-independent basis, Debye-Ang):
   XX=            -12.9712   YY=            -12.4446   ZZ=            -13.6297
   XY=             -2.2079   XZ=              0.2244   YZ=             -0.0929

 Normal termination of Gaussian 09 at Wed Aug 26 09:57:23 2020.
