 Gaussian 09, Revision D.01,
 Gaussian 09:  ES64L-G09RevD.01 24-Apr-2013

 --------------------
 #p B2PLYPD3/Def2QZVP
 --------------------

 --------
 methanol
 --------
 Symbolic Z-matrix:
 Charge =  0 Multiplicity = 1

                         Standard orientation:
 ---------------------------------------------------------------------
 Center     Atomic      Atomic             Coordinates (Angstroms)
 Number     Number       Type             X           Y           Z
 ---------------------------------------------------------------------
      1          6           0       -0.689769    0.047246    0.007236
      2          8           0        0.718118   -0.205227   -0.025552
      3          1           0       -1.055601    0.610368   -0.745522
      4          1           0       -0.938779    0.430279    0.761198
      5          1           0       -1.025853   -0.808935    0.041440
      6          1           0        1.413904    1.126629    0.103880
 ---------------------------------------------------------------------

 SCF Done:  E(RB2PLYPD3) =  -115.371752824     A.U. after   12 cycles
 E2(B2PLYPD3) =    -0.1576606355D+00 E(B2PLYPD3) =    -0.11552941345951D+03

 The electronic state is 1-A.
 Alpha  occ. eigenvalues --  -19.75315 -10.60113  -1.11054  -0.81807  -0.56247
 Alpha  occ. eigenvalues --   -0.53967  -0.48248  -0.38534  -0.35310
 Alpha virt. eigenvalues --   -0.03105   0.07468   0.12691   0.13163   0.14807
 Alpha virt. eigenvalues --    0.16896   0.18416   0.21303   0.29464   0.33574
 Alpha virt. eigenvalues --    0.34130   0.38523   0.40090   0.43259   0.46045

 Mulliken charges:
               1
     1  C    0.066066
     2  O   -0.483857
     3  H    0.049721
     4  H    0.074546
     5  H    0.078335
     6  H    0.215189
 Sum of Mulliken charges =   0.00000

 Dipole moment (field-independent basis, Debye):
    X=             -1.0484    Y=              1.6787    Z=              0.2852  Tot=              1.9997
 Quadrupole moment (field-independent basis, Debye-Ang):
   XX=            -12.3251   YY=            -11.5006   ZZ=            -13.8980
   XY=              2.6000   XZ=              0.1471   YZ=              0.0913

 Normal termination of Gaussian 09 at Wed Aug 26 22:38:43 2020.
