 Gaussian 09, Revision D.01,
 Gaussian 09:  ES64L-G09RevD.01 24-Apr-2013

 --------------------
 #p B2PLYPD3/Def2QZVP
 --------------------

 --------
 methanol
 --------
 Symbolic Z-matrix:
 Charge =  0 Multiplicity = 1

                         Standard orientation:
 ---------------------------------------------------------------------
 Center     Atomic      Atomic             Coordinates (Angstroms)
 Number     Number       Type             X           Y           Z
 ---------------------------------------------------------------------
      1          6           0        0.650035   -0.033084    0.016838
      2          8           0       -0.756952    0.099802   -0.018100
      3          1           0        0.941293   -0.860229   -0.772277
      4          1           0        1.156171   -0.285383    0.924812
      5          1           0        1.192383    1.071047   -0.275467
      6          1           0       -1.134440   -0.525347    0.166704
 ---------------------------------------------------------------------

 SCF Done:  E(RB2PLYPD3) =  -115.464352265     A.U. after   11 cycles
 E2(B2PLYPD3) =    -0.1451058208D+00 E(B2PLYPD3) =    -0.11560945808570D+03

 The electronic state is 1-A.
 Alpha  occ. eigenvalues --  -19.71032 -10.68635  -1.22510  -0.80275  -0.62438
 Alpha  occ. eigenvalues --   -0.51754  -0.48902  -0.40002  -0.36050
 Alpha virt. eigenvalues --    0.05136   0.08629   0.11420   0.12188   0.14707
 Alpha virt. eigenvalues --    0.17260   0.18154   0.28793   0.31695   0.33681
 Alpha virt. eigenvalues --    0.34140   0.37246   0.39566   0.40988   0.42493

 Mulliken charges:
               1
     1  C    0.047715
     2  O   -0.287456
     3  H    0.043223
     4  H    0.064307
     5  H    0.058018
     6  H    0.074194
 Sum of Mulliken charges =   0.00000

 Dipole moment (field-independent basis, Debye):
    X=              0.7857    Y=             -1.3103    Z=              0.5043  Tot=              1.6089
 Quadrupole moment (field-independent basis, Debye-Ang):
   XX=            -12.7796   YY=            -12.7699   ZZ=            -13.8096
   XY=              1.9546   XZ=             -0.2060   YZ=             -0.2129

 Normal termination of Gaussian 09 at Wed Aug 26 20:44:50 2020.
