 Gaussian 09, Revision D.01,
 Gaussian 09:  ES64L-G09RevD.01 24-Apr-2013

 --------------------
 #p B2PLYPD3/Def2QZVP
 --------------------

 --------
 methanol
 --------
 Symbolic Z-matrix:
 Charge =  0 Multiplicity = 1

                         Standard orientation:
 ---------------------------------------------------------------------
 Center     Atomic      Atomic             Coordinates (Angstroms)
 Number     Number       Type             X           Y           Z
 ---------------------------------------------------------------------
      1          6           0        0.666705   -0.016582    0.007882
      2          8           0       -0.753198    0.096674   -0.014922
      3          1           0        1.041646   -0.703998   -0.846531
      4          1           0        1.010650   -0.401444    0.982906
      5          1           0        1.080823    1.035340   -0.139017
      6          1           0       -1.107762   -0.603798    0.074727
 ---------------------------------------------------------------------

 SCF Done:  E(RB2PLYPD3) =  -115.509749286     A.U. after   10 cycles
 E2(B2PLYPD3) =    -0.1449402656D+00 E(B2PLYPD3) =    -0.11565468955194D+03

 The electronic state is 1-A.
 Alpha  occ. eigenvalues --  -19.70809 -10.67424  -1.20573  -0.79895  -0.60682
 Alpha  occ. eigenvalues --   -0.51543  -0.49955  -0.41064  -0.35821
 Alpha virt. eigenvalues --    0.05385   0.08864   0.11973   0.12155   0.14640
 Alpha virt. eigenvalues --    0.17073   0.17866   0.28912   0.32831   0.33071
 Alpha virt. eigenvalues --    0.37134   0.38540   0.39701   0.40294   0.42776

 Mulliken charges:
               1
     1  C    0.061371
     2  O   -0.346780
     3  H    0.045564
     4  H    0.055140
     5  H    0.075029
     6  H    0.109675
 Sum of Mulliken charges =   0.00000

 Dipole moment (field-independent basis, Debye):
    X=              0.9105    Y=             -1.3155    Z=              0.2219  Tot=              1.6151
 Quadrupole moment (field-independent basis, Debye-Ang):
   XX=            -13.1005   YY=            -12.4514   ZZ=            -13.6325
   XY=              2.0471   XZ=             -0.2204   YZ=             -0.1394

 Normal termination of Gaussian 09 at Wed Aug 26 12:06:39 2020.
