 Gaussian 09, Revision D.01,
 Gaussian 09:  ES64L-G09RevD.01 24-Apr-2013

 --------------------
 #p B2PLYPD3/Def2QZVP
 --------------------

 --------
 methanol
 --------
 Symbolic Z-matrix:
 Charge =  0 Multiplicity = 1

                         Standard orientation:
 ---------------------------------------------------------------------
 Center     Atomic      Atomic             Coordinates (Angstroms)
 Number     Number       Type             X           Y           Z
 ---------------------------------------------------------------------
      1          6           0       -0.678794    0.006324    0.008084
      2          8           0        0.749553   -0.130890   -0.027693
      3          1           0       -1.073655    0.683439   -0.828258
      4          1           0       -1.006357    0.381662    0.927069
      5          1           0       -1.034211   -0.896754   -0.069359
      6          1           0        1.190563    0.840828    0.143589
 ---------------------------------------------------------------------

 SCF Done:  E(RB2PLYPD3) =  -115.526787304     A.U. after   11 cycles
 E2(B2PLYPD3) =    -0.1494137227D+00 E(B2PLYPD3) =    -0.11567620102643D+03

 The electronic state is 1-A.
 Alpha  occ. eigenvalues --  -19.73338 -10.64352  -1.13492  -0.79232  -0.56945
 Alpha  occ. eigenvalues --   -0.51172  -0.50376  -0.41132  -0.35000
 Alpha virt. eigenvalues --    0.04018   0.07838   0.12321   0.12842   0.14819
 Alpha virt. eigenvalues --    0.17117   0.18301   0.28977   0.30957   0.33166
 Alpha virt. eigenvalues --    0.33414   0.38227   0.40367   0.41145   0.43964

 Mulliken charges:
               1
     1  C    0.076555
     2  O   -0.492922
     3  H    0.041336
     4  H    0.047858
     5  H    0.077874
     6  H    0.249298
 Sum of Mulliken charges =   0.00000

 Dipole moment (field-independent basis, Debye):
    X=             -0.9085    Y=              1.4861    Z=              0.3741  Tot=              1.7815
 Quadrupole moment (field-independent basis, Debye-Ang):
   XX=            -12.9069   YY=            -12.0551   ZZ=            -13.7966
   XY=              2.4455   XZ=              0.3181   YZ=              0.2283

 Normal termination of Gaussian 09 at Wed Aug 26 11:21:53 2020.
