 Gaussian 09, Revision D.01,
 Gaussian 09:  ES64L-G09RevD.01 24-Apr-2013

 --------------------
 #p B2PLYPD3/Def2QZVP
 --------------------

 --------
 methanol
 --------
 Symbolic Z-matrix:
 Charge =  0 Multiplicity = 1

                         Standard orientation:
 ---------------------------------------------------------------------
 Center     Atomic      Atomic             Coordinates (Angstroms)
 Number     Number       Type             X           Y           Z
 ---------------------------------------------------------------------
      1          6           0       -0.670258    0.009882   -0.021389
      2          8           0        0.754792   -0.196799    0.008675
      3          1           0       -1.126065    0.398677   -0.791411
      4          1           0       -0.987984    0.599364    0.830890
      5          1           0       -1.118734   -0.702625    0.099512
      6          1           0        1.215997    1.219681   -0.080056
 ---------------------------------------------------------------------

 SCF Done:  E(RB2PLYPD3) =  -115.369675450     A.U. after   12 cycles
 E2(B2PLYPD3) =    -0.1583063194D+00 E(B2PLYPD3) =    -0.11552798176946D+03

 The electronic state is 1-A.
 Alpha  occ. eigenvalues --  -19.76154 -10.61316  -1.10926  -0.82413  -0.54478
 Alpha  occ. eigenvalues --   -0.51778  -0.49512  -0.39132  -0.35296
 Alpha virt. eigenvalues --   -0.03389   0.07210   0.12640   0.13012   0.14434
 Alpha virt. eigenvalues --    0.18149   0.18781   0.21291   0.29462   0.32413
 Alpha virt. eigenvalues --    0.34318   0.37341   0.40154   0.42777   0.44252

 Mulliken charges:
               1
     1  C    0.045124
     2  O   -0.472650
     3  H    0.042814
     4  H    0.036607
     5  H    0.112888
     6  H    0.235218
 Sum of Mulliken charges =   0.00000

 Dipole moment (field-independent basis, Debye):
    X=             -1.1729    Y=              1.6742    Z=             -0.1575  Tot=              2.0502
 Quadrupole moment (field-independent basis, Debye-Ang):
   XX=            -12.8901   YY=            -11.3636   ZZ=            -14.0164
   XY=              2.6787   XZ=              0.0136   YZ=             -0.1850

 Normal termination of Gaussian 09 at Wed Aug 26 22:55:28 2020.
