 Gaussian 09, Revision D.01,
 Gaussian 09:  ES64L-G09RevD.01 24-Apr-2013

 --------------------
 #p B2PLYPD3/Def2QZVP
 --------------------

 --------
 methanol
 --------
 Symbolic Z-matrix:
 Charge =  0 Multiplicity = 1

                         Standard orientation:
 ---------------------------------------------------------------------
 Center     Atomic      Atomic             Coordinates (Angstroms)
 Number     Number       Type             X           Y           Z
 ---------------------------------------------------------------------
      1          6           0        0.668257   -0.016204   -0.002022
      2          8           0       -0.758389    0.099222   -0.003509
      3          1           0        1.068089   -0.611044   -0.873415
      4          1           0        1.018523   -0.488860    0.964861
      5          1           0        1.073786    1.039390   -0.054923
      6          1           0       -1.102828   -0.636037    0.003676
 ---------------------------------------------------------------------

 SCF Done:  E(RB2PLYPD3) =  -115.522221655     A.U. after   10 cycles
 E2(B2PLYPD3) =    -0.1453788087D+00 E(B2PLYPD3) =    -0.11566760046419D+03

 The electronic state is 1-A.
 Alpha  occ. eigenvalues --  -19.71176 -10.67317  -1.19780  -0.79521  -0.60379
 Alpha  occ. eigenvalues --   -0.51322  -0.49780  -0.41339  -0.35817
 Alpha virt. eigenvalues --    0.05366   0.08721   0.12026   0.12160   0.14699
 Alpha virt. eigenvalues --    0.17096   0.17950   0.28948   0.32510   0.33332
 Alpha virt. eigenvalues --    0.37270   0.38801   0.39508   0.39873   0.42694

 Mulliken charges:
               1
     1  C    0.061145
     2  O   -0.368808
     3  H    0.050648
     4  H    0.050910
     5  H    0.074451
     6  H    0.131655
 Sum of Mulliken charges =   0.00000

 Dipole moment (field-independent basis, Debye):
    X=              0.9439    Y=             -1.3610    Z=              0.0078  Tot=              1.6563
 Quadrupole moment (field-independent basis, Debye-Ang):
   XX=            -13.1183   YY=            -12.3883   ZZ=            -13.6991
   XY=              2.0520   XZ=             -0.0819   YZ=              0.0072

 Normal termination of Gaussian 09 at Thu Aug 27 00:09:18 2020.
