 Gaussian 09, Revision D.01,
 Gaussian 09:  ES64L-G09RevD.01 24-Apr-2013

 --------------------
 #p B2PLYPD3/Def2QZVP
 --------------------

 --------
 methanol
 --------
 Symbolic Z-matrix:
 Charge =  0 Multiplicity = 1

                         Standard orientation:
 ---------------------------------------------------------------------
 Center     Atomic      Atomic             Coordinates (Angstroms)
 Number     Number       Type             X           Y           Z
 ---------------------------------------------------------------------
      1          6           0        0.670198    0.033336    0.009819
      2          8           0       -0.763062   -0.173535   -0.011607
      3          1           0        1.198502    0.334237    0.752898
      4          1           0        0.967254    0.685785   -0.753074
      5          1           0        1.101236   -0.900759   -0.106739
      6          1           0       -1.183686    1.068998    0.140857
 ---------------------------------------------------------------------

 SCF Done:  E(RB2PLYPD3) =  -115.457657911     A.U. after   11 cycles
 E2(B2PLYPD3) =    -0.1550493577D+00 E(B2PLYPD3) =    -0.11561270726832D+03

 The electronic state is 1-A.
 Alpha  occ. eigenvalues --  -19.75618 -10.62962  -1.11396  -0.80377  -0.54833
 Alpha  occ. eigenvalues --   -0.52451  -0.47887  -0.40373  -0.35430
 Alpha virt. eigenvalues --    0.00184   0.07287   0.12286   0.12946   0.14855
 Alpha virt. eigenvalues --    0.17357   0.18889   0.23364   0.29172   0.32044
 Alpha virt. eigenvalues --    0.34478   0.38174   0.38650   0.42175   0.45330

 Mulliken charges:
               1
     1  C    0.094421
     2  O   -0.478923
     3  H    0.045820
     4  H    0.038360
     5  H    0.055392
     6  H    0.244930
 Sum of Mulliken charges =   0.00000

 Dipole moment (field-independent basis, Debye):
    X=              1.1120    Y=              1.7361    Z=              0.2845  Tot=              2.0812
 Quadrupole moment (field-independent basis, Debye-Ang):
   XX=            -12.9308   YY=            -11.5576   ZZ=            -14.1982
   XY=             -2.3724   XZ=             -0.0007   YZ=              0.1481

 Normal termination of Gaussian 09 at Wed Aug 26 20:12:44 2020.
