 Gaussian 09, Revision D.01,
 Gaussian 09:  ES64L-G09RevD.01 24-Apr-2013

 --------------------
 #p B2PLYPD3/Def2QZVP
 --------------------

 --------
 methanol
 --------
 Symbolic Z-matrix:
 Charge =  0 Multiplicity = 1

                         Standard orientation:
 ---------------------------------------------------------------------
 Center     Atomic      Atomic             Coordinates (Angstroms)
 Number     Number       Type             X           Y           Z
 ---------------------------------------------------------------------
      1          6           0        0.674487   -0.026561    0.008688
      2          8           0       -0.772180   -0.043397   -0.043209
      3          1           0        1.092766   -0.063806    1.121555
      4          1           0        1.035684    1.128208   -0.497910
      5          1           0        1.099569   -0.851853   -0.625510
      6          1           0       -1.097501    0.293995    0.295406
 ---------------------------------------------------------------------

 SCF Done:  E(RB2PLYPD3) =  -115.127696489     A.U. after   11 cycles
 E2(B2PLYPD3) =    -0.1439918515D+00 E(B2PLYPD3) =    -0.11527168834094D+03

 The electronic state is 1-A.
 Alpha  occ. eigenvalues --  -19.68737 -10.70826  -1.29246  -0.83077  -0.62096
 Alpha  occ. eigenvalues --   -0.51464  -0.49448  -0.41190  -0.35617
 Alpha virt. eigenvalues --    0.04907   0.09364   0.10759   0.11823   0.14099
 Alpha virt. eigenvalues --    0.16852   0.17544   0.28363   0.30276   0.32024
 Alpha virt. eigenvalues --    0.34381   0.36477   0.37522   0.41294   0.42544

 Mulliken charges:
               1
     1  C    0.053179
     2  O   -0.146489
     3  H    0.054707
     4  H    0.033469
     5  H    0.104245
     6  H   -0.099111
 Sum of Mulliken charges =   0.00000

 Dipole moment (field-independent basis, Debye):
    X=              1.0443    Y=              0.5511    Z=              0.8164  Tot=              1.4355
 Quadrupole moment (field-independent basis, Debye-Ang):
   XX=            -13.0284   YY=            -13.1575   ZZ=            -13.0624
   XY=             -1.5812   XZ=             -1.1369   YZ=              0.5572

 Normal termination of Gaussian 09 at Wed Aug 26 22:07:40 2020.
