 Gaussian 09, Revision D.01,
 Gaussian 09:  ES64L-G09RevD.01 24-Apr-2013

 --------------------
 #p B2PLYPD3/Def2QZVP
 --------------------

 --------
 methanol
 --------
 Symbolic Z-matrix:
 Charge =  0 Multiplicity = 1

                         Standard orientation:
 ---------------------------------------------------------------------
 Center     Atomic      Atomic             Coordinates (Angstroms)
 Number     Number       Type             X           Y           Z
 ---------------------------------------------------------------------
      1          6           0       -0.676015   -0.014848   -0.017583
      2          8           0        0.743733    0.046078    0.018567
      3          1           0       -1.180914   -0.553460    0.978611
      4          1           0       -0.945843   -0.602443   -0.978457
      5          1           0       -0.973435    1.199647   -0.046106
      6          1           0        1.206421   -0.323276    0.002914
 ---------------------------------------------------------------------

 SCF Done:  E(RB2PLYPD3) =  -115.160872191     A.U. after   11 cycles
 E2(B2PLYPD3) =    -0.1441263641D+00 E(B2PLYPD3) =    -0.11530499855504D+03

 The electronic state is 1-A.
 Alpha  occ. eigenvalues --  -19.67797 -10.71243  -1.27386  -0.84695  -0.61497
 Alpha  occ. eigenvalues --   -0.51193  -0.49439  -0.38122  -0.35948
 Alpha virt. eigenvalues --    0.04843   0.09385   0.11040   0.11640   0.14057
 Alpha virt. eigenvalues --    0.16319   0.17578   0.28853   0.31227   0.32398
 Alpha virt. eigenvalues --    0.34609   0.35070   0.38256   0.40344   0.42631

 Mulliken charges:
               1
     1  C    0.049361
     2  O   -0.151712
     3  H    0.052966
     4  H    0.063758
     5  H    0.087173
     6  H   -0.101547
 Sum of Mulliken charges =   0.00000

 Dipole moment (field-independent basis, Debye):
    X=             -0.7297    Y=             -0.9286    Z=             -0.1325  Tot=              1.1884
 Quadrupole moment (field-independent basis, Debye-Ang):
   XX=            -12.6144   YY=            -12.7961   ZZ=            -13.5024
   XY=             -1.4359   XZ=             -0.1805   YZ=              0.0852

 Normal termination of Gaussian 09 at Wed Aug 26 19:11:42 2020.
