 Gaussian 09, Revision D.01,
 Gaussian 09:  ES64L-G09RevD.01 24-Apr-2013

 --------------------
 #p B2PLYPD3/Def2QZVP
 --------------------

 --------
 methanol
 --------
 Symbolic Z-matrix:
 Charge =  0 Multiplicity = 1

                         Standard orientation:
 ---------------------------------------------------------------------
 Center     Atomic      Atomic             Coordinates (Angstroms)
 Number     Number       Type             X           Y           Z
 ---------------------------------------------------------------------
      1          6           0       -0.661479   -0.019300    0.006135
      2          8           0        0.750856    0.110023   -0.004622
      3          1           0       -1.076124   -0.474615    0.917109
      4          1           0       -1.004341   -0.627002   -0.887789
      5          1           0       -1.096453    1.011922   -0.080789
      6          1           0        1.138940   -0.674689    0.051639
 ---------------------------------------------------------------------

 SCF Done:  E(RB2PLYPD3) =  -115.544335527     A.U. after   10 cycles
 E2(B2PLYPD3) =    -0.1461127318D+00 E(B2PLYPD3) =    -0.11569044825860D+03

 The electronic state is 1-A.
 Alpha  occ. eigenvalues --  -19.71903 -10.66702  -1.18140  -0.79048  -0.59930
 Alpha  occ. eigenvalues --   -0.51451  -0.49912  -0.40925  -0.35559
 Alpha virt. eigenvalues --    0.05267   0.08448   0.12239   0.12280   0.14797
 Alpha virt. eigenvalues --    0.17236   0.18073   0.29038   0.32951   0.33690
 Alpha virt. eigenvalues --    0.36797   0.38599   0.39434   0.40392   0.43007

 Mulliken charges:
               1
     1  C    0.063888
     2  O   -0.417711
     3  H    0.051856
     4  H    0.044746
     5  H    0.071241
     6  H    0.185980
 Sum of Mulliken charges =   0.00000

 Dipole moment (field-independent basis, Debye):
    X=             -0.8412    Y=             -1.4141    Z=              0.1319  Tot=              1.6507
 Quadrupole moment (field-independent basis, Debye-Ang):
   XX=            -12.9503   YY=            -12.4166   ZZ=            -13.7761
   XY=             -2.1810   XZ=              0.0484   YZ=             -0.1019

 Normal termination of Gaussian 09 at Wed Aug 26 13:47:54 2020.
