 Gaussian 09, Revision D.01,
 Gaussian 09:  ES64L-G09RevD.01 24-Apr-2013

 --------------------
 #p B2PLYPD3/Def2QZVP
 --------------------

 --------
 methanol
 --------
 Symbolic Z-matrix:
 Charge =  0 Multiplicity = 1

                         Standard orientation:
 ---------------------------------------------------------------------
 Center     Atomic      Atomic             Coordinates (Angstroms)
 Number     Number       Type             X           Y           Z
 ---------------------------------------------------------------------
      1          6           0       -0.657182   -0.020368   -0.003690
      2          8           0        0.745958    0.085428   -0.002645
      3          1           0       -1.096158   -0.523625    0.952088
      4          1           0       -0.989084   -0.610478   -0.937810
      5          1           0       -1.102841    1.074178   -0.036857
      6          1           0        1.163511   -0.501293    0.065883
 ---------------------------------------------------------------------

 SCF Done:  E(RB2PLYPD3) =  -115.446497581     A.U. after   11 cycles
 E2(B2PLYPD3) =    -0.1442456944D+00 E(B2PLYPD3) =    -0.11559074327552D+03

 The electronic state is 1-A.
 Alpha  occ. eigenvalues --  -19.70050 -10.68688  -1.23087  -0.81324  -0.61625
 Alpha  occ. eigenvalues --   -0.51479  -0.50026  -0.39834  -0.35860
 Alpha virt. eigenvalues --    0.05361   0.08993   0.11882   0.11996   0.14543
 Alpha virt. eigenvalues --    0.16929   0.17886   0.28842   0.32573   0.33600
 Alpha virt. eigenvalues --    0.36141   0.38020   0.38909   0.40393   0.42239

 Mulliken charges:
               1
     1  C    0.051670
     2  O   -0.265767
     3  H    0.047234
     4  H    0.052452
     5  H    0.076476
     6  H    0.037936
 Sum of Mulliken charges =   0.00000

 Dipole moment (field-independent basis, Debye):
    X=             -0.7410    Y=             -1.1999    Z=              0.1332  Tot=              1.4166
 Quadrupole moment (field-independent basis, Debye-Ang):
   XX=            -12.7497   YY=            -12.7401   ZZ=            -13.6524
   XY=             -1.9784   XZ=              0.1165   YZ=             -0.0501

 Normal termination of Gaussian 09 at Wed Aug 26 11:00:37 2020.
