 Gaussian 09, Revision D.01,
 Gaussian 09:  ES64L-G09RevD.01 24-Apr-2013

 --------------------
 #p B2PLYPD3/Def2QZVP
 --------------------

 --------
 methanol
 --------
 Symbolic Z-matrix:
 Charge =  0 Multiplicity = 1

                         Standard orientation:
 ---------------------------------------------------------------------
 Center     Atomic      Atomic             Coordinates (Angstroms)
 Number     Number       Type             X           Y           Z
 ---------------------------------------------------------------------
      1          6           0       -0.656651   -0.033476   -0.010362
      2          8           0        0.736881    0.141961    0.005033
      3          1           0       -1.020591   -0.552953    0.857491
      4          1           0       -1.016350   -0.509074   -0.839685
      5          1           0       -1.100060    0.964465    0.023493
      6          1           0        1.181855   -0.837265   -0.019391
 ---------------------------------------------------------------------

 SCF Done:  E(RB2PLYPD3) =  -115.537225917     A.U. after   11 cycles
 E2(B2PLYPD3) =    -0.1489213116D+00 E(B2PLYPD3) =    -0.11568614722840D+03

 The electronic state is 1-A.
 Alpha  occ. eigenvalues --  -19.73466 -10.64332  -1.14685  -0.78521  -0.57723
 Alpha  occ. eigenvalues --   -0.52442  -0.49535  -0.40512  -0.35247
 Alpha virt. eigenvalues --    0.04038   0.07893   0.12509   0.12680   0.15030
 Alpha virt. eigenvalues --    0.17387   0.18289   0.29021   0.30861   0.33512
 Alpha virt. eigenvalues --    0.34678   0.38623   0.39779   0.42174   0.44536

 Mulliken charges:
               1
     1  C    0.076507
     2  O   -0.478706
     3  H    0.043519
     4  H    0.048991
     5  H    0.061589
     6  H    0.248100
 Sum of Mulliken charges =   0.00000

 Dipole moment (field-independent basis, Debye):
    X=             -0.8068    Y=             -1.6312    Z=             -0.0823  Tot=              1.8216
 Quadrupole moment (field-independent basis, Debye-Ang):
   XX=            -12.8779   YY=            -12.1061   ZZ=            -13.8600
   XY=             -2.3485   XZ=             -0.0048   YZ=              0.0789

 Normal termination of Gaussian 09 at Wed Aug 26 10:40:48 2020.
