 Gaussian 09, Revision D.01,
 Gaussian 09:  ES64L-G09RevD.01 24-Apr-2013

 --------------------
 #p B2PLYPD3/Def2QZVP
 --------------------

 --------
 methanol
 --------
 Symbolic Z-matrix:
 Charge =  0 Multiplicity = 1

                         Standard orientation:
 ---------------------------------------------------------------------
 Center     Atomic      Atomic             Coordinates (Angstroms)
 Number     Number       Type             X           Y           Z
 ---------------------------------------------------------------------
      1          6           0       -0.669680   -0.010614    0.009145
      2          8           0        0.747789    0.098761   -0.015393
      3          1           0       -1.015782   -0.410699    0.970202
      4          1           0       -1.037796   -0.692886   -0.856605
      5          1           0       -1.036472    1.014831   -0.127823
      6          1           0        1.125820   -0.637647    0.082500
 ---------------------------------------------------------------------

 SCF Done:  E(RB2PLYPD3) =  -115.531509115     A.U. after   10 cycles
 E2(B2PLYPD3) =    -0.1453737232D+00 E(B2PLYPD3) =    -0.11567688283773D+03

 The electronic state is 1-A.
 Alpha  occ. eigenvalues --  -19.71134 -10.66814  -1.19093  -0.79700  -0.60144
 Alpha  occ. eigenvalues --   -0.51393  -0.50285  -0.41150  -0.35512
 Alpha virt. eigenvalues --    0.05362   0.08750   0.12064   0.12286   0.14742
 Alpha virt. eigenvalues --    0.16949   0.17887   0.29031   0.32959   0.33196
 Alpha virt. eigenvalues --    0.37306   0.39261   0.39613   0.40312   0.43036

 Mulliken charges:
               1
     1  C    0.064600
     2  O   -0.390501
     3  H    0.053246
     4  H    0.042459
     5  H    0.078777
     6  H    0.151419
 Sum of Mulliken charges =   0.00000

 Dipole moment (field-independent basis, Debye):
    X=             -0.8695    Y=             -1.3253    Z=              0.2405  Tot=              1.6032
 Quadrupole moment (field-independent basis, Debye-Ang):
   XX=            -13.0872   YY=            -12.3707   ZZ=            -13.6561
   XY=             -2.1068   XZ=              0.2115   YZ=             -0.1708

 Normal termination of Gaussian 09 at Thu Aug 27 00:12:55 2020.
