 Gaussian 09, Revision D.01,
 Gaussian 09:  ES64L-G09RevD.01 24-Apr-2013

 --------------------
 #p B2PLYPD3/Def2QZVP
 --------------------

 --------
 methanol
 --------
 Symbolic Z-matrix:
 Charge =  0 Multiplicity = 1

                         Standard orientation:
 ---------------------------------------------------------------------
 Center     Atomic      Atomic             Coordinates (Angstroms)
 Number     Number       Type             X           Y           Z
 ---------------------------------------------------------------------
      1          6           0        0.666630    0.023109   -0.005624
      2          8           0       -0.740092   -0.145890    0.011138
      3          1           0        1.065024    0.544969    0.852024
      4          1           0        0.990423    0.520694   -0.845556
      5          1           0        1.067541   -0.923979   -0.024608
      6          1           0       -1.202027    0.886783   -0.037223
 ---------------------------------------------------------------------

 SCF Done:  E(RB2PLYPD3) =  -115.525128583     A.U. after   11 cycles
 E2(B2PLYPD3) =    -0.1500291058D+00 E(B2PLYPD3) =    -0.11567515768895D+03

 The electronic state is 1-A.
 Alpha  occ. eigenvalues --  -19.73744 -10.63808  -1.13502  -0.78767  -0.56855
 Alpha  occ. eigenvalues --   -0.51937  -0.49753  -0.40760  -0.35058
 Alpha virt. eigenvalues --    0.03396   0.07784   0.12665   0.12696   0.15001
 Alpha virt. eigenvalues --    0.17275   0.18275   0.28342   0.29780   0.33445
 Alpha virt. eigenvalues --    0.34276   0.39167   0.40085   0.41661   0.44147

 Mulliken charges:
               1
     1  C    0.080976
     2  O   -0.490723
     3  H    0.043880
     4  H    0.045240
     5  H    0.068331
     6  H    0.252296
 Sum of Mulliken charges =   0.00000

 Dipole moment (field-independent basis, Debye):
    X=              0.8650    Y=              1.6188    Z=             -0.1328  Tot=              1.8402
 Quadrupole moment (field-independent basis, Debye-Ang):
   XX=            -12.8476   YY=            -11.9552   ZZ=            -13.8940
   XY=             -2.4387   XZ=              0.0895   YZ=             -0.0718

 Normal termination of Gaussian 09 at Wed Aug 26 23:59:51 2020.
