 Gaussian 09, Revision D.01,
 Gaussian 09:  ES64L-G09RevD.01 24-Apr-2013

 --------------------
 #p B2PLYPD3/Def2QZVP
 --------------------

 --------
 methanol
 --------
 Symbolic Z-matrix:
 Charge =  0 Multiplicity = 1

                         Standard orientation:
 ---------------------------------------------------------------------
 Center     Atomic      Atomic             Coordinates (Angstroms)
 Number     Number       Type             X           Y           Z
 ---------------------------------------------------------------------
      1          6           0        0.665708   -0.022730   -0.000314
      2          8           0       -0.756016    0.098166    0.001843
      3          1           0        1.014244   -0.617127   -0.883811
      4          1           0        1.077054   -0.464563    0.948872
      5          1           0        1.062162    1.057769   -0.091991
      6          1           0       -1.099582   -0.625022    0.014075
 ---------------------------------------------------------------------

 SCF Done:  E(RB2PLYPD3) =  -115.515890459     A.U. after   10 cycles
 E2(B2PLYPD3) =    -0.1452018005D+00 E(B2PLYPD3) =    -0.11566109225919D+03

 The electronic state is 1-A.
 Alpha  occ. eigenvalues --  -19.71070 -10.67356  -1.20300  -0.79624  -0.60668
 Alpha  occ. eigenvalues --   -0.51650  -0.49500  -0.41141  -0.35979
 Alpha virt. eigenvalues --    0.05372   0.08779   0.11976   0.12134   0.14734
 Alpha virt. eigenvalues --    0.17029   0.18016   0.28897   0.32741   0.33300
 Alpha virt. eigenvalues --    0.37014   0.38706   0.39887   0.39969   0.42608

 Mulliken charges:
               1
     1  C    0.058057
     2  O   -0.354515
     3  H    0.051896
     4  H    0.054315
     5  H    0.070299
     6  H    0.119948
 Sum of Mulliken charges =   0.00000

 Dipole moment (field-independent basis, Debye):
    X=              0.9229    Y=             -1.3725    Z=              0.0130  Tot=              1.6540
 Quadrupole moment (field-independent basis, Debye-Ang):
   XX=            -13.1280   YY=            -12.4234   ZZ=            -13.6602
   XY=              1.9931   XZ=              0.0036   YZ=             -0.0131

 Normal termination of Gaussian 09 at Thu Aug 27 00:02:21 2020.
