 Gaussian 09, Revision D.01,
 Gaussian 09:  ES64L-G09RevD.01 24-Apr-2013

 --------------------
 #p B2PLYPD3/Def2QZVP
 --------------------

 --------
 methanol
 --------
 Symbolic Z-matrix:
 Charge =  0 Multiplicity = 1

                         Standard orientation:
 ---------------------------------------------------------------------
 Center     Atomic      Atomic             Coordinates (Angstroms)
 Number     Number       Type             X           Y           Z
 ---------------------------------------------------------------------
      1          6           0        0.666385   -0.022264   -0.003769
      2          8           0       -0.758072    0.095339   -0.007815
      3          1           0        0.965832   -0.757422   -0.811569
      4          1           0        1.084423   -0.284796    1.037731
      5          1           0        1.064419    1.013181   -0.246909
      6          1           0       -1.048411   -0.600089    0.105882
 ---------------------------------------------------------------------

 SCF Done:  E(RB2PLYPD3) =  -115.489309762     A.U. after   10 cycles
 E2(B2PLYPD3) =    -0.1448175836D+00 E(B2PLYPD3) =    -0.11563412734588D+03

 The electronic state is 1-A.
 Alpha  occ. eigenvalues --  -19.70622 -10.67650  -1.21861  -0.79802  -0.60629
 Alpha  occ. eigenvalues --   -0.51921  -0.49776  -0.41432  -0.36068
 Alpha virt. eigenvalues --    0.05376   0.08947   0.11813   0.12128   0.14372
 Alpha virt. eigenvalues --    0.17108   0.18029   0.28656   0.32309   0.33146
 Alpha virt. eigenvalues --    0.36699   0.38771   0.39399   0.40362   0.43180

 Mulliken charges:
               1
     1  C    0.055471
     2  O   -0.313491
     3  H    0.053258
     4  H    0.051964
     5  H    0.073026
     6  H    0.079773
 Sum of Mulliken charges =   0.00000

 Dipole moment (field-independent basis, Debye):
    X=              1.0073    Y=             -1.2935    Z=              0.1816  Tot=              1.6494
 Quadrupole moment (field-independent basis, Debye-Ang):
   XX=            -13.3701   YY=            -12.4533   ZZ=            -13.5144
   XY=              1.9792   XZ=             -0.2513   YZ=             -0.1002

 Normal termination of Gaussian 09 at Wed Aug 26 13:55:09 2020.
