 Gaussian 09, Revision D.01,
 Gaussian 09:  ES64L-G09RevD.01 24-Apr-2013

 --------------------
 #p B2PLYPD3/Def2QZVP
 --------------------

 --------
 methanol
 --------
 Symbolic Z-matrix:
 Charge =  0 Multiplicity = 1

                         Standard orientation:
 ---------------------------------------------------------------------
 Center     Atomic      Atomic             Coordinates (Angstroms)
 Number     Number       Type             X           Y           Z
 ---------------------------------------------------------------------
      1          6           0       -0.674989    0.031336    0.013673
      2          8           0        0.743138   -0.158941   -0.023824
      3          1           0       -1.055013    0.621067   -0.791431
      4          1           0       -0.944430    0.425636    0.819015
      5          1           0       -1.082072   -0.919307   -0.017408
      6          1           0        1.186346    0.956119    0.098379
 ---------------------------------------------------------------------

 SCF Done:  E(RB2PLYPD3) =  -115.491913992     A.U. after   11 cycles
 E2(B2PLYPD3) =    -0.1515572857D+00 E(B2PLYPD3) =    -0.11564347127741D+03

 The electronic state is 1-A.
 Alpha  occ. eigenvalues --  -19.74135 -10.62706  -1.12397  -0.79704  -0.56308
 Alpha  occ. eigenvalues --   -0.52833  -0.48844  -0.40754  -0.35246
 Alpha virt. eigenvalues --    0.02377   0.07711   0.12537   0.12799   0.14961
 Alpha virt. eigenvalues --    0.17320   0.18247   0.26320   0.29561   0.33434
 Alpha virt. eigenvalues --    0.33836   0.39343   0.39624   0.42119   0.44818

 Mulliken charges:
               1
     1  C    0.089169
     2  O   -0.497983
     3  H    0.044303
     4  H    0.052700
     5  H    0.063239
     6  H    0.248572
 Sum of Mulliken charges =   0.00000

 Dipole moment (field-independent basis, Debye):
    X=             -1.0134    Y=              1.6893    Z=              0.2962  Tot=              1.9921
 Quadrupole moment (field-independent basis, Debye-Ang):
   XX=            -12.9947   YY=            -11.7222   ZZ=            -13.8418
   XY=              2.3847   XZ=              0.1811   YZ=              0.1719

 Normal termination of Gaussian 09 at Wed Aug 26 14:29:32 2020.
