 Gaussian 09, Revision D.01,
 Gaussian 09:  ES64L-G09RevD.01 24-Apr-2013

 --------------------
 #p B2PLYPD3/Def2QZVP
 --------------------

 --------
 methanol
 --------
 Symbolic Z-matrix:
 Charge =  0 Multiplicity = 1

                         Standard orientation:
 ---------------------------------------------------------------------
 Center     Atomic      Atomic             Coordinates (Angstroms)
 Number     Number       Type             X           Y           Z
 ---------------------------------------------------------------------
      1          6           0       -0.668973    0.022343    0.009289
      2          8           0        0.740609   -0.148469   -0.009118
      3          1           0       -1.025437    0.571800   -0.840949
      4          1           0       -0.949037    0.532950    0.841302
      5          1           0       -1.121434   -0.920071   -0.003216
      6          1           0        1.184875    0.869015    0.020078
 ---------------------------------------------------------------------

 SCF Done:  E(RB2PLYPD3) =  -115.529180844     A.U. after   11 cycles
 E2(B2PLYPD3) =    -0.1495301457D+00 E(B2PLYPD3) =    -0.11567871098925D+03

 The electronic state is 1-A.
 Alpha  occ. eigenvalues --  -19.73452 -10.63831  -1.13615  -0.78829  -0.56954
 Alpha  occ. eigenvalues --   -0.52260  -0.49853  -0.40814  -0.34980
 Alpha virt. eigenvalues --    0.03641   0.07868   0.12638   0.12680   0.14864
 Alpha virt. eigenvalues --    0.17594   0.17977   0.28859   0.30027   0.33256
 Alpha virt. eigenvalues --    0.33949   0.39553   0.40212   0.41867   0.44078

 Mulliken charges:
               1
     1  C    0.087337
     2  O   -0.493647
     3  H    0.041081
     4  H    0.045770
     5  H    0.068424
     6  H    0.251036
 Sum of Mulliken charges =   0.00000

 Dipole moment (field-independent basis, Debye):
    X=             -0.9011    Y=              1.6394    Z=              0.0975  Tot=              1.8733
 Quadrupole moment (field-independent basis, Debye-Ang):
   XX=            -12.9013   YY=            -11.9423   ZZ=            -13.8764
   XY=              2.4681   XZ=              0.0649   YZ=              0.0761

 Normal termination of Gaussian 09 at Thu Aug 27 00:15:10 2020.
