 Gaussian 09, Revision D.01,
 Gaussian 09:  ES64L-G09RevD.01 24-Apr-2013

 --------------------
 #p B2PLYPD3/Def2QZVP
 --------------------

 --------
 methanol
 --------
 Symbolic Z-matrix:
 Charge =  0 Multiplicity = 1

                         Standard orientation:
 ---------------------------------------------------------------------
 Center     Atomic      Atomic             Coordinates (Angstroms)
 Number     Number       Type             X           Y           Z
 ---------------------------------------------------------------------
      1          6           0        0.663544    0.017486   -0.010455
      2          8           0       -0.747236   -0.142230    0.014453
      3          1           0        1.131112    0.572238    0.828425
      4          1           0        1.028696    0.532367   -0.819191
      5          1           0        1.076166   -0.951666   -0.018709
      6          1           0       -1.239354    0.879981   -0.043420
 ---------------------------------------------------------------------

 SCF Done:  E(RB2PLYPD3) =  -115.523231739     A.U. after   11 cycles
 E2(B2PLYPD3) =    -0.1504560323D+00 E(B2PLYPD3) =    -0.11567368777160D+03

 The electronic state is 1-A.
 Alpha  occ. eigenvalues --  -19.74100 -10.64471  -1.13408  -0.78584  -0.57159
 Alpha  occ. eigenvalues --   -0.50712  -0.49634  -0.40888  -0.34940
 Alpha virt. eigenvalues --    0.03301   0.07527   0.12448   0.12896   0.15204
 Alpha virt. eigenvalues --    0.17276   0.18286   0.28175   0.29752   0.33479
 Alpha virt. eigenvalues --    0.34180   0.38860   0.39110   0.40731   0.44387

 Mulliken charges:
               1
     1  C    0.077929
     2  O   -0.487455
     3  H    0.038467
     4  H    0.045935
     5  H    0.069762
     6  H    0.255362
 Sum of Mulliken charges =   0.00000

 Dipole moment (field-independent basis, Debye):
    X=              0.7907    Y=              1.6276    Z=             -0.1833  Tot=              1.8188
 Quadrupole moment (field-independent basis, Debye-Ang):
   XX=            -12.6089   YY=            -11.9745   ZZ=            -14.1457
   XY=             -2.4286   XZ=              0.0836   YZ=             -0.1182

 Normal termination of Gaussian 09 at Wed Aug 26 11:59:52 2020.
