 Gaussian 09, Revision D.01,
 Gaussian 09:  ES64L-G09RevD.01 24-Apr-2013

 --------------------
 #p B2PLYPD3/Def2QZVP
 --------------------

 --------
 methanol
 --------
 Symbolic Z-matrix:
 Charge =  0 Multiplicity = 1

                         Standard orientation:
 ---------------------------------------------------------------------
 Center     Atomic      Atomic             Coordinates (Angstroms)
 Number     Number       Type             X           Y           Z
 ---------------------------------------------------------------------
      1          6           0       -0.649479   -0.011212    0.015880
      2          8           0        0.745550    0.070700   -0.047478
      3          1           0       -0.930920   -0.153459    1.084821
      4          1           0       -1.087641   -0.896918   -0.703656
      5          1           0       -1.084856    1.016444   -0.325218
      6          1           0        1.035887   -0.464394    0.228595
 ---------------------------------------------------------------------

 SCF Done:  E(RB2PLYPD3) =  -115.370705618     A.U. after   11 cycles
 E2(B2PLYPD3) =    -0.1435536983D+00 E(B2PLYPD3) =    -0.11551425931608D+03

 The electronic state is 1-A.
 Alpha  occ. eigenvalues --  -19.69661 -10.68492  -1.26557  -0.81529  -0.62081
 Alpha  occ. eigenvalues --   -0.51857  -0.50710  -0.41017  -0.36054
 Alpha virt. eigenvalues --    0.05304   0.09333   0.11623   0.11984   0.14397
 Alpha virt. eigenvalues --    0.17026   0.17782   0.28323   0.32449   0.33454
 Alpha virt. eigenvalues --    0.36022   0.37183   0.39880   0.40946   0.43396

 Mulliken charges:
               1
     1  C    0.049635
     2  O   -0.214907
     3  H    0.052763
     4  H    0.040431
     5  H    0.075294
     6  H   -0.003215
 Sum of Mulliken charges =   0.00000

 Dipole moment (field-independent basis, Debye):
    X=             -0.8878    Y=             -1.0048    Z=              0.6631  Tot=              1.4959
 Quadrupole moment (field-independent basis, Debye-Ang):
   XX=            -13.3602   YY=            -12.7150   ZZ=            -13.3239
   XY=             -1.7260   XZ=              0.8315   YZ=             -0.3358

 Normal termination of Gaussian 09 at Wed Aug 26 16:12:38 2020.
