 Gaussian 09, Revision D.01,
 Gaussian 09:  ES64L-G09RevD.01 24-Apr-2013

 --------------------
 #p B2PLYPD3/Def2QZVP
 --------------------

 --------
 methanol
 --------
 Symbolic Z-matrix:
 Charge =  0 Multiplicity = 1

                         Standard orientation:
 ---------------------------------------------------------------------
 Center     Atomic      Atomic             Coordinates (Angstroms)
 Number     Number       Type             X           Y           Z
 ---------------------------------------------------------------------
      1          6           0        0.671548   -0.003630    0.001437
      2          8           0       -0.765084    0.093973   -0.011853
      3          1           0        1.108203   -0.665731   -0.840961
      4          1           0        1.047877   -0.461826    0.945414
      5          1           0        1.032831    1.055140   -0.073739
      6          1           0       -1.097531   -0.657588    0.055490
 ---------------------------------------------------------------------

 SCF Done:  E(RB2PLYPD3) =  -115.526125334     A.U. after   10 cycles
 E2(B2PLYPD3) =    -0.1457992774D+00 E(B2PLYPD3) =    -0.11567192461179D+03

 The electronic state is 1-A.
 Alpha  occ. eigenvalues --  -19.71453 -10.67384  -1.19234  -0.79347  -0.60374
 Alpha  occ. eigenvalues --   -0.50523  -0.49670  -0.41946  -0.35680
 Alpha virt. eigenvalues --    0.05309   0.08576   0.11947   0.12189   0.14980
 Alpha virt. eigenvalues --    0.16962   0.17861   0.29000   0.32288   0.33211
 Alpha virt. eigenvalues --    0.37432   0.38532   0.39186   0.39811   0.42179

 Mulliken charges:
               1
     1  C    0.062326
     2  O   -0.380278
     3  H    0.045222
     4  H    0.050770
     5  H    0.078480
     6  H    0.143480
 Sum of Mulliken charges =   0.00000

 Dipole moment (field-independent basis, Debye):
    X=              0.9756    Y=             -1.3634    Z=              0.1696  Tot=              1.6851
 Quadrupole moment (field-independent basis, Debye-Ang):
   XX=            -13.1568   YY=            -12.2230   ZZ=            -13.8629
   XY=              1.9792   XZ=             -0.1626   YZ=             -0.1047

 Normal termination of Gaussian 09 at Wed Aug 26 16:34:16 2020.
