 Gaussian 09, Revision D.01,
 Gaussian 09:  ES64L-G09RevD.01 24-Apr-2013

 --------------------
 #p B2PLYPD3/Def2QZVP
 --------------------

 --------
 methanol
 --------
 Symbolic Z-matrix:
 Charge =  0 Multiplicity = 1

                         Standard orientation:
 ---------------------------------------------------------------------
 Center     Atomic      Atomic             Coordinates (Angstroms)
 Number     Number       Type             X           Y           Z
 ---------------------------------------------------------------------
      1          6           0       -0.709377    0.057367   -0.006426
      2          8           0        0.737888   -0.204371   -0.004506
      3          1           0       -1.063136    0.431497   -0.758889
      4          1           0       -0.845110    0.587135    0.762575
      5          1           0       -1.098946   -0.827602    0.105545
      6          1           0        1.360352    1.099742   -0.034628
 ---------------------------------------------------------------------

 SCF Done:  E(RB2PLYPD3) =  -115.399283959     A.U. after   12 cycles
 E2(B2PLYPD3) =    -0.1568213411D+00 E(B2PLYPD3) =    -0.11555610529987D+03

 The electronic state is 1-A.
 Alpha  occ. eigenvalues --  -19.74968 -10.60627  -1.09786  -0.81552  -0.55426
 Alpha  occ. eigenvalues --   -0.54901  -0.47277  -0.39013  -0.35371
 Alpha virt. eigenvalues --   -0.01796   0.07473   0.12475   0.13045   0.14414
 Alpha virt. eigenvalues --    0.17174   0.18213   0.21988   0.29140   0.31838
 Alpha virt. eigenvalues --    0.33970   0.39292   0.39782   0.44139   0.45785

 Mulliken charges:
               1
     1  C    0.097654
     2  O   -0.501277
     3  H    0.059442
     4  H    0.058566
     5  H    0.062486
     6  H    0.223130
 Sum of Mulliken charges =   0.00000

 Dipole moment (field-independent basis, Debye):
    X=             -1.1663    Y=              1.7336    Z=             -0.0313  Tot=              2.0897
 Quadrupole moment (field-independent basis, Debye-Ang):
   XX=            -12.4797   YY=            -11.5554   ZZ=            -13.8223
   XY=              2.6510   XZ=              0.1241   YZ=             -0.0440

 Normal termination of Gaussian 09 at Wed Aug 26 22:11:17 2020.
