 Gaussian 09, Revision D.01,
 Gaussian 09:  ES64L-G09RevD.01 24-Apr-2013

 --------------------
 #p B2PLYPD3/Def2QZVP
 --------------------

 --------
 methanol
 --------
 Symbolic Z-matrix:
 Charge =  0 Multiplicity = 1

                         Standard orientation:
 ---------------------------------------------------------------------
 Center     Atomic      Atomic             Coordinates (Angstroms)
 Number     Number       Type             X           Y           Z
 ---------------------------------------------------------------------
      1          6           0       -0.636708   -0.041092   -0.018850
      2          8           0        0.737432    0.106816   -0.016739
      3          1           0       -1.056649   -0.262106    1.037346
      4          1           0       -0.891725   -0.859165   -0.709382
      5          1           0       -1.256404    1.010920   -0.244082
      6          1           0        1.125571   -0.497621    0.163130
 ---------------------------------------------------------------------

 SCF Done:  E(RB2PLYPD3) =  -115.458242981     A.U. after   11 cycles
 E2(B2PLYPD3) =    -0.1443428959D+00 E(B2PLYPD3) =    -0.11560258587645D+03

 The electronic state is 1-A.
 Alpha  occ. eigenvalues --  -19.70549 -10.68283  -1.23657  -0.80829  -0.62253
 Alpha  occ. eigenvalues --   -0.52976  -0.49795  -0.39530  -0.35659
 Alpha virt. eigenvalues --    0.05278   0.08828   0.11896   0.12070   0.14380
 Alpha virt. eigenvalues --    0.17193   0.18290   0.28598   0.32233   0.33948
 Alpha virt. eigenvalues --    0.34498   0.38704   0.39013   0.41272   0.43444

 Mulliken charges:
               1
     1  C    0.055586
     2  O   -0.272884
     3  H    0.037914
     4  H    0.054727
     5  H    0.063497
     6  H    0.061161
 Sum of Mulliken charges =   0.00000

 Dipole moment (field-independent basis, Debye):
    X=             -0.6903    Y=             -1.2876    Z=              0.3377  Tot=              1.4995
 Quadrupole moment (field-independent basis, Debye-Ang):
   XX=            -12.8407   YY=            -12.7678   ZZ=            -13.7602
   XY=             -2.0521   XZ=              0.4514   YZ=             -0.0073

 Normal termination of Gaussian 09 at Wed Aug 26 19:38:01 2020.
