 Gaussian 09, Revision D.01,
 Gaussian 09:  ES64L-G09RevD.01 24-Apr-2013

 --------------------
 #p B2PLYPD3/Def2QZVP
 --------------------

 --------
 methanol
 --------
 Symbolic Z-matrix:
 Charge =  0 Multiplicity = 1

                         Standard orientation:
 ---------------------------------------------------------------------
 Center     Atomic      Atomic             Coordinates (Angstroms)
 Number     Number       Type             X           Y           Z
 ---------------------------------------------------------------------
      1          6           0       -0.664280   -0.040445   -0.011643
      2          8           0        0.735348    0.147725   -0.005496
      3          1           0       -0.942776   -0.488754    0.882239
      4          1           0       -1.002662   -0.602576   -0.774275
      5          1           0       -1.135738    0.980865   -0.014828
      6          1           0        1.184073   -0.828661    0.020694
 ---------------------------------------------------------------------

 SCF Done:  E(RB2PLYPD3) =  -115.532640089     A.U. after   11 cycles
 E2(B2PLYPD3) =    -0.1488706672D+00 E(B2PLYPD3) =    -0.11568151075644D+03

 The electronic state is 1-A.
 Alpha  occ. eigenvalues --  -19.73196 -10.64150  -1.14360  -0.78687  -0.57639
 Alpha  occ. eigenvalues --   -0.53058  -0.49063  -0.40512  -0.35167
 Alpha virt. eigenvalues --    0.04055   0.07931   0.12315   0.12760   0.14927
 Alpha virt. eigenvalues --    0.17410   0.18091   0.29172   0.30879   0.33301
 Alpha virt. eigenvalues --    0.34357   0.38019   0.40107   0.42594   0.44806

 Mulliken charges:
               1
     1  C    0.084927
     2  O   -0.485460
     3  H    0.046455
     4  H    0.048135
     5  H    0.060045
     6  H    0.245898
 Sum of Mulliken charges =   0.00000

 Dipole moment (field-independent basis, Debye):
    X=             -0.8423    Y=             -1.6869    Z=              0.0390  Tot=              1.8859
 Quadrupole moment (field-independent basis, Debye-Ang):
   XX=            -12.9185   YY=            -12.0330   ZZ=            -13.8426
   XY=             -2.3385   XZ=              0.1224   YZ=              0.0492

 Normal termination of Gaussian 09 at Wed Aug 26 14:38:14 2020.
