 Gaussian 09, Revision D.01,
 Gaussian 09:  ES64L-G09RevD.01 24-Apr-2013

 --------------------
 #p B2PLYPD3/Def2QZVP
 --------------------

 --------
 methanol
 --------
 Symbolic Z-matrix:
 Charge =  0 Multiplicity = 1

                         Standard orientation:
 ---------------------------------------------------------------------
 Center     Atomic      Atomic             Coordinates (Angstroms)
 Number     Number       Type             X           Y           Z
 ---------------------------------------------------------------------
      1          6           0        0.656553    0.024938   -0.011615
      2          8           0       -0.726883   -0.161112    0.004654
      3          1           0        1.052571    0.507453    0.831337
      4          1           0        0.912884    0.597769   -0.794648
      5          1           0        1.110371   -0.897695   -0.035439
      6          1           0       -1.200081    0.931742    0.031205
 ---------------------------------------------------------------------

 SCF Done:  E(RB2PLYPD3) =  -115.507016606     A.U. after   11 cycles
 E2(B2PLYPD3) =    -0.1506798204D+00 E(B2PLYPD3) =    -0.11565769642642D+03

 The electronic state is 1-A.
 Alpha  occ. eigenvalues --  -19.73972 -10.62914  -1.13684  -0.78834  -0.56839
 Alpha  occ. eigenvalues --   -0.52667  -0.49849  -0.40468  -0.34735
 Alpha virt. eigenvalues --    0.02439   0.07790   0.12665   0.12906   0.15024
 Alpha virt. eigenvalues --    0.17579   0.18094   0.26640   0.29654   0.33060
 Alpha virt. eigenvalues --    0.35117   0.39549   0.40055   0.42608   0.44318

 Mulliken charges:
               1
     1  C    0.092345
     2  O   -0.488121
     3  H    0.036351
     4  H    0.040626
     5  H    0.065192
     6  H    0.253607
 Sum of Mulliken charges =   0.00000

 Dipole moment (field-independent basis, Debye):
    X=              0.8409    Y=              1.6913    Z=              0.0055  Tot=              1.8888
 Quadrupole moment (field-independent basis, Debye-Ang):
   XX=            -12.8799   YY=            -11.7805   ZZ=            -13.9621
   XY=             -2.5097   XZ=              0.0134   YZ=             -0.0271

 Normal termination of Gaussian 09 at Wed Aug 26 12:10:47 2020.
