 Gaussian 09, Revision D.01,
 Gaussian 09:  ES64L-G09RevD.01 24-Apr-2013

 --------------------
 #p B2PLYPD3/Def2QZVP
 --------------------

 --------
 methanol
 --------
 Symbolic Z-matrix:
 Charge =  0 Multiplicity = 1

                         Standard orientation:
 ---------------------------------------------------------------------
 Center     Atomic      Atomic             Coordinates (Angstroms)
 Number     Number       Type             X           Y           Z
 ---------------------------------------------------------------------
      1          6           0        0.660114   -0.014175    0.015502
      2          8           0       -0.757286    0.100648   -0.024049
      3          1           0        1.067704   -0.804693   -0.761266
      4          1           0        0.985441   -0.281233    1.012751
      5          1           0        1.139926    0.985475   -0.250030
      6          1           0       -1.095472   -0.619683    0.097929
 ---------------------------------------------------------------------

 SCF Done:  E(RB2PLYPD3) =  -115.516077567     A.U. after   10 cycles
 E2(B2PLYPD3) =    -0.1452247687D+00 E(B2PLYPD3) =    -0.11566130233607D+03

 The electronic state is 1-A.
 Alpha  occ. eigenvalues --  -19.71236 -10.67386  -1.20375  -0.79630  -0.60636
 Alpha  occ. eigenvalues --   -0.51648  -0.50075  -0.40985  -0.35875
 Alpha virt. eigenvalues --    0.05355   0.08725   0.11899   0.12323   0.14564
 Alpha virt. eigenvalues --    0.17406   0.17944   0.28882   0.32665   0.33116
 Alpha virt. eigenvalues --    0.36489   0.38305   0.39226   0.40971   0.43393

 Mulliken charges:
               1
     1  C    0.062485
     2  O   -0.358421
     3  H    0.038175
     4  H    0.058264
     5  H    0.072426
     6  H    0.127072
 Sum of Mulliken charges =   0.00000

 Dipole moment (field-independent basis, Debye):
    X=              0.9282    Y=             -1.3092    Z=              0.3110  Tot=              1.6347
 Quadrupole moment (field-independent basis, Debye-Ang):
   XX=            -13.0813   YY=            -12.5311   ZZ=            -13.6517
   XY=              2.1028   XZ=             -0.3383   YZ=             -0.2036

 Normal termination of Gaussian 09 at Wed Aug 26 15:08:26 2020.
