 Gaussian 09, Revision D.01,
 Gaussian 09:  ES64L-G09RevD.01 24-Apr-2013

 --------------------
 #p B2PLYPD3/Def2QZVP
 --------------------

 --------
 methanol
 --------
 Symbolic Z-matrix:
 Charge =  0 Multiplicity = 1

                         Standard orientation:
 ---------------------------------------------------------------------
 Center     Atomic      Atomic             Coordinates (Angstroms)
 Number     Number       Type             X           Y           Z
 ---------------------------------------------------------------------
      1          6           0        0.658535   -0.001521   -0.008398
      2          8           0       -0.755863    0.065973   -0.013096
      3          1           0        1.087573   -0.809593   -0.777425
      4          1           0        1.109558   -0.227540    1.108398
      5          1           0        0.977755    1.019685   -0.301454
      6          1           0       -1.079189   -0.501212    0.125634
 ---------------------------------------------------------------------

 SCF Done:  E(RB2PLYPD3) =  -115.366292152     A.U. after   11 cycles
 E2(B2PLYPD3) =    -0.1439158175D+00 E(B2PLYPD3) =    -0.11551020796925D+03

 The electronic state is 1-A.
 Alpha  occ. eigenvalues --  -19.69765 -10.68998  -1.25871  -0.81931  -0.61564
 Alpha  occ. eigenvalues --   -0.51019  -0.50495  -0.41284  -0.35940
 Alpha virt. eigenvalues --    0.05315   0.09071   0.11518   0.12088   0.14575
 Alpha virt. eigenvalues --    0.16662   0.18018   0.28487   0.32585   0.32869
 Alpha virt. eigenvalues --    0.34949   0.37730   0.39621   0.40952   0.42282

 Mulliken charges:
               1
     1  C    0.041832
     2  O   -0.212660
     3  H    0.047184
     4  H    0.041319
     5  H    0.090243
     6  H   -0.007917
 Sum of Mulliken charges =   0.00000

 Dipole moment (field-independent basis, Debye):
    X=              0.8732    Y=             -1.0732    Z=              0.2114  Tot=              1.3996
 Quadrupole moment (field-independent basis, Debye-Ang):
   XX=            -13.1700   YY=            -12.5835   ZZ=            -13.5707
   XY=              1.7959   XZ=             -0.4859   YZ=             -0.1971

 Normal termination of Gaussian 09 at Wed Aug 26 14:08:24 2020.
