 Gaussian 09, Revision D.01,
 Gaussian 09:  ES64L-G09RevD.01 24-Apr-2013

 --------------------
 #p B2PLYPD3/Def2QZVP
 --------------------

 --------
 methanol
 --------
 Symbolic Z-matrix:
 Charge =  0 Multiplicity = 1

                         Standard orientation:
 ---------------------------------------------------------------------
 Center     Atomic      Atomic             Coordinates (Angstroms)
 Number     Number       Type             X           Y           Z
 ---------------------------------------------------------------------
      1          6           0       -0.641718   -0.028430    0.007105
      2          8           0        0.737395   -0.060944   -0.043624
      3          1           0       -1.027322    1.168728   -0.364444
      4          1           0       -1.005866   -0.168690    1.091716
      5          1           0       -1.121410   -0.744942   -0.661759
      6          1           0        1.105745    0.403030    0.240848
 ---------------------------------------------------------------------

 SCF Done:  E(RB2PLYPD3) =  -115.338551044     A.U. after   11 cycles
 E2(B2PLYPD3) =    -0.1435195088D+00 E(B2PLYPD3) =    -0.11548207055253D+03

 The electronic state is 1-A.
 Alpha  occ. eigenvalues --  -19.69692 -10.69286  -1.26907  -0.83384  -0.62459
 Alpha  occ. eigenvalues --   -0.52983  -0.50788  -0.40129  -0.35094
 Alpha virt. eigenvalues --    0.05156   0.09317   0.11152   0.12352   0.14348
 Alpha virt. eigenvalues --    0.17279   0.17439   0.28422   0.30950   0.33303
 Alpha virt. eigenvalues --    0.35709   0.38244   0.39052   0.41829   0.42688

 Mulliken charges:
               1
     1  C    0.051593
     2  O   -0.192190
     3  H    0.006344
     4  H    0.050062
     5  H    0.098770
     6  H   -0.014579
 Sum of Mulliken charges =   0.00000

 Dipole moment (field-independent basis, Debye):
    X=             -0.6892    Y=              0.7042    Z=              0.6279  Tot=              1.1684
 Quadrupole moment (field-independent basis, Debye-Ang):
   XX=            -13.0069   YY=            -13.1580   ZZ=            -13.3159
   XY=              1.9286   XZ=              1.0236   YZ=              0.5176

 Normal termination of Gaussian 09 at Wed Aug 26 22:46:13 2020.
