 Gaussian 09, Revision D.01,
 Gaussian 09:  ES64L-G09RevD.01 24-Apr-2013

 --------------------
 #p B2PLYPD3/Def2QZVP
 --------------------

 --------
 methanol
 --------
 Symbolic Z-matrix:
 Charge =  0 Multiplicity = 1

                         Standard orientation:
 ---------------------------------------------------------------------
 Center     Atomic      Atomic             Coordinates (Angstroms)
 Number     Number       Type             X           Y           Z
 ---------------------------------------------------------------------
      1          6           0       -0.663568    0.000899    0.029067
      2          8           0        0.755319   -0.073315   -0.040987
      3          1           0       -1.005740    1.049053   -0.560226
      4          1           0       -1.025776   -0.040954    1.073264
      5          1           0       -1.122163   -0.869707   -0.584139
      6          1           0        1.092534    0.442733    0.224594
 ---------------------------------------------------------------------

 SCF Done:  E(RB2PLYPD3) =  -115.371680770     A.U. after   11 cycles
 E2(B2PLYPD3) =    -0.1438904805D+00 E(B2PLYPD3) =    -0.11551557125083D+03

 The electronic state is 1-A.
 Alpha  occ. eigenvalues --  -19.69511 -10.68990  -1.25362  -0.81664  -0.61761
 Alpha  occ. eigenvalues --   -0.51636  -0.50376  -0.40483  -0.36055
 Alpha virt. eigenvalues --    0.05254   0.09252   0.11372   0.12064   0.14157
 Alpha virt. eigenvalues --    0.17095   0.17837   0.28455   0.31867   0.32800
 Alpha virt. eigenvalues --    0.35342   0.37381   0.40105   0.40509   0.42930

 Mulliken charges:
               1
     1  C    0.052974
     2  O   -0.227818
     3  H    0.032629
     4  H    0.065744
     5  H    0.081287
     6  H   -0.004816
 Sum of Mulliken charges =   0.00000

 Dipole moment (field-independent basis, Debye):
    X=             -0.9287    Y=              0.9435    Z=              0.6355  Tot=              1.4685
 Quadrupole moment (field-independent basis, Debye-Ang):
   XX=            -13.0858   YY=            -12.9607   ZZ=            -13.2284
   XY=              1.8904   XZ=              0.7945   YZ=              0.3682

 Normal termination of Gaussian 09 at Wed Aug 26 12:31:33 2020.
