 Gaussian 09, Revision D.01,
 Gaussian 09:  ES64L-G09RevD.01 24-Apr-2013

 --------------------
 #p B2PLYPD3/Def2QZVP
 --------------------

 --------
 methanol
 --------
 Symbolic Z-matrix:
 Charge =  0 Multiplicity = 1

                         Standard orientation:
 ---------------------------------------------------------------------
 Center     Atomic      Atomic             Coordinates (Angstroms)
 Number     Number       Type             X           Y           Z
 ---------------------------------------------------------------------
      1          6           0        0.648862    0.022072   -0.037522
      2          8           0       -0.712882   -0.185150    0.029961
      3          1           0        1.069052    0.655402    0.754164
      4          1           0        0.856946    0.501314   -0.700252
      5          1           0        1.117942   -0.865266    0.011177
      6          1           0       -1.234054    1.057320   -0.079650
 ---------------------------------------------------------------------

 SCF Done:  E(RB2PLYPD3) =  -115.408217660     A.U. after   12 cycles
 E2(B2PLYPD3) =    -0.1537307232D+00 E(B2PLYPD3) =    -0.11556194838356D+03

 The electronic state is 1-A.
 Alpha  occ. eigenvalues --  -19.74884 -10.61193  -1.13539  -0.80628  -0.58133
 Alpha  occ. eigenvalues --   -0.51760  -0.49932  -0.40163  -0.34279
 Alpha virt. eigenvalues --   -0.00608   0.07570   0.12472   0.13324   0.15203
 Alpha virt. eigenvalues --    0.17868   0.17893   0.22930   0.29892   0.32560
 Alpha virt. eigenvalues --    0.35827   0.38854   0.39653   0.41374   0.46358

 Mulliken charges:
               1
     1  C    0.036626
     2  O   -0.476263
     3  H    0.025584
     4  H    0.104538
     5  H    0.067052
     6  H    0.242463
 Sum of Mulliken charges =   0.00000

 Dipole moment (field-independent basis, Debye):
    X=              0.8474    Y=              1.7452    Z=             -0.3514  Tot=              1.9716
 Quadrupole moment (field-independent basis, Debye-Ang):
   XX=            -12.8764   YY=            -11.3680   ZZ=            -14.1318
   XY=             -2.5665   XZ=              0.0921   YZ=             -0.3165

 Normal termination of Gaussian 09 at Wed Aug 26 19:03:19 2020.
