 Gaussian 09, Revision D.01,
 Gaussian 09:  ES64L-G09RevD.01 24-Apr-2013

 --------------------
 #p B2PLYPD3/Def2QZVP
 --------------------

 --------
 methanol
 --------
 Symbolic Z-matrix:
 Charge =  0 Multiplicity = 1

                         Standard orientation:
 ---------------------------------------------------------------------
 Center     Atomic      Atomic             Coordinates (Angstroms)
 Number     Number       Type             X           Y           Z
 ---------------------------------------------------------------------
      1          6           0        0.660665   -0.021890    0.004625
      2          8           0       -0.742222    0.133326   -0.012195
      3          1           0        1.052549   -0.600547   -0.842488
      4          1           0        1.000328   -0.479899    0.885911
      5          1           0        1.095164    0.952257   -0.026085
      6          1           0       -1.174257   -0.807077    0.052474
 ---------------------------------------------------------------------

 SCF Done:  E(RB2PLYPD3) =  -115.545343655     A.U. after   10 cycles
 E2(B2PLYPD3) =    -0.1483304461D+00 E(B2PLYPD3) =    -0.11569367410122D+03

 The electronic state is 1-A.
 Alpha  occ. eigenvalues --  -19.73171 -10.64765  -1.14980  -0.78600  -0.57961
 Alpha  occ. eigenvalues --   -0.51828  -0.50003  -0.40828  -0.35181
 Alpha virt. eigenvalues --    0.04415   0.07973   0.12526   0.12627   0.14970
 Alpha virt. eigenvalues --    0.17376   0.18205   0.29160   0.32175   0.33385
 Alpha virt. eigenvalues --    0.34251   0.39188   0.39841   0.41292   0.44184

 Mulliken charges:
               1
     1  C    0.074521
     2  O   -0.476368
     3  H    0.042826
     4  H    0.046918
     5  H    0.068278
     6  H    0.243825
 Sum of Mulliken charges =   0.00000

 Dipole moment (field-independent basis, Debye):
    X=              0.8266    Y=             -1.5598    Z=              0.1590  Tot=              1.7725
 Quadrupole moment (field-independent basis, Debye-Ang):
   XX=            -12.8735   YY=            -12.1489   ZZ=            -13.8616
   XY=              2.3665   XZ=             -0.1287   YZ=             -0.0889

 Normal termination of Gaussian 09 at Thu Aug 27 00:10:44 2020.
