 Gaussian 09, Revision D.01,
 Gaussian 09:  ES64L-G09RevD.01 24-Apr-2013

 --------------------
 #p B2PLYPD3/Def2QZVP
 --------------------

 --------
 methanol
 --------
 Symbolic Z-matrix:
 Charge =  0 Multiplicity = 1

                         Standard orientation:
 ---------------------------------------------------------------------
 Center     Atomic      Atomic             Coordinates (Angstroms)
 Number     Number       Type             X           Y           Z
 ---------------------------------------------------------------------
      1          6           0        0.669289   -0.028534    0.030723
      2          8           0       -0.778283   -0.039348   -0.066383
      3          1           0        0.996391   -0.233117    1.058264
      4          1           0        1.206387    1.149238   -0.373364
      5          1           0        1.119313   -0.790127   -0.679831
      6          1           0       -1.111561    0.359994    0.341658
 ---------------------------------------------------------------------

 SCF Done:  E(RB2PLYPD3) =  -115.338777375     A.U. after   11 cycles
 E2(B2PLYPD3) =    -0.1447612132D+00 E(B2PLYPD3) =    -0.11548353858792D+03

 The electronic state is 1-A.
 Alpha  occ. eigenvalues --  -19.69935 -10.70018  -1.25512  -0.81612  -0.62031
 Alpha  occ. eigenvalues --   -0.51343  -0.49160  -0.41298  -0.35745
 Alpha virt. eigenvalues --    0.04973   0.08754   0.10874   0.12009   0.14308
 Alpha virt. eigenvalues --    0.17122   0.17975   0.28137   0.30441   0.31027
 Alpha virt. eigenvalues --    0.34408   0.37223   0.39981   0.40484   0.42456

 Mulliken charges:
               1
     1  C    0.050937
     2  O   -0.224229
     3  H    0.068951
     4  H    0.022045
     5  H    0.092125
     6  H   -0.009828
 Sum of Mulliken charges =   0.00000

 Dipole moment (field-independent basis, Debye):
    X=              0.9715    Y=              0.5140    Z=              0.9782  Tot=              1.4713
 Quadrupole moment (field-independent basis, Debye-Ang):
   XX=            -12.9907   YY=            -13.3539   ZZ=            -13.0810
   XY=             -1.6146   XZ=             -1.3226   YZ=              0.4928

 Normal termination of Gaussian 09 at Wed Aug 26 23:46:12 2020.
