 Gaussian 09, Revision D.01,
 Gaussian 09:  ES64L-G09RevD.01 24-Apr-2013

 --------------------
 #p B2PLYPD3/Def2QZVP
 --------------------

 --------
 methanol
 --------
 Symbolic Z-matrix:
 Charge =  0 Multiplicity = 1

                         Standard orientation:
 ---------------------------------------------------------------------
 Center     Atomic      Atomic             Coordinates (Angstroms)
 Number     Number       Type             X           Y           Z
 ---------------------------------------------------------------------
      1          6           0        0.657953   -0.020228    0.001108
      2          8           0       -0.749420    0.125829   -0.006498
      3          1           0        0.995372   -0.642699   -0.843450
      4          1           0        1.063470   -0.415154    0.925528
      5          1           0        1.098433    0.954223   -0.103632
      6          1           0       -1.109629   -0.781636    0.066890
 ---------------------------------------------------------------------

 SCF Done:  E(RB2PLYPD3) =  -115.551383583     A.U. after   10 cycles
 E2(B2PLYPD3) =    -0.1476025977D+00 E(B2PLYPD3) =    -0.11569898618059D+03

 The electronic state is 1-A.
 Alpha  occ. eigenvalues --  -19.72910 -10.65390  -1.16138  -0.78584  -0.58466
 Alpha  occ. eigenvalues --   -0.51936  -0.49992  -0.41143  -0.35421
 Alpha virt. eigenvalues --    0.04814   0.08173   0.12324   0.12582   0.14789
 Alpha virt. eigenvalues --    0.17481   0.18253   0.29042   0.33160   0.33370
 Alpha virt. eigenvalues --    0.34726   0.38836   0.40046   0.41119   0.44111

 Mulliken charges:
               1
     1  C    0.068531
     2  O   -0.457748
     3  H    0.043878
     4  H    0.047783
     5  H    0.067567
     6  H    0.229989
 Sum of Mulliken charges =   0.00000

 Dipole moment (field-independent basis, Debye):
    X=              0.9084    Y=             -1.5080    Z=              0.1348  Tot=              1.7656
 Quadrupole moment (field-independent basis, Debye-Ang):
   XX=            -13.1266   YY=            -12.2106   ZZ=            -13.7847
   XY=              2.2750   XZ=             -0.1042   YZ=             -0.0866

 Normal termination of Gaussian 09 at Thu Aug 27 00:03:56 2020.
