 Gaussian 09, Revision D.01,
 Gaussian 09:  ES64L-G09RevD.01 24-Apr-2013

 --------------------
 #p B2PLYPD3/Def2QZVP
 --------------------

 --------
 methanol
 --------
 Symbolic Z-matrix:
 Charge =  0 Multiplicity = 1

                         Standard orientation:
 ---------------------------------------------------------------------
 Center     Atomic      Atomic             Coordinates (Angstroms)
 Number     Number       Type             X           Y           Z
 ---------------------------------------------------------------------
      1          6           0        0.666464   -0.009763    0.011700
      2          8           0       -0.751710    0.069110   -0.015077
      3          1           0        1.113019   -0.717274   -0.846486
      4          1           0        0.993696   -0.393482    1.014538
      5          1           0        0.990144    1.115272   -0.159607
      6          1           0       -1.081967   -0.498817    0.041967
 ---------------------------------------------------------------------

 SCF Done:  E(RB2PLYPD3) =  -115.353940088     A.U. after   11 cycles
 E2(B2PLYPD3) =    -0.1436665068D+00 E(B2PLYPD3) =    -0.11549760659483D+03

 The electronic state is 1-A.
 Alpha  occ. eigenvalues --  -19.69235 -10.68775  -1.25856  -0.81914  -0.61897
 Alpha  occ. eigenvalues --   -0.51419  -0.49786  -0.40959  -0.36179
 Alpha virt. eigenvalues --    0.05297   0.09287   0.11566   0.11906   0.14684
 Alpha virt. eigenvalues --    0.16574   0.17699   0.28712   0.32343   0.32952
 Alpha virt. eigenvalues --    0.36172   0.37294   0.39611   0.40973   0.42111

 Mulliken charges:
               1
     1  C    0.047851
     2  O   -0.213312
     3  H    0.044632
     4  H    0.059095
     5  H    0.080806
     6  H   -0.019072
 Sum of Mulliken charges =   0.00000

 Dipole moment (field-independent basis, Debye):
    X=              0.9079    Y=             -1.1750    Z=              0.1920  Tot=              1.4973
 Quadrupole moment (field-independent basis, Debye-Ang):
   XX=            -13.2038   YY=            -12.4402   ZZ=            -13.5425
   XY=              1.7355   XZ=             -0.1964   YZ=             -0.1374

 Normal termination of Gaussian 09 at Wed Aug 26 14:42:50 2020.
