 Gaussian 09, Revision D.01,
 Gaussian 09:  ES64L-G09RevD.01 24-Apr-2013

 --------------------
 #p B2PLYPD3/Def2QZVP
 --------------------

 --------
 methanol
 --------
 Symbolic Z-matrix:
 Charge =  0 Multiplicity = 1

                         Standard orientation:
 ---------------------------------------------------------------------
 Center     Atomic      Atomic             Coordinates (Angstroms)
 Number     Number       Type             X           Y           Z
 ---------------------------------------------------------------------
      1          6           0        0.654723    0.016368   -0.000214
      2          8           0       -0.740737   -0.139242   -0.006158
      3          1           0        1.056922    0.462603    0.880691
      4          1           0        0.983275    0.611898   -0.847968
      5          1           0        1.095185   -0.916658   -0.050338
      6          1           0       -1.137820    0.857888    0.068165
 ---------------------------------------------------------------------

 SCF Done:  E(RB2PLYPD3) =  -115.537632760     A.U. after   11 cycles
 E2(B2PLYPD3) =    -0.1489720575D+00 E(B2PLYPD3) =    -0.11568660481725D+03

 The electronic state is 1-A.
 Alpha  occ. eigenvalues --  -19.73558 -10.64325  -1.14835  -0.78559  -0.57502
 Alpha  occ. eigenvalues --   -0.52011  -0.50230  -0.40975  -0.35041
 Alpha virt. eigenvalues --    0.03968   0.07947   0.12518   0.12735   0.14919
 Alpha virt. eigenvalues --    0.17563   0.18245   0.29014   0.30740   0.33202
 Alpha virt. eigenvalues --    0.34665   0.39172   0.40324   0.41591   0.43812

 Mulliken charges:
               1
     1  C    0.075885
     2  O   -0.475401
     3  H    0.041675
     4  H    0.040393
     5  H    0.067769
     6  H    0.249679
 Sum of Mulliken charges =   0.00000

 Dipole moment (field-independent basis, Debye):
    X=              0.8692    Y=              1.5737    Z=              0.1391  Tot=              1.8032
 Quadrupole moment (field-independent basis, Debye-Ang):
   XX=            -13.0590   YY=            -12.0210   ZZ=            -13.8777
   XY=             -2.4000   XZ=             -0.0744   YZ=              0.0861

 Normal termination of Gaussian 09 at Wed Aug 26 14:43:25 2020.
