 Gaussian 09, Revision D.01,
 Gaussian 09:  ES64L-G09RevD.01 24-Apr-2013

 --------------------
 #p B2PLYPD3/Def2QZVP
 --------------------

 --------
 methanol
 --------
 Symbolic Z-matrix:
 Charge =  0 Multiplicity = 1

                         Standard orientation:
 ---------------------------------------------------------------------
 Center     Atomic      Atomic             Coordinates (Angstroms)
 Number     Number       Type             X           Y           Z
 ---------------------------------------------------------------------
      1          6           0       -0.667993    0.013992    0.022036
      2          8           0        0.763903   -0.062094   -0.028375
      3          1           0       -0.884174    1.223716   -0.251593
      4          1           0       -1.114072   -0.433450    0.978659
      5          1           0       -1.017985   -0.714285   -0.883927
      6          1           0        0.912969    0.336816    0.251643
 ---------------------------------------------------------------------

 SCF Done:  E(RB2PLYPD3) =  -114.824516080     A.U. after   12 cycles
 E2(B2PLYPD3) =    -0.1436284463D+00 E(B2PLYPD3) =    -0.11496814452626D+03

 The electronic state is 1-A.
 Alpha  occ. eigenvalues --  -19.68900 -10.70224  -1.34828  -0.81963  -0.62193
 Alpha  occ. eigenvalues --   -0.52541  -0.49741  -0.41769  -0.37087
 Alpha virt. eigenvalues --    0.04826   0.09441   0.10574   0.11789   0.13782
 Alpha virt. eigenvalues --    0.16779   0.17832   0.27047   0.30496   0.32594
 Alpha virt. eigenvalues --    0.33375   0.36354   0.38102   0.41449   0.44571

 Mulliken charges:
               1
     1  C    0.038743
     2  O   -0.044808
     3  H    0.047911
     4  H    0.072130
     5  H    0.071917
     6  H   -0.185893
 Sum of Mulliken charges =   0.00000

 Dipole moment (field-independent basis, Debye):
    X=             -1.2442    Y=              0.8225    Z=              0.6491  Tot=              1.6266
 Quadrupole moment (field-independent basis, Debye-Ang):
   XX=            -13.8632   YY=            -12.5237   ZZ=            -13.0402
   XY=              1.5192   XZ=              0.7195   YZ=              0.2730

 Normal termination of Gaussian 09 at Wed Aug 26 18:55:25 2020.
