 Gaussian 09, Revision D.01,
 Gaussian 09:  ES64L-G09RevD.01 24-Apr-2013

 --------------------
 #p B2PLYPD3/Def2QZVP
 --------------------

 --------
 methanol
 --------
 Symbolic Z-matrix:
 Charge =  0 Multiplicity = 1

                         Standard orientation:
 ---------------------------------------------------------------------
 Center     Atomic      Atomic             Coordinates (Angstroms)
 Number     Number       Type             X           Y           Z
 ---------------------------------------------------------------------
      1          6           0        0.666405    0.022561   -0.007297
      2          8           0       -0.742366   -0.169640   -0.002926
      3          1           0        1.043538    0.479448    0.809829
      4          1           0        0.918806    0.607064   -0.790850
      5          1           0        1.144791   -0.864406   -0.021810
      6          1           0       -1.166638    0.999644    0.070015
 ---------------------------------------------------------------------

 SCF Done:  E(RB2PLYPD3) =  -115.488122703     A.U. after   11 cycles
 E2(B2PLYPD3) =    -0.1521824380D+00 E(B2PLYPD3) =    -0.11564030514118D+03

 The electronic state is 1-A.
 Alpha  occ. eigenvalues --  -19.74433 -10.62496  -1.12445  -0.79590  -0.55833
 Alpha  occ. eigenvalues --   -0.52845  -0.49320  -0.40605  -0.34986
 Alpha virt. eigenvalues --    0.01556   0.07662   0.12674   0.12876   0.14761
 Alpha virt. eigenvalues --    0.17758   0.18264   0.25201   0.29682   0.33015
 Alpha virt. eigenvalues --    0.34275   0.39474   0.40213   0.43029   0.43754

 Mulliken charges:
               1
     1  C    0.104131
     2  O   -0.494573
     3  H    0.036936
     4  H    0.040772
     5  H    0.061739
     6  H    0.250996
 Sum of Mulliken charges =   0.00000

 Dipole moment (field-independent basis, Debye):
    X=              1.0361    Y=              1.7315    Z=              0.1199  Tot=              2.0214
 Quadrupole moment (field-independent basis, Debye-Ang):
   XX=            -13.0231   YY=            -11.6172   ZZ=            -13.9545
   XY=             -2.4884   XZ=             -0.0109   YZ=              0.0408

 Normal termination of Gaussian 09 at Wed Aug 26 16:37:29 2020.
