 Gaussian 09, Revision D.01,
 Gaussian 09:  ES64L-G09RevD.01 24-Apr-2013

 --------------------
 #p B2PLYPD3/Def2QZVP
 --------------------

 --------
 methanol
 --------
 Symbolic Z-matrix:
 Charge =  0 Multiplicity = 1

                         Standard orientation:
 ---------------------------------------------------------------------
 Center     Atomic      Atomic             Coordinates (Angstroms)
 Number     Number       Type             X           Y           Z
 ---------------------------------------------------------------------
      1          6           0        0.684073    0.020631    0.010233
      2          8           0       -0.740419   -0.155916   -0.000388
      3          1           0        1.051664    0.464483    0.815829
      4          1           0        0.958190    0.619808   -0.801641
      5          1           0        1.023345   -0.912994   -0.099286
      6          1           0       -1.214283    0.952241    0.026806
 ---------------------------------------------------------------------

 SCF Done:  E(RB2PLYPD3) =  -115.498654122     A.U. after   11 cycles
 E2(B2PLYPD3) =    -0.1515422047D+00 E(B2PLYPD3) =    -0.11565019632639D+03

 The electronic state is 1-A.
 Alpha  occ. eigenvalues --  -19.73921 -10.62757  -1.12133  -0.79431  -0.56789
 Alpha  occ. eigenvalues --   -0.52322  -0.48841  -0.40880  -0.34945
 Alpha virt. eigenvalues --    0.02408   0.07779   0.12536   0.12865   0.14950
 Alpha virt. eigenvalues --    0.17085   0.18056   0.26537   0.29597   0.33124
 Alpha virt. eigenvalues --    0.34055   0.38729   0.40047   0.42643   0.44974

 Mulliken charges:
               1
     1  C    0.094583
     2  O   -0.502289
     3  H    0.047619
     4  H    0.040276
     5  H    0.071860
     6  H    0.247951
 Sum of Mulliken charges =   0.00000

 Dipole moment (field-independent basis, Debye):
    X=              0.9906    Y=              1.6758    Z=              0.0638  Tot=              1.9477
 Quadrupole moment (field-independent basis, Debye-Ang):
   XX=            -12.9280   YY=            -11.6473   ZZ=            -13.9136
   XY=             -2.4104   XZ=              0.0542   YZ=              0.0988

 Normal termination of Gaussian 09 at Wed Aug 26 12:41:16 2020.
