 Gaussian 09, Revision D.01,
 Gaussian 09:  ES64L-G09RevD.01 24-Apr-2013

 --------------------
 #p B2PLYPD3/Def2QZVP
 --------------------

 --------
 methanol
 --------
 Symbolic Z-matrix:
 Charge =  0 Multiplicity = 1

                         Standard orientation:
 ---------------------------------------------------------------------
 Center     Atomic      Atomic             Coordinates (Angstroms)
 Number     Number       Type             X           Y           Z
 ---------------------------------------------------------------------
      1          6           0        0.659103   -0.006101    0.028137
      2          8           0       -0.745195   -0.023455   -0.076246
      3          1           0        0.883320   -0.457831    1.023807
      4          1           0        1.210753    1.158215   -0.163202
      5          1           0        1.115877   -0.727247   -0.766397
      6          1           0       -1.203003    0.251106    0.346933
 ---------------------------------------------------------------------

 SCF Done:  E(RB2PLYPD3) =  -115.371831902     A.U. after   11 cycles
 E2(B2PLYPD3) =    -0.1444432873D+00 E(B2PLYPD3) =    -0.11551627518888D+03

 The electronic state is 1-A.
 Alpha  occ. eigenvalues --  -19.69469 -10.69846  -1.24455  -0.82765  -0.61597
 Alpha  occ. eigenvalues --   -0.51507  -0.50071  -0.38853  -0.35724
 Alpha virt. eigenvalues --    0.05147   0.08816   0.11301   0.12211   0.14045
 Alpha virt. eigenvalues --    0.16794   0.18110   0.28552   0.31402   0.32405
 Alpha virt. eigenvalues --    0.34822   0.36487   0.39701   0.40891   0.42888

 Mulliken charges:
               1
     1  C    0.050184
     2  O   -0.223770
     3  H    0.059810
     4  H    0.037209
     5  H    0.083060
     6  H   -0.006493
 Sum of Mulliken charges =   0.00000

 Dipole moment (field-independent basis, Debye):
    X=              0.6559    Y=              0.3704    Z=              0.9854  Tot=              1.2403
 Quadrupole moment (field-independent basis, Debye-Ang):
   XX=            -12.5723   YY=            -13.3557   ZZ=            -13.2489
   XY=             -1.1114   XZ=             -1.6885   YZ=              0.2281

 Normal termination of Gaussian 09 at Wed Aug 26 22:22:12 2020.
