 Gaussian 09, Revision D.01,
 Gaussian 09:  ES64L-G09RevD.01 24-Apr-2013

 --------------------
 #p B2PLYPD3/Def2QZVP
 --------------------

 --------
 methanol
 --------
 Symbolic Z-matrix:
 Charge =  0 Multiplicity = 1

                         Standard orientation:
 ---------------------------------------------------------------------
 Center     Atomic      Atomic             Coordinates (Angstroms)
 Number     Number       Type             X           Y           Z
 ---------------------------------------------------------------------
      1          6           0       -0.670656    0.013970    0.006791
      2          8           0        0.746367   -0.146681   -0.010563
      3          1           0       -1.012390    0.586268   -0.851451
      4          1           0       -0.993710    0.497154    0.854944
      5          1           0       -1.097275   -0.892960   -0.013933
      6          1           0        1.156379    0.899166    0.054198
 ---------------------------------------------------------------------

 SCF Done:  E(RB2PLYPD3) =  -115.523668886     A.U. after   11 cycles
 E2(B2PLYPD3) =    -0.1499634824D+00 E(B2PLYPD3) =    -0.11567363236828D+03

 The electronic state is 1-A.
 Alpha  occ. eigenvalues --  -19.73668 -10.63682  -1.13340  -0.79078  -0.56681
 Alpha  occ. eigenvalues --   -0.51916  -0.50086  -0.41105  -0.35003
 Alpha virt. eigenvalues --    0.03447   0.07859   0.12565   0.12761   0.14800
 Alpha virt. eigenvalues --    0.17595   0.18096   0.28484   0.29858   0.33278
 Alpha virt. eigenvalues --    0.33767   0.39141   0.41019   0.41527   0.43863

 Mulliken charges:
               1
     1  C    0.087260
     2  O   -0.493445
     3  H    0.040847
     4  H    0.043783
     5  H    0.069652
     6  H    0.251903
 Sum of Mulliken charges =   0.00000

 Dipole moment (field-independent basis, Debye):
    X=             -0.9722    Y=              1.6127    Z=              0.1567  Tot=              1.8896
 Quadrupole moment (field-independent basis, Debye-Ang):
   XX=            -13.0365   YY=            -11.8711   ZZ=            -13.8554
   XY=              2.4568   XZ=              0.0779   YZ=              0.1058

 Normal termination of Gaussian 09 at Thu Aug 27 00:03:33 2020.
