 Gaussian 09, Revision D.01,
 Gaussian 09:  ES64L-G09RevD.01 24-Apr-2013

 --------------------
 #p B2PLYPD3/Def2QZVP
 --------------------

 --------
 methanol
 --------
 Symbolic Z-matrix:
 Charge =  0 Multiplicity = 1

                         Standard orientation:
 ---------------------------------------------------------------------
 Center     Atomic      Atomic             Coordinates (Angstroms)
 Number     Number       Type             X           Y           Z
 ---------------------------------------------------------------------
      1          6           0       -0.675556   -0.020554    0.005825
      2          8           0        0.752726    0.113669   -0.015392
      3          1           0       -0.992648   -0.444380    0.937201
      4          1           0       -1.055922   -0.644076   -0.848856
      5          1           0       -1.072029    1.005977   -0.067652
      6          1           0        1.152124   -0.703549    0.067491
 ---------------------------------------------------------------------

 SCF Done:  E(RB2PLYPD3) =  -115.550070966     A.U. after   10 cycles
 E2(B2PLYPD3) =    -0.1466684057D+00 E(B2PLYPD3) =    -0.11569673937182D+03

 The electronic state is 1-A.
 Alpha  occ. eigenvalues --  -19.71942 -10.66119  -1.16564  -0.79022  -0.59027
 Alpha  occ. eigenvalues --   -0.51679  -0.49617  -0.41062  -0.35518
 Alpha virt. eigenvalues --    0.05191   0.08370   0.12227   0.12361   0.14765
 Alpha virt. eigenvalues --    0.17092   0.18020   0.29113   0.32844   0.33330
 Alpha virt. eigenvalues --    0.36531   0.38676   0.39569   0.40654   0.43665

 Mulliken charges:
               1
     1  C    0.070339
     2  O   -0.449531
     3  H    0.053972
     4  H    0.048320
     5  H    0.073233
     6  H    0.203667
 Sum of Mulliken charges =   0.00000

 Dipole moment (field-independent basis, Debye):
    X=             -0.9089    Y=             -1.4499    Z=              0.2000  Tot=              1.7229
 Quadrupole moment (field-independent basis, Debye-Ang):
   XX=            -12.9810   YY=            -12.2955   ZZ=            -13.7209
   XY=             -2.2022   XZ=              0.2036   YZ=             -0.1088

 Normal termination of Gaussian 09 at Wed Aug 26 10:33:06 2020.
