 Gaussian 09, Revision D.01,
 Gaussian 09:  ES64L-G09RevD.01 24-Apr-2013

 --------------------
 #p B2PLYPD3/Def2QZVP
 --------------------

 --------
 methanol
 --------
 Symbolic Z-matrix:
 Charge =  0 Multiplicity = 1

                         Standard orientation:
 ---------------------------------------------------------------------
 Center     Atomic      Atomic             Coordinates (Angstroms)
 Number     Number       Type             X           Y           Z
 ---------------------------------------------------------------------
      1          6           0        0.692128    0.004249    0.044277
      2          8           0       -0.770102   -0.067631   -0.054788
      3          1           0        0.954383   -0.123481    1.028896
      4          1           0        1.121107    1.022139   -0.555129
      5          1           0        1.007788   -0.899805   -0.578388
      6          1           0       -1.075234    0.516699    0.277261
 ---------------------------------------------------------------------

 SCF Done:  E(RB2PLYPD3) =  -115.452890361     A.U. after   11 cycles
 E2(B2PLYPD3) =    -0.1451389055D+00 E(B2PLYPD3) =    -0.11559802926684D+03

 The electronic state is 1-A.
 Alpha  occ. eigenvalues --  -19.70004 -10.67982  -1.21557  -0.80536  -0.60430
 Alpha  occ. eigenvalues --   -0.52018  -0.48785  -0.41183  -0.36362
 Alpha virt. eigenvalues --    0.05302   0.08814   0.11253   0.12068   0.14163
 Alpha virt. eigenvalues --    0.16769   0.18247   0.28544   0.30687   0.32323
 Alpha virt. eigenvalues --    0.34962   0.37879   0.40574   0.41901   0.43370

 Mulliken charges:
               1
     1  C    0.054228
     2  O   -0.304022
     3  H    0.076811
     4  H    0.044764
     5  H    0.076945
     6  H    0.051275
 Sum of Mulliken charges =   0.00000

 Dipole moment (field-independent basis, Debye):
    X=              1.0995    Y=              0.9990    Z=              0.7698  Tot=              1.6732
 Quadrupole moment (field-independent basis, Debye-Ang):
   XX=            -13.3664   YY=            -12.7365   ZZ=            -13.1074
   XY=             -1.7256   XZ=             -0.9130   YZ=              0.3578

 Normal termination of Gaussian 09 at Wed Aug 26 23:27:47 2020.
