 Gaussian 09, Revision D.01,
 Gaussian 09:  ES64L-G09RevD.01 24-Apr-2013

 --------------------
 #p B2PLYPD3/Def2QZVP
 --------------------

 --------
 methanol
 --------
 Symbolic Z-matrix:
 Charge =  0 Multiplicity = 1

                         Standard orientation:
 ---------------------------------------------------------------------
 Center     Atomic      Atomic             Coordinates (Angstroms)
 Number     Number       Type             X           Y           Z
 ---------------------------------------------------------------------
      1          6           0        0.709143    0.011092    0.010007
      2          8           0       -0.758110   -0.161314   -0.013978
      3          1           0        1.013723    0.351739    0.919234
      4          1           0        1.015673    0.708433   -0.772831
      5          1           0        1.069651   -0.801518   -0.167986
      6          1           0       -1.289022    0.965307    0.073365
 ---------------------------------------------------------------------

 SCF Done:  E(RB2PLYPD3) =  -115.469847615     A.U. after   11 cycles
 E2(B2PLYPD3) =    -0.1529096197D+00 E(B2PLYPD3) =    -0.11562275723500D+03

 The electronic state is 1-A.
 Alpha  occ. eigenvalues --  -19.74052 -10.62945  -1.10283  -0.80360  -0.55401
 Alpha  occ. eigenvalues --   -0.51676  -0.49366  -0.40264  -0.34961
 Alpha virt. eigenvalues --    0.01757   0.07492   0.12533   0.12932   0.14351
 Alpha virt. eigenvalues --    0.17291   0.18213   0.25497   0.29101   0.32077
 Alpha virt. eigenvalues --    0.33498   0.37957   0.41341   0.42118   0.43596

 Mulliken charges:
               1
     1  C    0.077780
     2  O   -0.524023
     3  H    0.057297
     4  H    0.044324
     5  H    0.091451
     6  H    0.253170
 Sum of Mulliken charges =   0.00000

 Dipole moment (field-independent basis, Debye):
    X=              1.0518    Y=              1.6108    Z=              0.1581  Tot=              1.9303
 Quadrupole moment (field-independent basis, Debye-Ang):
   XX=            -12.5839   YY=            -11.8406   ZZ=            -13.8112
   XY=             -2.7124   XZ=             -0.1766   YZ=              0.1672

 Normal termination of Gaussian 09 at Wed Aug 26 22:22:51 2020.
