 Gaussian 09, Revision D.01,
 Gaussian 09:  ES64L-G09RevD.01 24-Apr-2013

 --------------------
 #p B2PLYPD3/Def2QZVP
 --------------------

 --------
 methanol
 --------
 Symbolic Z-matrix:
 Charge =  0 Multiplicity = 1

                         Standard orientation:
 ---------------------------------------------------------------------
 Center     Atomic      Atomic             Coordinates (Angstroms)
 Number     Number       Type             X           Y           Z
 ---------------------------------------------------------------------
      1          6           0       -0.672740    0.025455    0.020077
      2          8           0        0.726861   -0.151217   -0.030607
      3          1           0       -1.172197    0.650841   -0.763838
      4          1           0       -0.911458    0.467356    0.816427
      5          1           0       -1.013114   -0.965765   -0.005631
      6          1           0        1.318318    0.904574    0.077434
 ---------------------------------------------------------------------

 SCF Done:  E(RB2PLYPD3) =  -115.488741405     A.U. after   11 cycles
 E2(B2PLYPD3) =    -0.1516502193D+00 E(B2PLYPD3) =    -0.11564039162387D+03

 The electronic state is 1-A.
 Alpha  occ. eigenvalues --  -19.74032 -10.63411  -1.12796  -0.78882  -0.57278
 Alpha  occ. eigenvalues --   -0.51437  -0.49050  -0.40159  -0.34679
 Alpha virt. eigenvalues --    0.02221   0.07524   0.12266   0.13074   0.15276
 Alpha virt. eigenvalues --    0.16867   0.18202   0.26249   0.29513   0.32830
 Alpha virt. eigenvalues --    0.34882   0.38640   0.38873   0.40318   0.45774

 Mulliken charges:
               1
     1  C    0.073722
     2  O   -0.494396
     3  H    0.037962
     4  H    0.056865
     5  H    0.073687
     6  H    0.252159
 Sum of Mulliken charges =   0.00000

 Dipole moment (field-independent basis, Debye):
    X=             -0.7080    Y=              1.6296    Z=              0.3413  Tot=              1.8093
 Quadrupole moment (field-independent basis, Debye-Ang):
   XX=            -12.4705   YY=            -11.8601   ZZ=            -14.0976
   XY=              2.4607   XZ=              0.2053   YZ=              0.2097

 Normal termination of Gaussian 09 at Wed Aug 26 18:41:30 2020.
