 Gaussian 09, Revision D.01,
 Gaussian 09:  ES64L-G09RevD.01 24-Apr-2013

 --------------------
 #p B2PLYPD3/Def2QZVP
 --------------------

 --------
 methanol
 --------
 Symbolic Z-matrix:
 Charge =  0 Multiplicity = 1

                         Standard orientation:
 ---------------------------------------------------------------------
 Center     Atomic      Atomic             Coordinates (Angstroms)
 Number     Number       Type             X           Y           Z
 ---------------------------------------------------------------------
      1          6           0       -0.674462   -0.027303    0.014939
      2          8           0        0.755889    0.107165   -0.024042
      3          1           0       -0.992035   -0.383603    0.928191
      4          1           0       -1.056143   -0.708292   -0.821102
      5          1           0       -1.081047    1.057442   -0.119634
      6          1           0        1.128880   -0.659051    0.115252
 ---------------------------------------------------------------------

 SCF Done:  E(RB2PLYPD3) =  -115.535498566     A.U. after   10 cycles
 E2(B2PLYPD3) =    -0.1460947566D+00 E(B2PLYPD3) =    -0.11568159332291D+03

 The electronic state is 1-A.
 Alpha  occ. eigenvalues --  -19.71550 -10.66643  -1.17931  -0.79340  -0.60007
 Alpha  occ. eigenvalues --   -0.51913  -0.48900  -0.41096  -0.35834
 Alpha virt. eigenvalues --    0.05263   0.08558   0.11882   0.12288   0.14849
 Alpha virt. eigenvalues --    0.17043   0.17963   0.29053   0.32534   0.33304
 Alpha virt. eigenvalues --    0.36792   0.37751   0.39330   0.41244   0.43601

 Mulliken charges:
               1
     1  C    0.067938
     2  O   -0.417296
     3  H    0.060853
     4  H    0.048626
     5  H    0.067168
     6  H    0.172712
 Sum of Mulliken charges =   0.00000

 Dipole moment (field-independent basis, Debye):
    X=             -0.9302    Y=             -1.4371    Z=              0.3633  Tot=              1.7500
 Quadrupole moment (field-independent basis, Debye-Ang):
   XX=            -13.0725   YY=            -12.3426   ZZ=            -13.6765
   XY=             -2.0397   XZ=              0.2775   YZ=             -0.1985

 Normal termination of Gaussian 09 at Wed Aug 26 15:51:53 2020.
