 Gaussian 09, Revision D.01,
 Gaussian 09:  ES64L-G09RevD.01 24-Apr-2013

 --------------------
 #p B2PLYPD3/Def2QZVP
 --------------------

 --------
 methanol
 --------
 Symbolic Z-matrix:
 Charge =  0 Multiplicity = 1

                         Standard orientation:
 ---------------------------------------------------------------------
 Center     Atomic      Atomic             Coordinates (Angstroms)
 Number     Number       Type             X           Y           Z
 ---------------------------------------------------------------------
      1          6           0        0.675274    0.008362    0.004960
      2          8           0       -0.744441   -0.141478   -0.015228
      3          1           0        1.059036    0.421190    0.898685
      4          1           0        1.003929    0.701413   -0.814957
      5          1           0        1.106653   -0.876127   -0.098557
      6          1           0       -1.265740    0.835171    0.106891
 ---------------------------------------------------------------------

 SCF Done:  E(RB2PLYPD3) =  -115.524095030     A.U. after   11 cycles
 E2(B2PLYPD3) =    -0.1497728945D+00 E(B2PLYPD3) =    -0.11567386792416D+03

 The electronic state is 1-A.
 Alpha  occ. eigenvalues --  -19.73491 -10.64382  -1.13104  -0.79005  -0.56549
 Alpha  occ. eigenvalues --   -0.51268  -0.50521  -0.40474  -0.34726
 Alpha virt. eigenvalues --    0.03587   0.07663   0.12551   0.12874   0.14821
 Alpha virt. eigenvalues --    0.17447   0.18202   0.28848   0.29808   0.33060
 Alpha virt. eigenvalues --    0.33877   0.38410   0.40624   0.41420   0.43487

 Mulliken charges:
               1
     1  C    0.082074
     2  O   -0.499737
     3  H    0.045678
     4  H    0.037590
     5  H    0.076955
     6  H    0.257440
 Sum of Mulliken charges =   0.00000

 Dipole moment (field-independent basis, Debye):
    X=              0.7857    Y=              1.5311    Z=              0.2549  Tot=              1.7397
 Quadrupole moment (field-independent basis, Debye-Ang):
   XX=            -12.4685   YY=            -12.1439   ZZ=            -13.9663
   XY=             -2.6374   XZ=             -0.1835   YZ=              0.1810

 Normal termination of Gaussian 09 at Wed Aug 26 10:58:26 2020.
