 Gaussian 09, Revision D.01,
 Gaussian 09:  ES64L-G09RevD.01 24-Apr-2013

 --------------------
 #p B2PLYPD3/Def2QZVP
 --------------------

 --------
 methanol
 --------
 Symbolic Z-matrix:
 Charge =  0 Multiplicity = 1

                         Standard orientation:
 ---------------------------------------------------------------------
 Center     Atomic      Atomic             Coordinates (Angstroms)
 Number     Number       Type             X           Y           Z
 ---------------------------------------------------------------------
      1          6           0        0.654998   -0.004041   -0.002768
      2          8           0       -0.749574    0.094704   -0.009128
      3          1           0        1.061004   -0.684155   -0.857018
      4          1           0        1.052533   -0.435831    0.994145
      5          1           0        1.063149    1.011194   -0.107516
      6          1           0       -1.110081   -0.624593    0.060017
 ---------------------------------------------------------------------

 SCF Done:  E(RB2PLYPD3) =  -115.518322296     A.U. after   10 cycles
 E2(B2PLYPD3) =    -0.1451443501D+00 E(B2PLYPD3) =    -0.11566346664631D+03

 The electronic state is 1-A.
 Alpha  occ. eigenvalues --  -19.71314 -10.67485  -1.20589  -0.79781  -0.60744
 Alpha  occ. eigenvalues --   -0.50962  -0.50744  -0.41192  -0.35454
 Alpha virt. eigenvalues --    0.05354   0.08729   0.11983   0.12300   0.14798
 Alpha virt. eigenvalues --    0.17114   0.17940   0.28886   0.32878   0.33639
 Alpha virt. eigenvalues --    0.36773   0.38896   0.39716   0.39741   0.42670

 Mulliken charges:
               1
     1  C    0.058487
     2  O   -0.353338
     3  H    0.041253
     4  H    0.042342
     5  H    0.080410
     6  H    0.130847
 Sum of Mulliken charges =   0.00000

 Dipole moment (field-independent basis, Debye):
    X=              0.8164    Y=             -1.2791    Z=              0.1286  Tot=              1.5228
 Quadrupole moment (field-independent basis, Debye-Ang):
   XX=            -13.0682   YY=            -12.4359   ZZ=            -13.7939
   XY=              2.1063   XZ=             -0.2015   YZ=             -0.0863

 Normal termination of Gaussian 09 at Wed Aug 26 22:23:54 2020.
