 Gaussian 09, Revision D.01,
 Gaussian 09:  ES64L-G09RevD.01 24-Apr-2013

 --------------------
 #p B2PLYPD3/Def2QZVP
 --------------------

 --------
 methanol
 --------
 Symbolic Z-matrix:
 Charge =  0 Multiplicity = 1

                         Standard orientation:
 ---------------------------------------------------------------------
 Center     Atomic      Atomic             Coordinates (Angstroms)
 Number     Number       Type             X           Y           Z
 ---------------------------------------------------------------------
      1          6           0       -0.655865    0.017259    0.003044
      2          8           0        0.747378   -0.155633   -0.010144
      3          1           0       -0.969808    0.624725   -0.818170
      4          1           0       -1.071732    0.432477    0.827271
      5          1           0       -1.115245   -0.885913   -0.047534
      6          1           0        1.112944    0.970223    0.101317
 ---------------------------------------------------------------------

 SCF Done:  E(RB2PLYPD3) =  -115.506056490     A.U. after   11 cycles
 E2(B2PLYPD3) =    -0.1513037272D+00 E(B2PLYPD3) =    -0.11565736021686D+03

 The electronic state is 1-A.
 Alpha  occ. eigenvalues --  -19.74449 -10.63276  -1.13384  -0.79181  -0.56267
 Alpha  occ. eigenvalues --   -0.52361  -0.49576  -0.40959  -0.35108
 Alpha virt. eigenvalues --    0.02443   0.07704   0.12636   0.12757   0.14868
 Alpha virt. eigenvalues --    0.17776   0.18385   0.26509   0.29592   0.33118
 Alpha virt. eigenvalues --    0.34633   0.39095   0.40011   0.42145   0.44047

 Mulliken charges:
               1
     1  C    0.090713
     2  O   -0.483206
     3  H    0.037785
     4  H    0.039433
     5  H    0.061364
     6  H    0.253911
 Sum of Mulliken charges =   0.00000

 Dipole moment (field-independent basis, Debye):
    X=             -1.0190    Y=              1.6692    Z=              0.2213  Tot=              1.9681
 Quadrupole moment (field-independent basis, Debye-Ang):
   XX=            -13.1952   YY=            -11.7261   ZZ=            -13.9504
   XY=              2.3756   XZ=              0.0528   YZ=              0.1376

 Normal termination of Gaussian 09 at Wed Aug 26 12:33:22 2020.
