 Gaussian 09, Revision D.01,
 Gaussian 09:  ES64L-G09RevD.01 24-Apr-2013

 --------------------
 #p B2PLYPD3/Def2QZVP
 --------------------

 --------
 methanol
 --------
 Symbolic Z-matrix:
 Charge =  0 Multiplicity = 1

                         Standard orientation:
 ---------------------------------------------------------------------
 Center     Atomic      Atomic             Coordinates (Angstroms)
 Number     Number       Type             X           Y           Z
 ---------------------------------------------------------------------
      1          6           0       -0.653851    0.014153   -0.004849
      2          8           0        0.739696   -0.144197    0.000036
      3          1           0       -1.034893    0.518436   -0.854536
      4          1           0       -0.991020    0.564409    0.859533
      5          1           0       -1.106831   -0.900101    0.035133
      6          1           0        1.138281    0.885916   -0.011321
 ---------------------------------------------------------------------

 SCF Done:  E(RB2PLYPD3) =  -115.531117257     A.U. after   11 cycles
 E2(B2PLYPD3) =    -0.1493995324D+00 E(B2PLYPD3) =    -0.11568051678963D+03

 The electronic state is 1-A.
 Alpha  occ. eigenvalues --  -19.73735 -10.63970  -1.14517  -0.78657  -0.57221
 Alpha  occ. eigenvalues --   -0.51900  -0.50490  -0.40953  -0.34959
 Alpha virt. eigenvalues --    0.03618   0.07901   0.12587   0.12783   0.14910
 Alpha virt. eigenvalues --    0.17724   0.18173   0.28768   0.30013   0.33254
 Alpha virt. eigenvalues --    0.34659   0.39239   0.40812   0.41555   0.43675

 Mulliken charges:
               1
     1  C    0.080438
     2  O   -0.479005
     3  H    0.041161
     4  H    0.037307
     5  H    0.067197
     6  H    0.252901
 Sum of Mulliken charges =   0.00000

 Dipole moment (field-independent basis, Debye):
    X=             -0.8833    Y=              1.6038    Z=             -0.0291  Tot=              1.8312
 Quadrupole moment (field-independent basis, Debye-Ang):
   XX=            -13.0604   YY=            -11.9428   ZZ=            -13.9048
   XY=              2.4315   XZ=              0.0223   YZ=             -0.0454

 Normal termination of Gaussian 09 at Wed Aug 26 23:58:21 2020.
