 Gaussian 09, Revision D.01,
 Gaussian 09:  ES64L-G09RevD.01 24-Apr-2013

 --------------------
 #p B2PLYPD3/Def2QZVP
 --------------------

 --------
 methanol
 --------
 Symbolic Z-matrix:
 Charge =  0 Multiplicity = 1

                         Standard orientation:
 ---------------------------------------------------------------------
 Center     Atomic      Atomic             Coordinates (Angstroms)
 Number     Number       Type             X           Y           Z
 ---------------------------------------------------------------------
      1          6           0       -0.669153    0.050545   -0.000423
      2          8           0        0.720910   -0.186479   -0.004262
      3          1           0       -1.023847    0.502730   -0.765806
      4          1           0       -1.050690    0.425891    0.774161
      5          1           0       -0.913427   -0.893158   -0.008039
      6          1           0        1.235602    1.153100    0.036315
 ---------------------------------------------------------------------

 SCF Done:  E(RB2PLYPD3) =  -115.410983083     A.U. after   12 cycles
 E2(B2PLYPD3) =    -0.1564747217D+00 E(B2PLYPD3) =    -0.11556745780500D+03

 The electronic state is 1-A.
 Alpha  occ. eigenvalues --  -19.75523 -10.60675  -1.12388  -0.80703  -0.56496
 Alpha  occ. eigenvalues --   -0.54560  -0.48143  -0.38769  -0.35718
 Alpha virt. eigenvalues --   -0.01705   0.07605   0.12411   0.13088   0.15176
 Alpha virt. eigenvalues --    0.16623   0.18663   0.21983   0.29307   0.34073
 Alpha virt. eigenvalues --    0.34726   0.38576   0.38921   0.44812   0.45848

 Mulliken charges:
               1
     1  C    0.094859
     2  O   -0.463237
     3  H    0.043967
     4  H    0.044632
     5  H    0.066927
     6  H    0.212852
 Sum of Mulliken charges =   0.00000

 Dipole moment (field-independent basis, Debye):
    X=             -1.1425    Y=              1.6693    Z=              0.0680  Tot=              2.0240
 Quadrupole moment (field-independent basis, Debye-Ang):
   XX=            -13.1348   YY=            -11.3602   ZZ=            -13.8620
   XY=              2.1559   XZ=              0.0145   YZ=              0.0179

 Normal termination of Gaussian 09 at Wed Aug 26 22:41:49 2020.
