 Gaussian 09, Revision D.01,
 Gaussian 09:  ES64L-G09RevD.01 24-Apr-2013

 --------------------
 #p B2PLYPD3/Def2QZVP
 --------------------

 --------
 methanol
 --------
 Symbolic Z-matrix:
 Charge =  0 Multiplicity = 1

                         Standard orientation:
 ---------------------------------------------------------------------
 Center     Atomic      Atomic             Coordinates (Angstroms)
 Number     Number       Type             X           Y           Z
 ---------------------------------------------------------------------
      1          6           0       -0.675322   -0.016024    0.008588
      2          8           0        0.742256   -0.164402   -0.021359
      3          1           0       -1.147457    0.684651   -0.786075
      4          1           0       -1.053235    0.450783    0.856831
      5          1           0       -1.023011   -0.763621   -0.041132
      6          1           0        1.337589    1.039552    0.089719
 ---------------------------------------------------------------------

 SCF Done:  E(RB2PLYPD3) =  -115.399397559     A.U. after   11 cycles
 E2(B2PLYPD3) =    -0.1547659893D+00 E(B2PLYPD3) =    -0.11555416354859D+03

 The electronic state is 1-A.
 Alpha  occ. eigenvalues --  -19.75152 -10.62644  -1.11709  -0.81037  -0.56328
 Alpha  occ. eigenvalues --   -0.50930  -0.49384  -0.40271  -0.34296
 Alpha virt. eigenvalues --   -0.00514   0.07263   0.12737   0.13084   0.14813
 Alpha virt. eigenvalues --    0.17650   0.18420   0.22989   0.29568   0.33071
 Alpha virt. eigenvalues --    0.34080   0.36638   0.39237   0.41768   0.43166

 Mulliken charges:
               1
     1  C    0.000570
     2  O   -0.494309
     3  H    0.033319
     4  H    0.046194
     5  H    0.155781
     6  H    0.258445
 Sum of Mulliken charges =   0.00000

 Dipole moment (field-independent basis, Debye):
    X=             -0.7695    Y=              1.6040    Z=              0.2879  Tot=              1.8022
 Quadrupole moment (field-independent basis, Debye-Ang):
   XX=            -12.3265   YY=            -11.6223   ZZ=            -14.2557
   XY=              2.8079   XZ=              0.1192   YZ=              0.2194

 Normal termination of Gaussian 09 at Wed Aug 26 21:11:41 2020.
