 Gaussian 09, Revision D.01,
 Gaussian 09:  ES64L-G09RevD.01 24-Apr-2013

 --------------------
 #p B2PLYPD3/Def2QZVP
 --------------------

 --------
 methanol
 --------
 Symbolic Z-matrix:
 Charge =  0 Multiplicity = 1

                         Standard orientation:
 ---------------------------------------------------------------------
 Center     Atomic      Atomic             Coordinates (Angstroms)
 Number     Number       Type             X           Y           Z
 ---------------------------------------------------------------------
      1          6           0        0.664170    0.019072    0.004908
      2          8           0       -0.743334   -0.145019    0.001663
      3          1           0        1.078650    0.504525    0.844337
      4          1           0        0.974423    0.628990   -0.822921
      5          1           0        1.143479   -0.926643   -0.083157
      6          1           0       -1.234903    0.838849    0.018991
 ---------------------------------------------------------------------

 SCF Done:  E(RB2PLYPD3) =  -115.533405458     A.U. after   11 cycles
 E2(B2PLYPD3) =    -0.1494889075D+00 E(B2PLYPD3) =    -0.11568289436538D+03

 The electronic state is 1-A.
 Alpha  occ. eigenvalues --  -19.73596 -10.64540  -1.13783  -0.78559  -0.57171
 Alpha  occ. eigenvalues --   -0.51353  -0.50045  -0.40575  -0.34898
 Alpha virt. eigenvalues --    0.03730   0.07668   0.12607   0.12787   0.14954
 Alpha virt. eigenvalues --    0.17611   0.18103   0.29009   0.30127   0.33225
 Alpha virt. eigenvalues --    0.34160   0.39291   0.39704   0.41441   0.43854

 Mulliken charges:
               1
     1  C    0.081824
     2  O   -0.490084
     3  H    0.045195
     4  H    0.038743
     5  H    0.069680
     6  H    0.254642
 Sum of Mulliken charges =   0.00000

 Dipole moment (field-independent basis, Debye):
    X=              0.7875    Y=              1.6225    Z=              0.0336  Tot=              1.8038
 Quadrupole moment (field-independent basis, Debye-Ang):
   XX=            -12.5720   YY=            -12.0954   ZZ=            -14.0427
   XY=             -2.5165   XZ=              0.0371   YZ=              0.0553

 Normal termination of Gaussian 09 at Wed Aug 26 15:44:04 2020.
