 Gaussian 09, Revision D.01,
 Gaussian 09:  ES64L-G09RevD.01 24-Apr-2013

 --------------------
 #p B2PLYPD3/Def2QZVP
 --------------------

 --------
 methanol
 --------
 Symbolic Z-matrix:
 Charge =  0 Multiplicity = 1

                         Standard orientation:
 ---------------------------------------------------------------------
 Center     Atomic      Atomic             Coordinates (Angstroms)
 Number     Number       Type             X           Y           Z
 ---------------------------------------------------------------------
      1          6           0       -0.618195    0.004685    0.021823
      2          8           0        0.738813   -0.046036   -0.043243
      3          1           0       -0.972635    1.262365   -0.150287
      4          1           0       -1.136142   -0.481281    0.966652
      5          1           0       -1.134411   -0.657023   -0.880013
      6          1           0        1.041848    0.216111    0.278653
 ---------------------------------------------------------------------

 SCF Done:  E(RB2PLYPD3) =  -114.838366120     A.U. after   12 cycles
 E2(B2PLYPD3) =    -0.1434135112D+00 E(B2PLYPD3) =    -0.11498177963100D+03

 The electronic state is 1-A.
 Alpha  occ. eigenvalues --  -19.69880 -10.71141  -1.35156  -0.86302  -0.63214
 Alpha  occ. eigenvalues --   -0.52378  -0.51443  -0.39133  -0.36140
 Alpha virt. eigenvalues --    0.04770   0.09510   0.10729   0.11757   0.14161
 Alpha virt. eigenvalues --    0.16925   0.18093   0.27424   0.30879   0.33410
 Alpha virt. eigenvalues --    0.34389   0.36542   0.37218   0.41700   0.43156

 Mulliken charges:
               1
     1  C    0.036261
     2  O   -0.006062
     3  H    0.024437
     4  H    0.056881
     5  H    0.073724
     6  H   -0.185242
 Sum of Mulliken charges =   0.00000

 Dipole moment (field-independent basis, Debye):
    X=             -0.6743    Y=              0.4359    Z=              0.8020  Tot=              1.1349
 Quadrupole moment (field-independent basis, Debye-Ang):
   XX=            -13.0342   YY=            -13.2297   ZZ=            -13.2858
   XY=              1.4243   XZ=              1.1855   YZ=              0.2359

 Normal termination of Gaussian 09 at Wed Aug 26 23:17:26 2020.
