 Gaussian 09, Revision D.01,
 Gaussian 09:  ES64L-G09RevD.01 24-Apr-2013

 --------------------
 #p B2PLYPD3/Def2QZVP
 --------------------

 --------
 methanol
 --------
 Symbolic Z-matrix:
 Charge =  0 Multiplicity = 1

                         Standard orientation:
 ---------------------------------------------------------------------
 Center     Atomic      Atomic             Coordinates (Angstroms)
 Number     Number       Type             X           Y           Z
 ---------------------------------------------------------------------
      1          6           0        0.665472   -0.011601   -0.019011
      2          8           0       -0.756323    0.080574    0.014581
      3          1           0        1.074720   -0.493597   -0.934958
      4          1           0        1.025775   -0.664617    0.935403
      5          1           0        1.085156    1.086232    0.093093
      6          1           0       -1.127896   -0.503005   -0.096121
 ---------------------------------------------------------------------

 SCF Done:  E(RB2PLYPD3) =  -115.417585339     A.U. after   11 cycles
 E2(B2PLYPD3) =    -0.1442127992D+00 E(B2PLYPD3) =    -0.11556179813827D+03

 The electronic state is 1-A.
 Alpha  occ. eigenvalues --  -19.69842 -10.68862  -1.23820  -0.81257  -0.61877
 Alpha  occ. eigenvalues --   -0.50776  -0.50004  -0.40867  -0.35785
 Alpha virt. eigenvalues --    0.05292   0.09082   0.11755   0.11818   0.14623
 Alpha virt. eigenvalues --    0.16875   0.17770   0.28864   0.31987   0.33269
 Alpha virt. eigenvalues --    0.36212   0.37184   0.39406   0.40487   0.42010

 Mulliken charges:
               1
     1  C    0.052658
     2  O   -0.251188
     3  H    0.058878
     4  H    0.041731
     5  H    0.079940
     6  H    0.017982
 Sum of Mulliken charges =   0.00000

 Dipole moment (field-independent basis, Debye):
    X=              0.8731    Y=             -1.1790    Z=             -0.3343  Tot=              1.5047
 Quadrupole moment (field-independent basis, Debye-Ang):
   XX=            -12.9341   YY=            -12.6060   ZZ=            -13.6471
   XY=              1.9196   XZ=              0.1559   YZ=              0.2475

 Normal termination of Gaussian 09 at Wed Aug 26 14:26:18 2020.
