 Gaussian 09, Revision D.01,
 Gaussian 09:  ES64L-G09RevD.01 24-Apr-2013

 --------------------
 #p B2PLYPD3/Def2QZVP
 --------------------

 --------
 methanol
 --------
 Symbolic Z-matrix:
 Charge =  0 Multiplicity = 1

                         Standard orientation:
 ---------------------------------------------------------------------
 Center     Atomic      Atomic             Coordinates (Angstroms)
 Number     Number       Type             X           Y           Z
 ---------------------------------------------------------------------
      1          6           0        0.670400    0.000007    0.000156
      2          8           0       -0.755659    0.095639   -0.022835
      3          1           0        1.059492   -0.795541   -0.789252
      4          1           0        1.056617   -0.332151    1.015922
      5          1           0        1.083277    0.972878   -0.189738
      6          1           0       -1.176511   -0.610334    0.144806
 ---------------------------------------------------------------------

 SCF Done:  E(RB2PLYPD3) =  -115.528949011     A.U. after   11 cycles
 E2(B2PLYPD3) =    -0.1457364122D+00 E(B2PLYPD3) =    -0.11567468542299D+03

 The electronic state is 1-A.
 Alpha  occ. eigenvalues --  -19.71367 -10.67458  -1.18591  -0.79754  -0.59991
 Alpha  occ. eigenvalues --   -0.51035  -0.50252  -0.40836  -0.35312
 Alpha virt. eigenvalues --    0.05338   0.08480   0.11953   0.12437   0.14677
 Alpha virt. eigenvalues --    0.17100   0.17942   0.29045   0.32586   0.32978
 Alpha virt. eigenvalues --    0.36579   0.38589   0.39182   0.40479   0.42723

 Mulliken charges:
               1
     1  C    0.066536
     2  O   -0.398730
     3  H    0.039860
     4  H    0.046323
     5  H    0.086045
     6  H    0.159965
 Sum of Mulliken charges =   0.00000

 Dipole moment (field-independent basis, Debye):
    X=              0.8265    Y=             -1.2374    Z=              0.3531  Tot=              1.5294
 Quadrupole moment (field-independent basis, Debye-Ang):
   XX=            -12.7728   YY=            -12.5187   ZZ=            -13.7985
   XY=              2.2053   XZ=             -0.4334   YZ=             -0.2350

 Normal termination of Gaussian 09 at Wed Aug 26 11:35:19 2020.
