 Gaussian 09, Revision D.01,
 Gaussian 09:  ES64L-G09RevD.01 24-Apr-2013

 --------------------
 #p B2PLYPD3/Def2QZVP
 --------------------

 --------
 methanol
 --------
 Symbolic Z-matrix:
 Charge =  0 Multiplicity = 1

                         Standard orientation:
 ---------------------------------------------------------------------
 Center     Atomic      Atomic             Coordinates (Angstroms)
 Number     Number       Type             X           Y           Z
 ---------------------------------------------------------------------
      1          6           0        0.669773    0.024843    0.002498
      2          8           0       -0.740002   -0.145423   -0.000752
      3          1           0        1.010396    0.506370    0.872594
      4          1           0        1.042701    0.536168   -0.848349
      5          1           0        1.051231   -0.916243   -0.022863
      6          1           0       -1.202947    0.888034   -0.010353
 ---------------------------------------------------------------------

 SCF Done:  E(RB2PLYPD3) =  -115.525033290     A.U. after   11 cycles
 E2(B2PLYPD3) =    -0.1500451214D+00 E(B2PLYPD3) =    -0.11567507841141D+03

 The electronic state is 1-A.
 Alpha  occ. eigenvalues --  -19.73677 -10.63711  -1.13368  -0.78833  -0.56670
 Alpha  occ. eigenvalues --   -0.52203  -0.49670  -0.40708  -0.35114
 Alpha virt. eigenvalues --    0.03433   0.07815   0.12626   0.12732   0.14933
 Alpha virt. eigenvalues --    0.17187   0.18360   0.28362   0.29780   0.33513
 Alpha virt. eigenvalues --    0.34195   0.38990   0.40272   0.42082   0.43857

 Mulliken charges:
               1
     1  C    0.079215
     2  O   -0.492550
     3  H    0.047831
     4  H    0.045011
     5  H    0.068877
     6  H    0.251616
 Sum of Mulliken charges =   0.00000

 Dipole moment (field-independent basis, Debye):
    X=              0.8818    Y=              1.6040    Z=             -0.0115  Tot=              1.8305
 Quadrupole moment (field-independent basis, Debye-Ang):
   XX=            -12.8605   YY=            -11.9760   ZZ=            -13.8307
   XY=             -2.4465   XZ=             -0.0067   YZ=              0.0040

 Normal termination of Gaussian 09 at Wed Aug 26 21:29:31 2020.
