 Gaussian 09, Revision D.01,
 Gaussian 09:  ES64L-G09RevD.01 24-Apr-2013

 --------------------
 #p B2PLYPD3/Def2QZVP
 --------------------

 --------
 methanol
 --------
 Symbolic Z-matrix:
 Charge =  0 Multiplicity = 1

                         Standard orientation:
 ---------------------------------------------------------------------
 Center     Atomic      Atomic             Coordinates (Angstroms)
 Number     Number       Type             X           Y           Z
 ---------------------------------------------------------------------
      1          6           0       -0.661108    0.012990   -0.004732
      2          8           0        0.754362   -0.140063   -0.003128
      3          1           0       -0.992111    0.622681   -0.815006
      4          1           0       -1.062055    0.444606    0.886638
      5          1           0       -1.103573   -0.918210   -0.069781
      6          1           0        1.089489    0.893488    0.051567
 ---------------------------------------------------------------------

 SCF Done:  E(RB2PLYPD3) =  -115.534279319     A.U. after   11 cycles
 E2(B2PLYPD3) =    -0.1495938946D+00 E(B2PLYPD3) =    -0.11568387321383D+03

 The electronic state is 1-A.
 Alpha  occ. eigenvalues --  -19.73790 -10.64302  -1.14195  -0.78753  -0.57126
 Alpha  occ. eigenvalues --   -0.51842  -0.49775  -0.41503  -0.35217
 Alpha virt. eigenvalues --    0.03831   0.07892   0.12482   0.12674   0.14840
 Alpha virt. eigenvalues --    0.17690   0.18211   0.28882   0.30299   0.33264
 Alpha virt. eigenvalues --    0.34006   0.39077   0.40418   0.41465   0.43716

 Mulliken charges:
               1
     1  C    0.081726
     2  O   -0.480216
     3  H    0.040945
     4  H    0.041703
     5  H    0.066844
     6  H    0.248998
 Sum of Mulliken charges =   0.00000

 Dipole moment (field-independent basis, Debye):
    X=             -1.0271    Y=              1.6091    Z=              0.0827  Tot=              1.9108
 Quadrupole moment (field-independent basis, Debye-Ang):
   XX=            -13.2653   YY=            -11.8645   ZZ=            -13.9104
   XY=              2.3053   XZ=              0.0616   YZ=              0.0443

 Normal termination of Gaussian 09 at Wed Aug 26 15:51:29 2020.
