 Gaussian 09, Revision D.01,
 Gaussian 09:  ES64L-G09RevD.01 24-Apr-2013

 --------------------
 #p B2PLYPD3/Def2QZVP
 --------------------

 --------
 methanol
 --------
 Symbolic Z-matrix:
 Charge =  0 Multiplicity = 1

                         Standard orientation:
 ---------------------------------------------------------------------
 Center     Atomic      Atomic             Coordinates (Angstroms)
 Number     Number       Type             X           Y           Z
 ---------------------------------------------------------------------
      1          6           0        0.662448   -0.009126    0.006319
      2          8           0       -0.746530    0.083731   -0.008715
      3          1           0        1.245400   -0.509938   -0.881803
      4          1           0        0.957005   -0.575743    0.937833
      5          1           0        0.921687    1.099748    0.046984
      6          1           0       -1.126539   -0.629164   -0.071205
 ---------------------------------------------------------------------

 SCF Done:  E(RB2PLYPD3) =  -115.512819508     A.U. after   11 cycles
 E2(B2PLYPD3) =    -0.1456007349D+00 E(B2PLYPD3) =    -0.11565842024293D+03

 The electronic state is 1-A.
 Alpha  occ. eigenvalues --  -19.71258 -10.67670  -1.20299  -0.79674  -0.60856
 Alpha  occ. eigenvalues --   -0.51287  -0.49133  -0.41036  -0.35492
 Alpha virt. eigenvalues --    0.05338   0.08513   0.11789   0.12220   0.15100
 Alpha virt. eigenvalues --    0.16512   0.18151   0.28988   0.31958   0.34323
 Alpha virt. eigenvalues --    0.36507   0.38573   0.38874   0.40029   0.42686

 Mulliken charges:
               1
     1  C    0.043247
     2  O   -0.347282
     3  H    0.046310
     4  H    0.051448
     5  H    0.076530
     6  H    0.129747
 Sum of Mulliken charges =   0.00000

 Dipole moment (field-independent basis, Debye):
    X=              0.7491    Y=             -1.3233    Z=             -0.0722  Tot=              1.5224
 Quadrupole moment (field-independent basis, Debye-Ang):
   XX=            -13.0895   YY=            -12.3541   ZZ=            -13.8558
   XY=              1.8590   XZ=             -0.0272   YZ=              0.0536

 Normal termination of Gaussian 09 at Wed Aug 26 23:51:05 2020.
