 Gaussian 09, Revision D.01,
 Gaussian 09:  ES64L-G09RevD.01 24-Apr-2013

 --------------------
 #p B2PLYPD3/Def2QZVP
 --------------------

 --------
 methanol
 --------
 Symbolic Z-matrix:
 Charge =  0 Multiplicity = 1

                         Standard orientation:
 ---------------------------------------------------------------------
 Center     Atomic      Atomic             Coordinates (Angstroms)
 Number     Number       Type             X           Y           Z
 ---------------------------------------------------------------------
      1          6           0        0.680788    0.021547   -0.002397
      2          8           0       -0.753517   -0.157579   -0.004372
      3          1           0        1.104748    0.448424    0.834335
      4          1           0        0.973083    0.665363   -0.778426
      5          1           0        1.126368   -0.904266   -0.079207
      6          1           0       -1.260792    0.921830    0.072655
 ---------------------------------------------------------------------

 SCF Done:  E(RB2PLYPD3) =  -115.507622983     A.U. after   11 cycles
 E2(B2PLYPD3) =    -0.1516514966D+00 E(B2PLYPD3) =    -0.11565927447970D+03

 The electronic state is 1-A.
 Alpha  occ. eigenvalues --  -19.74196 -10.63770  -1.11845  -0.79189  -0.55807
 Alpha  occ. eigenvalues --   -0.51576  -0.49093  -0.40711  -0.34990
 Alpha virt. eigenvalues --    0.02494   0.07471   0.12544   0.12909   0.14849
 Alpha virt. eigenvalues --    0.17462   0.18249   0.26618   0.29535   0.32769
 Alpha virt. eigenvalues --    0.33904   0.39039   0.39591   0.41940   0.43857

 Mulliken charges:
               1
     1  C    0.091468
     2  O   -0.504542
     3  H    0.045267
     4  H    0.043022
     5  H    0.069555
     6  H    0.255231
 Sum of Mulliken charges =   0.00000

 Dipole moment (field-independent basis, Debye):
    X=              0.9270    Y=              1.6788    Z=              0.1367  Tot=              1.9226
 Quadrupole moment (field-independent basis, Debye-Ang):
   XX=            -12.5454   YY=            -11.8642   ZZ=            -14.0936
   XY=             -2.5621   XZ=             -0.0427   YZ=              0.0737

 Normal termination of Gaussian 09 at Wed Aug 26 14:21:39 2020.
