 Gaussian 09, Revision D.01,
 Gaussian 09:  ES64L-G09RevD.01 24-Apr-2013

 --------------------
 #p B2PLYPD3/Def2QZVP
 --------------------

 --------
 methanol
 --------
 Symbolic Z-matrix:
 Charge =  0 Multiplicity = 1

                         Standard orientation:
 ---------------------------------------------------------------------
 Center     Atomic      Atomic             Coordinates (Angstroms)
 Number     Number       Type             X           Y           Z
 ---------------------------------------------------------------------
      1          6           0       -0.676822   -0.011831    0.003505
      2          8           0        0.754791    0.106019   -0.008695
      3          1           0       -1.038555   -0.452902    0.956280
      4          1           0       -1.006733   -0.632946   -0.893253
      5          1           0       -1.056273    0.982742   -0.081136
      6          1           0        1.124165   -0.674057    0.066643
 ---------------------------------------------------------------------

 SCF Done:  E(RB2PLYPD3) =  -115.542018142     A.U. after   10 cycles
 E2(B2PLYPD3) =    -0.1459639779D+00 E(B2PLYPD3) =    -0.11568798212003D+03

 The electronic state is 1-A.
 Alpha  occ. eigenvalues --  -19.71460 -10.66448  -1.17765  -0.79469  -0.59296
 Alpha  occ. eigenvalues --   -0.51443  -0.50324  -0.41284  -0.35534
 Alpha virt. eigenvalues --    0.05320   0.08582   0.12042   0.12469   0.14569
 Alpha virt. eigenvalues --    0.17093   0.17989   0.29031   0.32495   0.33252
 Alpha virt. eigenvalues --    0.36991   0.39180   0.39826   0.40436   0.43584

 Mulliken charges:
               1
     1  C    0.067920
     2  O   -0.422456
     3  H    0.051430
     4  H    0.047384
     5  H    0.079081
     6  H    0.176641
 Sum of Mulliken charges =   0.00000

 Dipole moment (field-independent basis, Debye):
    X=             -0.9523    Y=             -1.3624    Z=              0.1590  Tot=              1.6698
 Quadrupole moment (field-independent basis, Debye-Ang):
   XX=            -13.0903   YY=            -12.3457   ZZ=            -13.6300
   XY=             -2.2006   XZ=              0.1382   YZ=             -0.1118

 Normal termination of Gaussian 09 at Wed Aug 26 10:02:58 2020.
