 Gaussian 09, Revision D.01,
 Gaussian 09:  ES64L-G09RevD.01 24-Apr-2013

 --------------------
 #p B2PLYPD3/Def2QZVP
 --------------------

 --------
 methanol
 --------
 Symbolic Z-matrix:
 Charge =  0 Multiplicity = 1

                         Standard orientation:
 ---------------------------------------------------------------------
 Center     Atomic      Atomic             Coordinates (Angstroms)
 Number     Number       Type             X           Y           Z
 ---------------------------------------------------------------------
      1          6           0       -0.675126   -0.028097    0.000749
      2          8           0        0.753653    0.085351   -0.020570
      3          1           0       -0.917398   -0.383842    1.081035
      4          1           0       -1.061084   -0.675670   -0.865774
      5          1           0       -1.098326    1.045403   -0.118706
      6          1           0        1.098339   -0.500121    0.063512
 ---------------------------------------------------------------------

 SCF Done:  E(RB2PLYPD3) =  -115.397738072     A.U. after   11 cycles
 E2(B2PLYPD3) =    -0.1439369344D+00 E(B2PLYPD3) =    -0.11554167500637D+03

 The electronic state is 1-A.
 Alpha  occ. eigenvalues --  -19.69230 -10.68535  -1.24269  -0.81319  -0.60982
 Alpha  occ. eigenvalues --   -0.52095  -0.49996  -0.40376  -0.36179
 Alpha virt. eigenvalues --    0.05356   0.09243   0.11636   0.12038   0.13891
 Alpha virt. eigenvalues --    0.16942   0.17932   0.28577   0.31745   0.33161
 Alpha virt. eigenvalues --    0.36112   0.38176   0.39063   0.40575   0.43231

 Mulliken charges:
               1
     1  C    0.054157
     2  O   -0.247301
     3  H    0.054359
     4  H    0.059374
     5  H    0.077379
     6  H    0.002032
 Sum of Mulliken charges =   0.00000

 Dipole moment (field-independent basis, Debye):
    X=             -0.9748    Y=             -1.1848    Z=              0.1629  Tot=              1.5429
 Quadrupole moment (field-independent basis, Debye-Ang):
   XX=            -13.1271   YY=            -12.6841   ZZ=            -13.3288
   XY=             -1.9687   XZ=              0.4478   YZ=             -0.0253

 Normal termination of Gaussian 09 at Wed Aug 26 15:27:44 2020.
