 Gaussian 09, Revision D.01,
 Gaussian 09:  ES64L-G09RevD.01 24-Apr-2013

 --------------------
 #p B2PLYPD3/Def2QZVP
 --------------------

 --------
 methanol
 --------
 Symbolic Z-matrix:
 Charge =  0 Multiplicity = 1

                         Standard orientation:
 ---------------------------------------------------------------------
 Center     Atomic      Atomic             Coordinates (Angstroms)
 Number     Number       Type             X           Y           Z
 ---------------------------------------------------------------------
      1          6           0        0.684286   -0.010484   -0.004117
      2          8           0       -0.755611    0.088347    0.003478
      3          1           0        1.068506   -0.532481   -0.912327
      4          1           0        0.981379   -0.615199    0.922095
      5          1           0        1.022158    1.076807    0.043261
      6          1           0       -1.132868   -0.572994   -0.056150
 ---------------------------------------------------------------------

 SCF Done:  E(RB2PLYPD3) =  -115.489717212     A.U. after   10 cycles
 E2(B2PLYPD3) =    -0.1447355411D+00 E(B2PLYPD3) =    -0.11563445275352D+03

 The electronic state is 1-A.
 Alpha  occ. eigenvalues --  -19.70062 -10.67694  -1.20612  -0.80416  -0.60655
 Alpha  occ. eigenvalues --   -0.51205  -0.49687  -0.41157  -0.35701
 Alpha virt. eigenvalues --    0.05394   0.08960   0.11883   0.12042   0.14677
 Alpha virt. eigenvalues --    0.16719   0.17606   0.29046   0.31773   0.33262
 Alpha virt. eigenvalues --    0.37700   0.38532   0.39499   0.40191   0.42173

 Mulliken charges:
               1
     1  C    0.062553
     2  O   -0.329991
     3  H    0.054941
     4  H    0.051442
     5  H    0.083052
     6  H    0.078003
 Sum of Mulliken charges =   0.00000

 Dipole moment (field-independent basis, Debye):
    X=              0.9543    Y=             -1.2962    Z=             -0.1446  Tot=              1.6161
 Quadrupole moment (field-independent basis, Debye-Ang):
   XX=            -13.0619   YY=            -12.3262   ZZ=            -13.6482
   XY=              1.9684   XZ=              0.0446   YZ=              0.1044

 Normal termination of Gaussian 09 at Wed Aug 26 13:37:06 2020.
