 Gaussian 09, Revision D.01,
 Gaussian 09:  ES64L-G09RevD.01 24-Apr-2013

 --------------------
 #p B2PLYPD3/Def2QZVP
 --------------------

 --------
 methanol
 --------
 Symbolic Z-matrix:
 Charge =  0 Multiplicity = 1

                         Standard orientation:
 ---------------------------------------------------------------------
 Center     Atomic      Atomic             Coordinates (Angstroms)
 Number     Number       Type             X           Y           Z
 ---------------------------------------------------------------------
      1          6           0        0.672656    0.030521   -0.011335
      2          8           0       -0.753223   -0.197870    0.005828
      3          1           0        1.051755    0.480560    0.849380
      4          1           0        1.152372    0.467717   -0.743877
      5          1           0        1.066999   -0.758579   -0.026839
      6          1           0       -1.281277    1.210131   -0.057276
 ---------------------------------------------------------------------

 SCF Done:  E(RB2PLYPD3) =  -115.382911152     A.U. after   12 cycles
 E2(B2PLYPD3) =    -0.1587493252D+00 E(B2PLYPD3) =    -0.11554166047694D+03

 The electronic state is 1-A.
 Alpha  occ. eigenvalues --  -19.76301 -10.61262  -1.10811  -0.82141  -0.54265
 Alpha  occ. eigenvalues --   -0.52100  -0.48991  -0.39068  -0.35597
 Alpha virt. eigenvalues --   -0.03434   0.07180   0.12772   0.13010   0.14659
 Alpha virt. eigenvalues --    0.17412   0.18977   0.21073   0.29257   0.32895
 Alpha virt. eigenvalues --    0.34695   0.37960   0.39733   0.42465   0.44265

 Mulliken charges:
               1
     1  C    0.066422
     2  O   -0.470674
     3  H    0.044507
     4  H    0.041828
     5  H    0.090631
     6  H    0.227286
 Sum of Mulliken charges =   0.00000

 Dipole moment (field-independent basis, Debye):
    X=              1.1552    Y=              1.6672    Z=             -0.1329  Tot=              2.0326
 Quadrupole moment (field-independent basis, Debye-Ang):
   XX=            -12.6420   YY=            -11.4384   ZZ=            -14.0637
   XY=             -2.6215   XZ=             -0.0455   YZ=             -0.0771

 Normal termination of Gaussian 09 at Wed Aug 26 22:56:48 2020.
