 Gaussian 09, Revision D.01,
 Gaussian 09:  ES64L-G09RevD.01 24-Apr-2013

 --------------------
 #p B2PLYPD3/Def2QZVP
 --------------------

 --------
 methanol
 --------
 Symbolic Z-matrix:
 Charge =  0 Multiplicity = 1

                         Standard orientation:
 ---------------------------------------------------------------------
 Center     Atomic      Atomic             Coordinates (Angstroms)
 Number     Number       Type             X           Y           Z
 ---------------------------------------------------------------------
      1          6           0        0.671354    0.041039   -0.016843
      2          8           0       -0.736912   -0.176564    0.009280
      3          1           0        1.070898    0.443370    0.839852
      4          1           0        0.786703    0.647444   -0.756118
      5          1           0        1.212029   -0.869593   -0.103724
      6          1           0       -1.202457    0.945054    0.046808
 ---------------------------------------------------------------------

 SCF Done:  E(RB2PLYPD3) =  -115.491068108     A.U. after   11 cycles
 E2(B2PLYPD3) =    -0.1516044654D+00 E(B2PLYPD3) =    -0.11564267257308D+03

 The electronic state is 1-A.
 Alpha  occ. eigenvalues --  -19.74005 -10.62829  -1.12540  -0.79181  -0.56003
 Alpha  occ. eigenvalues --   -0.53584  -0.48963  -0.40128  -0.34919
 Alpha virt. eigenvalues --    0.02099   0.07619   0.12550   0.12882   0.14565
 Alpha virt. eigenvalues --    0.17721   0.18275   0.25921   0.29550   0.32260
 Alpha virt. eigenvalues --    0.33918   0.39551   0.40558   0.42949   0.43172

 Mulliken charges:
               1
     1  C    0.091315
     2  O   -0.497484
     3  H    0.041672
     4  H    0.051394
     5  H    0.061845
     6  H    0.251258
 Sum of Mulliken charges =   0.00000

 Dipole moment (field-independent basis, Debye):
    X=              0.9665    Y=              1.7526    Z=              0.0233  Tot=              2.0016
 Quadrupole moment (field-independent basis, Debye-Ang):
   XX=            -12.8560   YY=            -11.8307   ZZ=            -13.9066
   XY=             -2.6216   XZ=              0.1118   YZ=             -0.0478

 Normal termination of Gaussian 09 at Wed Aug 26 23:46:13 2020.
