 Gaussian 09, Revision D.01,
 Gaussian 09:  ES64L-G09RevD.01 24-Apr-2013

 --------------------
 #p B2PLYPD3/Def2QZVP
 --------------------

 --------
 methanol
 --------
 Symbolic Z-matrix:
 Charge =  0 Multiplicity = 1

                         Standard orientation:
 ---------------------------------------------------------------------
 Center     Atomic      Atomic             Coordinates (Angstroms)
 Number     Number       Type             X           Y           Z
 ---------------------------------------------------------------------
      1          6           0       -0.662910   -0.020825   -0.002247
      2          8           0        0.740238    0.105260    0.000465
      3          1           0       -1.004630   -0.541100    0.926269
      4          1           0       -0.957093   -0.596796   -0.906207
      5          1           0       -1.102971    1.031085   -0.028375
      6          1           0        1.120249   -0.610317    0.018075
 ---------------------------------------------------------------------

 SCF Done:  E(RB2PLYPD3) =  -115.521953203     A.U. after   10 cycles
 E2(B2PLYPD3) =    -0.1448292425D+00 E(B2PLYPD3) =    -0.11566678244594D+03

 The electronic state is 1-A.
 Alpha  occ. eigenvalues --  -19.70772 -10.66900  -1.20161  -0.79860  -0.60615
 Alpha  occ. eigenvalues --   -0.52129  -0.50218  -0.40716  -0.35537
 Alpha virt. eigenvalues --    0.05382   0.08921   0.12144   0.12176   0.14634
 Alpha virt. eigenvalues --    0.17166   0.17668   0.29000   0.32921   0.33505
 Alpha virt. eigenvalues --    0.37455   0.38815   0.40040   0.40296   0.43331

 Mulliken charges:
               1
     1  C    0.066154
     2  O   -0.366604
     3  H    0.047732
     4  H    0.048882
     5  H    0.073743
     6  H    0.130093
 Sum of Mulliken charges =   0.00000

 Dipole moment (field-independent basis, Debye):
    X=             -0.8344    Y=             -1.3630    Z=              0.0270  Tot=              1.5984
 Quadrupole moment (field-independent basis, Debye-Ang):
   XX=            -13.0790   YY=            -12.4161   ZZ=            -13.6348
   XY=             -2.1352   XZ=              0.0125   YZ=             -0.0114

 Normal termination of Gaussian 09 at Thu Aug 27 00:15:03 2020.
