 Gaussian 09, Revision D.01,
 Gaussian 09:  ES64L-G09RevD.01 24-Apr-2013

 --------------------
 #p B2PLYPD3/Def2QZVP
 --------------------

 --------
 methanol
 --------
 Symbolic Z-matrix:
 Charge =  0 Multiplicity = 1

                         Standard orientation:
 ---------------------------------------------------------------------
 Center     Atomic      Atomic             Coordinates (Angstroms)
 Number     Number       Type             X           Y           Z
 ---------------------------------------------------------------------
      1          6           0        0.668113   -0.046767    0.002435
      2          8           0       -0.779309    0.083067   -0.008206
      3          1           0        1.051807   -0.783121   -0.764597
      4          1           0        1.140897   -0.237569    0.994671
      5          1           0        1.094293    1.148607   -0.269788
      6          1           0       -1.061203   -0.511848    0.090752
 ---------------------------------------------------------------------

 SCF Done:  E(RB2PLYPD3) =  -115.353950531     A.U. after   11 cycles
 E2(B2PLYPD3) =    -0.1446983779D+00 E(B2PLYPD3) =    -0.11549864890858D+03

 The electronic state is 1-A.
 Alpha  occ. eigenvalues --  -19.70026 -10.69299  -1.25708  -0.80587  -0.62301
 Alpha  occ. eigenvalues --   -0.51959  -0.48298  -0.40567  -0.37085
 Alpha virt. eigenvalues --    0.05018   0.08881   0.10874   0.12020   0.14677
 Alpha virt. eigenvalues --    0.16894   0.18329   0.28341   0.30602   0.32995
 Alpha virt. eigenvalues --    0.33835   0.38471   0.39159   0.40539   0.42298

 Mulliken charges:
               1
     1  C    0.038385
     2  O   -0.222700
     3  H    0.066606
     4  H    0.069632
     5  H    0.054412
     6  H   -0.006335
 Sum of Mulliken charges =   0.00000

 Dipole moment (field-independent basis, Debye):
    X=              1.0654    Y=             -1.3576    Z=              0.2539  Tot=              1.7443
 Quadrupole moment (field-independent basis, Debye-Ang):
   XX=            -13.1192   YY=            -12.5886   ZZ=            -13.6247
   XY=              1.6273   XZ=             -0.1454   YZ=              0.0030

 Normal termination of Gaussian 09 at Wed Aug 26 21:21:57 2020.
