 Gaussian 09, Revision D.01,
 Gaussian 09:  ES64L-G09RevD.01 24-Apr-2013

 --------------------
 #p B2PLYPD3/Def2QZVP
 --------------------

 --------
 methanol
 --------
 Symbolic Z-matrix:
 Charge =  0 Multiplicity = 1

                         Standard orientation:
 ---------------------------------------------------------------------
 Center     Atomic      Atomic             Coordinates (Angstroms)
 Number     Number       Type             X           Y           Z
 ---------------------------------------------------------------------
      1          6           0       -0.648435    0.011478    0.013264
      2          8           0        0.732847   -0.072962   -0.043659
      3          1           0       -0.905359    1.142207   -0.377361
      4          1           0       -1.117666   -0.297617    1.001388
      5          1           0       -0.976553   -0.754845   -0.723161
      6          1           0        1.027408    0.425090    0.368824
 ---------------------------------------------------------------------

 SCF Done:  E(RB2PLYPD3) =  -115.430194925     A.U. after   11 cycles
 E2(B2PLYPD3) =    -0.1439007974D+00 E(B2PLYPD3) =    -0.11557409572197D+03

 The electronic state is 1-A.
 Alpha  occ. eigenvalues --  -19.70050 -10.67862  -1.25099  -0.81192  -0.61404
 Alpha  occ. eigenvalues --   -0.52475  -0.50735  -0.40908  -0.35727
 Alpha virt. eigenvalues --    0.05308   0.09217   0.11512   0.12271   0.14266
 Alpha virt. eigenvalues --    0.16788   0.18195   0.28371   0.32022   0.34167
 Alpha virt. eigenvalues --    0.35580   0.38455   0.40216   0.41581   0.43359

 Mulliken charges:
               1
     1  C    0.037598
     2  O   -0.235418
     3  H    0.035465
     4  H    0.054705
     5  H    0.076682
     6  H    0.030967
 Sum of Mulliken charges =   0.00000

 Dipole moment (field-independent basis, Debye):
    X=             -0.7960    Y=              0.8492    Z=              0.7989  Tot=              1.4117
 Quadrupole moment (field-independent basis, Debye-Ang):
   XX=            -13.5019   YY=            -12.8424   ZZ=            -13.1456
   XY=              1.7029   XZ=              1.0022   YZ=              0.4175

 Normal termination of Gaussian 09 at Wed Aug 26 19:07:14 2020.
