 Gaussian 09, Revision D.01,
 Gaussian 09:  ES64L-G09RevD.01 24-Apr-2013

 --------------------
 #p B2PLYPD3/Def2QZVP
 --------------------

 --------
 methanol
 --------
 Symbolic Z-matrix:
 Charge =  0 Multiplicity = 1

                         Standard orientation:
 ---------------------------------------------------------------------
 Center     Atomic      Atomic             Coordinates (Angstroms)
 Number     Number       Type             X           Y           Z
 ---------------------------------------------------------------------
      1          6           0       -0.684839    0.001753    0.015126
      2          8           0        0.758496   -0.080534   -0.035806
      3          1           0       -1.045401    0.900878   -0.707653
      4          1           0       -1.001150    0.145011    1.067694
      5          1           0       -1.032352   -0.949866   -0.368265
      6          1           0        1.119969    0.537731    0.203917
 ---------------------------------------------------------------------

 SCF Done:  E(RB2PLYPD3) =  -115.480646812     A.U. after   11 cycles
 E2(B2PLYPD3) =    -0.1446657349D+00 E(B2PLYPD3) =    -0.11562531254646D+03

 The electronic state is 1-A.
 Alpha  occ. eigenvalues --  -19.70030 -10.67719  -1.20941  -0.80707  -0.60244
 Alpha  occ. eigenvalues --   -0.51249  -0.50467  -0.41094  -0.35762
 Alpha virt. eigenvalues --    0.05405   0.08952   0.11660   0.12316   0.14306
 Alpha virt. eigenvalues --    0.16826   0.17828   0.28849   0.31632   0.32834
 Alpha virt. eigenvalues --    0.36228   0.39390   0.40207   0.40256   0.42853

 Mulliken charges:
               1
     1  C    0.061640
     2  O   -0.322152
     3  H    0.042859
     4  H    0.059819
     5  H    0.087649
     6  H    0.070185
 Sum of Mulliken charges =   0.00000

 Dipole moment (field-independent basis, Debye):
    X=             -0.9886    Y=              1.1063    Z=              0.5314  Tot=              1.5759
 Quadrupole moment (field-independent basis, Debye-Ang):
   XX=            -13.1127   YY=            -12.6029   ZZ=            -13.3636
   XY=              1.9769   XZ=              0.6746   YZ=              0.3599

 Normal termination of Gaussian 09 at Wed Aug 26 10:50:32 2020.
