 Gaussian 09, Revision D.01,
 Gaussian 09:  ES64L-G09RevD.01 24-Apr-2013

 --------------------
 #p B2PLYPD3/Def2QZVP
 --------------------

 --------
 methanol
 --------
 Symbolic Z-matrix:
 Charge =  0 Multiplicity = 1

                         Standard orientation:
 ---------------------------------------------------------------------
 Center     Atomic      Atomic             Coordinates (Angstroms)
 Number     Number       Type             X           Y           Z
 ---------------------------------------------------------------------
      1          6           0        0.633506    0.016166   -0.012845
      2          8           0       -0.717832   -0.164447   -0.007565
      3          1           0        1.082908    0.434075    0.827056
      4          1           0        0.857398    0.717417   -0.768186
      5          1           0        1.158197   -0.869673   -0.060703
      6          1           0       -1.156889    0.936762    0.139424
 ---------------------------------------------------------------------

 SCF Done:  E(RB2PLYPD3) =  -115.502981371     A.U. after   11 cycles
 E2(B2PLYPD3) =    -0.1506381699D+00 E(B2PLYPD3) =    -0.11565361954129D+03

 The electronic state is 1-A.
 Alpha  occ. eigenvalues --  -19.74240 -10.63203  -1.15112  -0.78364  -0.57203
 Alpha  occ. eigenvalues --   -0.53340  -0.49976  -0.40216  -0.34215
 Alpha virt. eigenvalues --    0.02100   0.07760   0.12649   0.12904   0.15062
 Alpha virt. eigenvalues --    0.17541   0.18613   0.26267   0.29654   0.32502
 Alpha virt. eigenvalues --    0.35867   0.39439   0.39955   0.42995   0.44038

 Mulliken charges:
               1
     1  C    0.087294
     2  O   -0.467894
     3  H    0.027200
     4  H    0.030833
     5  H    0.064176
     6  H    0.258390
 Sum of Mulliken charges =   0.00000

 Dipole moment (field-independent basis, Debye):
    X=              0.7514    Y=              1.6775    Z=              0.2621  Tot=              1.8567
 Quadrupole moment (field-independent basis, Debye-Ang):
   XX=            -13.0073   YY=            -11.7851   ZZ=            -14.1038
   XY=             -2.5614   XZ=             -0.0700   YZ=              0.1226

 Normal termination of Gaussian 09 at Wed Aug 26 21:51:50 2020.
