 Gaussian 09, Revision D.01,
 Gaussian 09:  ES64L-G09RevD.01 24-Apr-2013

 --------------------
 #p B2PLYPD3/Def2QZVP
 --------------------

 --------
 methanol
 --------
 Symbolic Z-matrix:
 Charge =  0 Multiplicity = 1

                         Standard orientation:
 ---------------------------------------------------------------------
 Center     Atomic      Atomic             Coordinates (Angstroms)
 Number     Number       Type             X           Y           Z
 ---------------------------------------------------------------------
      1          6           0        0.665859   -0.022108    0.002090
      2          8           0       -0.756785    0.101096   -0.005507
      3          1           0        1.034758   -0.638534   -0.872951
      4          1           0        1.079058   -0.473754    0.929544
      5          1           0        1.092159    1.059644   -0.076011
      6          1           0       -1.146848   -0.623470    0.050937
 ---------------------------------------------------------------------

 SCF Done:  E(RB2PLYPD3) =  -115.525703015     A.U. after   10 cycles
 E2(B2PLYPD3) =    -0.1456027760D+00 E(B2PLYPD3) =    -0.11567130579083D+03

 The electronic state is 1-A.
 Alpha  occ. eigenvalues --  -19.71363 -10.67486  -1.19306  -0.79449  -0.60588
 Alpha  occ. eigenvalues --   -0.51260  -0.49406  -0.40825  -0.35827
 Alpha virt. eigenvalues --    0.05344   0.08574   0.11949   0.12235   0.14827
 Alpha virt. eigenvalues --    0.17072   0.18003   0.28993   0.32753   0.33407
 Alpha virt. eigenvalues --    0.36688   0.38578   0.39517   0.39961   0.42203

 Mulliken charges:
               1
     1  C    0.060506
     2  O   -0.380228
     3  H    0.050325
     4  H    0.054114
     5  H    0.070578
     6  H    0.144706
 Sum of Mulliken charges =   0.00000

 Dipole moment (field-independent basis, Debye):
    X=              0.8592    Y=             -1.3865    Z=              0.1285  Tot=              1.6362
 Quadrupole moment (field-independent basis, Debye-Ang):
   XX=            -12.8883   YY=            -12.4713   ZZ=            -13.7828
   XY=              2.0566   XZ=             -0.0881   YZ=             -0.0708

 Normal termination of Gaussian 09 at Wed Aug 26 10:12:03 2020.
