 Gaussian 09, Revision D.01,
 Gaussian 09:  ES64L-G09RevD.01 24-Apr-2013

 --------------------
 #p B2PLYPD3/Def2QZVP
 --------------------

 --------
 methanol
 --------
 Symbolic Z-matrix:
 Charge =  0 Multiplicity = 1

                         Standard orientation:
 ---------------------------------------------------------------------
 Center     Atomic      Atomic             Coordinates (Angstroms)
 Number     Number       Type             X           Y           Z
 ---------------------------------------------------------------------
      1          6           0        0.671056    0.033419    0.006502
      2          8           0       -0.744803   -0.157544   -0.007714
      3          1           0        0.943234    0.423703    0.891585
      4          1           0        1.005119    0.572261   -0.814167
      5          1           0        1.103677   -0.888898   -0.070186
      6          1           0       -1.119943    0.952777    0.015465
 ---------------------------------------------------------------------

 SCF Done:  E(RB2PLYPD3) =  -115.509929250     A.U. after   11 cycles
 E2(B2PLYPD3) =    -0.1509427421D+00 E(B2PLYPD3) =    -0.11566087199234D+03

 The electronic state is 1-A.
 Alpha  occ. eigenvalues --  -19.73901 -10.62998  -1.12887  -0.79201  -0.55797
 Alpha  occ. eigenvalues --   -0.53739  -0.49103  -0.40653  -0.35337
 Alpha virt. eigenvalues --    0.02879   0.07856   0.12470   0.12770   0.14534
 Alpha virt. eigenvalues --    0.17673   0.18295   0.27133   0.29464   0.33339
 Alpha virt. eigenvalues --    0.33839   0.39335   0.40802   0.43184   0.43486

 Mulliken charges:
               1
     1  C    0.091814
     2  O   -0.495406
     3  H    0.050078
     4  H    0.044605
     5  H    0.059371
     6  H    0.249538
 Sum of Mulliken charges =   0.00000

 Dipole moment (field-independent basis, Debye):
    X=              1.0815    Y=              1.6645    Z=              0.0527  Tot=              1.9858
 Quadrupole moment (field-independent basis, Debye-Ang):
   XX=            -13.2711   YY=            -11.8220   ZZ=            -13.6761
   XY=             -2.3866   XZ=             -0.0960   YZ=              0.0328

 Normal termination of Gaussian 09 at Wed Aug 26 11:38:25 2020.
