 Gaussian 09, Revision D.01,
 Gaussian 09:  ES64L-G09RevD.01 24-Apr-2013

 --------------------
 #p B2PLYPD3/Def2QZVP
 --------------------

 --------
 methanol
 --------
 Symbolic Z-matrix:
 Charge =  0 Multiplicity = 1

                         Standard orientation:
 ---------------------------------------------------------------------
 Center     Atomic      Atomic             Coordinates (Angstroms)
 Number     Number       Type             X           Y           Z
 ---------------------------------------------------------------------
      1          6           0        0.660536    0.038801   -0.014877
      2          8           0       -0.738612   -0.166391    0.004507
      3          1           0        1.020253    0.496264    0.847977
      4          1           0        0.947083    0.550523   -0.790421
      5          1           0        1.174057   -0.887448   -0.015260
      6          1           0       -1.195716    0.938982    0.010911
 ---------------------------------------------------------------------

 SCF Done:  E(RB2PLYPD3) =  -115.502291407     A.U. after   11 cycles
 E2(B2PLYPD3) =    -0.1510694762D+00 E(B2PLYPD3) =    -0.11565336088341D+03

 The electronic state is 1-A.
 Alpha  occ. eigenvalues --  -19.74168 -10.62952  -1.13045  -0.79272  -0.55991
 Alpha  occ. eigenvalues --   -0.53164  -0.49498  -0.40208  -0.35212
 Alpha virt. eigenvalues --    0.02427   0.07645   0.12686   0.12863   0.14761
 Alpha virt. eigenvalues --    0.17875   0.18341   0.26396   0.29534   0.33387
 Alpha virt. eigenvalues --    0.34236   0.39479   0.40206   0.42672   0.43946

 Mulliken charges:
               1
     1  C    0.094495
     2  O   -0.493727
     3  H    0.042129
     4  H    0.046194
     5  H    0.056975
     6  H    0.253934
 Sum of Mulliken charges =   0.00000

 Dipole moment (field-independent basis, Debye):
    X=              0.9281    Y=              1.7270    Z=             -0.0311  Tot=              1.9608
 Quadrupole moment (field-independent basis, Debye-Ang):
   XX=            -12.8297   YY=            -11.9152   ZZ=            -13.8592
   XY=             -2.5061   XZ=             -0.0040   YZ=             -0.0752

 Normal termination of Gaussian 09 at Wed Aug 26 15:56:06 2020.
