 Gaussian 09, Revision D.01,
 Gaussian 09:  ES64L-G09RevD.01 24-Apr-2013

 --------------------
 #p B2PLYPD3/Def2QZVP
 --------------------

 --------
 methanol
 --------
 Symbolic Z-matrix:
 Charge =  0 Multiplicity = 1

                         Standard orientation:
 ---------------------------------------------------------------------
 Center     Atomic      Atomic             Coordinates (Angstroms)
 Number     Number       Type             X           Y           Z
 ---------------------------------------------------------------------
      1          6           0        0.682647    0.016841    0.003073
      2          8           0       -0.751679   -0.155539   -0.006362
      3          1           0        1.062664    0.402706    0.835864
      4          1           0        0.931632    0.683174   -0.773763
      5          1           0        1.069617   -0.903854   -0.113814
      6          1           0       -1.146362    0.961245    0.084171
 ---------------------------------------------------------------------

 SCF Done:  E(RB2PLYPD3) =  -115.503285831     A.U. after   11 cycles
 E2(B2PLYPD3) =    -0.1514947479D+00 E(B2PLYPD3) =    -0.11565478057885D+03

 The electronic state is 1-A.
 Alpha  occ. eigenvalues --  -19.74018 -10.63060  -1.12151  -0.79512  -0.56441
 Alpha  occ. eigenvalues --   -0.52408  -0.48741  -0.41305  -0.35043
 Alpha virt. eigenvalues --    0.02601   0.07781   0.12488   0.12767   0.14804
 Alpha virt. eigenvalues --    0.17359   0.18045   0.26797   0.29634   0.32605
 Alpha virt. eigenvalues --    0.33927   0.38985   0.40107   0.42545   0.44506

 Mulliken charges:
               1
     1  C    0.097868
     2  O   -0.500236
     3  H    0.045002
     4  H    0.040228
     5  H    0.068798
     6  H    0.248339
 Sum of Mulliken charges =   0.00000

 Dipole moment (field-independent basis, Debye):
    X=              1.1019    Y=              1.6778    Z=              0.1766  Tot=              2.0150
 Quadrupole moment (field-independent basis, Debye-Ang):
   XX=            -13.1741   YY=            -11.5915   ZZ=            -13.9237
   XY=             -2.3777   XZ=             -0.0134   YZ=              0.1316

 Normal termination of Gaussian 09 at Wed Aug 26 11:40:03 2020.
