 Gaussian 09, Revision D.01,
 Gaussian 09:  ES64L-G09RevD.01 24-Apr-2013

 --------------------
 #p B2PLYPD3/Def2QZVP
 --------------------

 --------
 methanol
 --------
 Symbolic Z-matrix:
 Charge =  0 Multiplicity = 1

                         Standard orientation:
 ---------------------------------------------------------------------
 Center     Atomic      Atomic             Coordinates (Angstroms)
 Number     Number       Type             X           Y           Z
 ---------------------------------------------------------------------
      1          6           0       -0.684450    0.015413   -0.008435
      2          8           0        0.746504   -0.159086    0.001327
      3          1           0       -1.022568    0.523481   -0.837495
      4          1           0       -0.973084    0.580567    0.850840
      5          1           0       -1.125561   -0.847362    0.043878
      6          1           0        1.255882    0.923526   -0.017225
 ---------------------------------------------------------------------

 SCF Done:  E(RB2PLYPD3) =  -115.501859723     A.U. after   11 cycles
 E2(B2PLYPD3) =    -0.1513104253D+00 E(B2PLYPD3) =    -0.11565317014854D+03

 The electronic state is 1-A.
 Alpha  occ. eigenvalues --  -19.73879 -10.63224  -1.11844  -0.79512  -0.55646
 Alpha  occ. eigenvalues --   -0.51718  -0.50269  -0.40433  -0.34830
 Alpha virt. eigenvalues --    0.02473   0.07629   0.12673   0.12900   0.14630
 Alpha virt. eigenvalues --    0.17660   0.18108   0.26661   0.29595   0.32976
 Alpha virt. eigenvalues --    0.33536   0.38921   0.41438   0.41825   0.43540

 Mulliken charges:
               1
     1  C    0.092689
     2  O   -0.509621
     3  H    0.046522
     4  H    0.041674
     5  H    0.072304
     6  H    0.256431
 Sum of Mulliken charges =   0.00000

 Dipole moment (field-independent basis, Debye):
    X=             -0.9344    Y=              1.6401    Z=             -0.0483  Tot=              1.8882
 Quadrupole moment (field-independent basis, Debye-Ang):
   XX=            -12.5991   YY=            -11.9040   ZZ=            -13.9083
   XY=              2.6731   XZ=              0.0218   YZ=             -0.0728

 Normal termination of Gaussian 09 at Wed Aug 26 14:44:38 2020.
