 Gaussian 09, Revision D.01,
 Gaussian 09:  ES64L-G09RevD.01 24-Apr-2013

 --------------------
 #p B2PLYPD3/Def2QZVP
 --------------------

 --------
 methanol
 --------
 Symbolic Z-matrix:
 Charge =  0 Multiplicity = 1

                         Standard orientation:
 ---------------------------------------------------------------------
 Center     Atomic      Atomic             Coordinates (Angstroms)
 Number     Number       Type             X           Y           Z
 ---------------------------------------------------------------------
      1          6           0       -0.667220   -0.020154    0.003764
      2          8           0        0.743637    0.132908   -0.007501
      3          1           0       -0.975373   -0.502828    0.881631
      4          1           0       -1.018497   -0.568071   -0.858287
      5          1           0       -1.068317    0.953855   -0.013610
      6          1           0        1.116409   -0.825294    0.027685
 ---------------------------------------------------------------------

 SCF Done:  E(RB2PLYPD3) =  -115.545668062     A.U. after   10 cycles
 E2(B2PLYPD3) =    -0.1482243213D+00 E(B2PLYPD3) =    -0.11569389238336D+03

 The electronic state is 1-A.
 Alpha  occ. eigenvalues --  -19.72941 -10.64441  -1.14963  -0.78739  -0.57890
 Alpha  occ. eigenvalues --   -0.52378  -0.49742  -0.41294  -0.35222
 Alpha virt. eigenvalues --    0.04469   0.08192   0.12453   0.12553   0.14851
 Alpha virt. eigenvalues --    0.17363   0.18032   0.29168   0.32314   0.33314
 Alpha virt. eigenvalues --    0.34152   0.39267   0.40294   0.41658   0.44292

 Mulliken charges:
               1
     1  C    0.078100
     2  O   -0.477077
     3  H    0.046922
     4  H    0.044480
     5  H    0.069041
     6  H    0.238534
 Sum of Mulliken charges =   0.00000

 Dipole moment (field-independent basis, Debye):
    X=             -0.9516    Y=             -1.5702    Z=              0.0888  Tot=              1.8382
 Quadrupole moment (field-independent basis, Debye-Ang):
   XX=            -13.2092   YY=            -11.9922   ZZ=            -13.7534
   XY=             -2.2852   XZ=              0.0768   YZ=             -0.0533

 Normal termination of Gaussian 09 at Wed Aug 26 10:20:59 2020.
