 Gaussian 09, Revision D.01,
 Gaussian 09:  ES64L-G09RevD.01 24-Apr-2013

 --------------------
 #p B2PLYPD3/Def2QZVP
 --------------------

 --------
 methanol
 --------
 Symbolic Z-matrix:
 Charge =  0 Multiplicity = 1

                         Standard orientation:
 ---------------------------------------------------------------------
 Center     Atomic      Atomic             Coordinates (Angstroms)
 Number     Number       Type             X           Y           Z
 ---------------------------------------------------------------------
      1          6           0        0.654344    0.051092    0.011327
      2          8           0       -0.743079   -0.184590   -0.012113
      3          1           0        0.972355    0.406982    0.806571
      4          1           0        0.980384    0.579455   -0.787202
      5          1           0        1.210945   -0.870663   -0.050094
      6          1           0       -1.145117    1.054396    0.059669
 ---------------------------------------------------------------------

 SCF Done:  E(RB2PLYPD3) =  -115.459971084     A.U. after   11 cycles
 E2(B2PLYPD3) =    -0.1535660715D+00 E(B2PLYPD3) =    -0.11561353715529D+03

 The electronic state is 1-A.
 Alpha  occ. eigenvalues --  -19.75064 -10.62315  -1.12457  -0.79980  -0.54801
 Alpha  occ. eigenvalues --   -0.54027  -0.49112  -0.39405  -0.35685
 Alpha virt. eigenvalues --    0.00448   0.07465   0.12662   0.12783   0.14495
 Alpha virt. eigenvalues --    0.18253   0.18573   0.23685   0.29305   0.33583
 Alpha virt. eigenvalues --    0.34171   0.38611   0.40373   0.42356   0.44719

 Mulliken charges:
               1
     1  C    0.098547
     2  O   -0.485676
     3  H    0.052765
     4  H    0.044898
     5  H    0.042599
     6  H    0.246867
 Sum of Mulliken charges =   0.00000

 Dipole moment (field-independent basis, Debye):
    X=              1.0798    Y=              1.8093    Z=              0.1607  Tot=              2.1131
 Quadrupole moment (field-independent basis, Debye-Ang):
   XX=            -13.1534   YY=            -11.7248   ZZ=            -13.8255
   XY=             -2.3862   XZ=             -0.0572   YZ=              0.0861

 Normal termination of Gaussian 09 at Wed Aug 26 23:54:56 2020.
