 Gaussian 09, Revision D.01,
 Gaussian 09:  ES64L-G09RevD.01 24-Apr-2013

 --------------------
 #p B2PLYPD3/Def2QZVP
 --------------------

 --------
 methanol
 --------
 Symbolic Z-matrix:
 Charge =  0 Multiplicity = 1

                         Standard orientation:
 ---------------------------------------------------------------------
 Center     Atomic      Atomic             Coordinates (Angstroms)
 Number     Number       Type             X           Y           Z
 ---------------------------------------------------------------------
      1          6           0        0.662875    0.029924    0.022738
      2          8           0       -0.728585   -0.041646   -0.053379
      3          1           0        0.781580   -0.150982    1.160878
      4          1           0        1.044706    1.070208   -0.438375
      5          1           0        1.130689   -0.987469   -0.594030
      6          1           0       -1.105548    0.221866    0.162130
 ---------------------------------------------------------------------

 SCF Done:  E(RB2PLYPD3) =  -114.800735252     A.U. after   12 cycles
 E2(B2PLYPD3) =    -0.1433007110D+00 E(B2PLYPD3) =    -0.11494403596321D+03

 The electronic state is 1-A.
 Alpha  occ. eigenvalues --  -19.67772 -10.70833  -1.32581  -0.86646  -0.61694
 Alpha  occ. eigenvalues --   -0.53011  -0.50223  -0.38033  -0.36253
 Alpha virt. eigenvalues --    0.04721   0.09868   0.11140   0.11650   0.13433
 Alpha virt. eigenvalues --    0.16418   0.17483   0.28292   0.31756   0.32253
 Alpha virt. eigenvalues --    0.32916   0.36697   0.38705   0.41001   0.43607

 Mulliken charges:
               1
     1  C    0.059209
     2  O   -0.047761
     3  H    0.057700
     4  H    0.061210
     5  H    0.070994
     6  H   -0.201352
 Sum of Mulliken charges =   0.00000

 Dipole moment (field-independent basis, Debye):
    X=              0.7738    Y=              0.7274    Z=              0.6444  Tot=              1.2423
 Quadrupole moment (field-independent basis, Debye-Ang):
   XX=            -12.9878   YY=            -12.7899   ZZ=            -13.1724
   XY=             -1.1693   XZ=             -1.2215   YZ=              0.0642

 Normal termination of Gaussian 09 at Wed Aug 26 21:41:48 2020.
