 Gaussian 09, Revision D.01,
 Gaussian 09:  ES64L-G09RevD.01 24-Apr-2013

 --------------------
 #p B2PLYPD3/Def2QZVP
 --------------------

 --------
 methanol
 --------
 Symbolic Z-matrix:
 Charge =  0 Multiplicity = 1

                         Standard orientation:
 ---------------------------------------------------------------------
 Center     Atomic      Atomic             Coordinates (Angstroms)
 Number     Number       Type             X           Y           Z
 ---------------------------------------------------------------------
      1          6           0       -0.667513   -0.024385    0.003270
      2          8           0        0.742544    0.102934   -0.013839
      3          1           0       -0.959303   -0.444129    0.984685
      4          1           0       -1.037767   -0.643718   -0.867341
      5          1           0       -1.078572    1.023706   -0.076504
      6          1           0        1.140369   -0.613021    0.050250
 ---------------------------------------------------------------------

 SCF Done:  E(RB2PLYPD3) =  -115.526871297     A.U. after   10 cycles
 E2(B2PLYPD3) =    -0.1450959917D+00 E(B2PLYPD3) =    -0.11567196728826D+03

 The electronic state is 1-A.
 Alpha  occ. eigenvalues --  -19.70864 -10.66895  -1.19503  -0.79809  -0.60215
 Alpha  occ. eigenvalues --   -0.52108  -0.50070  -0.40506  -0.35640
 Alpha virt. eigenvalues --    0.05407   0.08820   0.12067   0.12284   0.14530
 Alpha virt. eigenvalues --    0.17030   0.17936   0.28987   0.32967   0.33366
 Alpha virt. eigenvalues --    0.37412   0.38990   0.39785   0.40350   0.43273

 Mulliken charges:
               1
     1  C    0.063590
     2  O   -0.380355
     3  H    0.052712
     4  H    0.050237
     5  H    0.073393
     6  H    0.140423
 Sum of Mulliken charges =   0.00000

 Dipole moment (field-independent basis, Debye):
    X=             -0.8306    Y=             -1.3444    Z=              0.1459  Tot=              1.5870
 Quadrupole moment (field-independent basis, Debye-Ang):
   XX=            -13.0008   YY=            -12.4987   ZZ=            -13.5732
   XY=             -2.1290   XZ=              0.2326   YZ=             -0.0601

 Normal termination of Gaussian 09 at Wed Aug 26 09:53:21 2020.
