 Gaussian 09, Revision D.01,
 Gaussian 09:  ES64L-G09RevD.01 24-Apr-2013

 --------------------
 #p B2PLYPD3/Def2QZVP
 --------------------

 --------
 methanol
 --------
 Symbolic Z-matrix:
 Charge =  0 Multiplicity = 1

                         Standard orientation:
 ---------------------------------------------------------------------
 Center     Atomic      Atomic             Coordinates (Angstroms)
 Number     Number       Type             X           Y           Z
 ---------------------------------------------------------------------
      1          6           0        0.669936    0.018224   -0.010868
      2          8           0       -0.746843   -0.134486    0.006408
      3          1           0        0.987996    0.576694    0.888537
      4          1           0        1.023404    0.506062   -0.863110
      5          1           0        1.092638   -0.935943    0.033111
      6          1           0       -1.148911    0.819737   -0.044593
 ---------------------------------------------------------------------

 SCF Done:  E(RB2PLYPD3) =  -115.543888144     A.U. after   10 cycles
 E2(B2PLYPD3) =    -0.1484505757D+00 E(B2PLYPD3) =    -0.11569233871956D+03

 The electronic state is 1-A.
 Alpha  occ. eigenvalues --  -19.73042 -10.64650  -1.14556  -0.78781  -0.57618
 Alpha  occ. eigenvalues --   -0.51906  -0.50016  -0.41137  -0.35137
 Alpha virt. eigenvalues --    0.04414   0.08054   0.12413   0.12647   0.14777
 Alpha virt. eigenvalues --    0.17437   0.18097   0.29172   0.32160   0.33100
 Alpha virt. eigenvalues --    0.33878   0.39135   0.40340   0.41408   0.44196

 Mulliken charges:
               1
     1  C    0.077903
     2  O   -0.481460
     3  H    0.042288
     4  H    0.048580
     5  H    0.070638
     6  H    0.242051
 Sum of Mulliken charges =   0.00000

 Dipole moment (field-independent basis, Debye):
    X=              0.9249    Y=              1.5538    Z=             -0.1350  Tot=              1.8133
 Quadrupole moment (field-independent basis, Debye-Ang):
   XX=            -13.0359   YY=            -12.0782   ZZ=            -13.7915
   XY=             -2.3822   XZ=              0.0163   YZ=             -0.1198

 Normal termination of Gaussian 09 at Thu Aug 27 00:08:05 2020.
