 Gaussian 09, Revision D.01,
 Gaussian 09:  ES64L-G09RevD.01 24-Apr-2013

 --------------------
 #p B2PLYPD3/Def2QZVP
 --------------------

 --------
 methanol
 --------
 Symbolic Z-matrix:
 Charge =  0 Multiplicity = 1

                         Standard orientation:
 ---------------------------------------------------------------------
 Center     Atomic      Atomic             Coordinates (Angstroms)
 Number     Number       Type             X           Y           Z
 ---------------------------------------------------------------------
      1          6           0        0.671589   -0.020591    0.004734
      2          8           0       -0.744963    0.119101   -0.003452
      3          1           0        0.990081   -0.575457   -0.905519
      4          1           0        0.959584   -0.518820    0.933721
      5          1           0        1.116065    0.959890   -0.031981
      6          1           0       -1.135563   -0.694877    0.002997
 ---------------------------------------------------------------------

 SCF Done:  E(RB2PLYPD3) =  -115.549390916     A.U. after   10 cycles
 E2(B2PLYPD3) =    -0.1462005247D+00 E(B2PLYPD3) =    -0.11569559144109D+03

 The electronic state is 1-A.
 Alpha  occ. eigenvalues --  -19.71659 -10.65875  -1.17124  -0.79189  -0.58913
 Alpha  occ. eigenvalues --   -0.52250  -0.50449  -0.40763  -0.35368
 Alpha virt. eigenvalues --    0.05224   0.08535   0.12130   0.12593   0.14450
 Alpha virt. eigenvalues --    0.17393   0.17893   0.29099   0.32962   0.33158
 Alpha virt. eigenvalues --    0.36280   0.39479   0.40216   0.40808   0.44227

 Mulliken charges:
               1
     1  C    0.072230
     2  O   -0.443542
     3  H    0.046529
     4  H    0.050920
     5  H    0.074416
     6  H    0.199447
 Sum of Mulliken charges =   0.00000

 Dipole moment (field-independent basis, Debye):
    X=              0.9030    Y=             -1.4264    Z=              0.0263  Tot=              1.6884
 Quadrupole moment (field-independent basis, Debye-Ang):
   XX=            -13.0416   YY=            -12.3689   ZZ=            -13.6061
   XY=              2.3271   XZ=             -0.0375   YZ=             -0.0294

 Normal termination of Gaussian 09 at Thu Aug 27 00:05:11 2020.
