 Gaussian 09, Revision D.01,
 Gaussian 09:  ES64L-G09RevD.01 24-Apr-2013

 --------------------
 #p B2PLYPD3/Def2QZVP
 --------------------

 --------
 methanol
 --------
 Symbolic Z-matrix:
 Charge =  0 Multiplicity = 1

                         Standard orientation:
 ---------------------------------------------------------------------
 Center     Atomic      Atomic             Coordinates (Angstroms)
 Number     Number       Type             X           Y           Z
 ---------------------------------------------------------------------
      1          6           0        0.625919   -0.010760    0.032099
      2          8           0       -0.740242   -0.032826   -0.074082
      3          1           0        0.905140   -0.367841    1.059463
      4          1           0        1.139941    1.153085   -0.249804
      5          1           0        1.147627   -0.738576   -0.760755
      6          1           0       -1.026289    0.280502    0.351158
 ---------------------------------------------------------------------

 SCF Done:  E(RB2PLYPD3) =  -115.204143883     A.U. after   11 cycles
 E2(B2PLYPD3) =    -0.1433205149D+00 E(B2PLYPD3) =    -0.11534746439808D+03

 The electronic state is 1-A.
 Alpha  occ. eigenvalues --  -19.69679 -10.69684  -1.30878  -0.83345  -0.63028
 Alpha  occ. eigenvalues --   -0.52311  -0.51272  -0.40451  -0.35791
 Alpha virt. eigenvalues --    0.05098   0.09313   0.11259   0.11911   0.14218
 Alpha virt. eigenvalues --    0.17271   0.17860   0.27690   0.31324   0.34042
 Alpha virt. eigenvalues --    0.34817   0.36165   0.39799   0.41258   0.43604

 Mulliken charges:
               1
     1  C    0.041486
     2  O   -0.133047
     3  H    0.056103
     4  H    0.023188
     5  H    0.074587
     6  H   -0.062317
 Sum of Mulliken charges =   0.00000

 Dipole moment (field-independent basis, Debye):
    X=              0.7421    Y=              0.4383    Z=              0.9913  Tot=              1.3136
 Quadrupole moment (field-independent basis, Debye-Ang):
   XX=            -13.2800   YY=            -13.3786   ZZ=            -12.9721
   XY=             -1.2395   XZ=             -1.5069   YZ=              0.3128

 Normal termination of Gaussian 09 at Wed Aug 26 18:52:58 2020.
