 Gaussian 09, Revision D.01,
 Gaussian 09:  ES64L-G09RevD.01 24-Apr-2013

 --------------------
 #p B2PLYPD3/Def2QZVP
 --------------------

 --------
 methanol
 --------
 Symbolic Z-matrix:
 Charge =  0 Multiplicity = 1

                         Standard orientation:
 ---------------------------------------------------------------------
 Center     Atomic      Atomic             Coordinates (Angstroms)
 Number     Number       Type             X           Y           Z
 ---------------------------------------------------------------------
      1          6           0        0.668454   -0.021859    0.008974
      2          8           0       -0.751443    0.102960   -0.007654
      3          1           0        0.998884   -0.671332   -0.861623
      4          1           0        1.030642   -0.446376    0.932232
      5          1           0        1.078022    1.056328   -0.115397
      6          1           0       -1.106727   -0.631149    0.052175
 ---------------------------------------------------------------------

 SCF Done:  E(RB2PLYPD3) =  -115.523687876     A.U. after   10 cycles
 E2(B2PLYPD3) =    -0.1452775042D+00 E(B2PLYPD3) =    -0.11566896538017D+03

 The electronic state is 1-A.
 Alpha  occ. eigenvalues --  -19.71051 -10.67033  -1.19653  -0.79574  -0.60566
 Alpha  occ. eigenvalues --   -0.51862  -0.49448  -0.41131  -0.35787
 Alpha virt. eigenvalues --    0.05333   0.08816   0.11928   0.12205   0.14775
 Alpha virt. eigenvalues --    0.17073   0.17794   0.29022   0.32744   0.33278
 Alpha virt. eigenvalues --    0.37066   0.38381   0.39770   0.40895   0.42735

 Mulliken charges:
               1
     1  C    0.064785
     2  O   -0.375050
     3  H    0.046739
     4  H    0.057119
     5  H    0.070555
     6  H    0.135853
 Sum of Mulliken charges =   0.00000

 Dipole moment (field-independent basis, Debye):
    X=              0.9142    Y=             -1.3989    Z=              0.1622  Tot=              1.6790
 Quadrupole moment (field-independent basis, Debye-Ang):
   XX=            -13.1461   YY=            -12.3474   ZZ=            -13.6734
   XY=              2.0346   XZ=             -0.0727   YZ=             -0.1164

 Normal termination of Gaussian 09 at Thu Aug 27 00:06:40 2020.
