 Gaussian 09, Revision D.01,
 Gaussian 09:  ES64L-G09RevD.01 24-Apr-2013

 --------------------
 #p B2PLYPD3/Def2QZVP
 --------------------

 --------
 methanol
 --------
 Symbolic Z-matrix:
 Charge =  0 Multiplicity = 1

                         Standard orientation:
 ---------------------------------------------------------------------
 Center     Atomic      Atomic             Coordinates (Angstroms)
 Number     Number       Type             X           Y           Z
 ---------------------------------------------------------------------
      1          6           0        0.656518    0.020106    0.017535
      2          8           0       -0.740885   -0.143420   -0.023976
      3          1           0        1.030068    0.334975    0.882773
      4          1           0        1.077162    0.718745   -0.772425
      5          1           0        1.078199   -0.914391   -0.139262
      6          1           0       -1.197454    0.887395    0.115512
 ---------------------------------------------------------------------

 SCF Done:  E(RB2PLYPD3) =  -115.518824501     A.U. after   11 cycles
 E2(B2PLYPD3) =    -0.1502116525D+00 E(B2PLYPD3) =    -0.11566903615381D+03

 The electronic state is 1-A.
 Alpha  occ. eigenvalues --  -19.74077 -10.64044  -1.13933  -0.78805  -0.57074
 Alpha  occ. eigenvalues --   -0.51530  -0.49964  -0.40636  -0.35089
 Alpha virt. eigenvalues --    0.03273   0.07676   0.12524   0.12817   0.15105
 Alpha virt. eigenvalues --    0.17328   0.18471   0.28024   0.29686   0.33474
 Alpha virt. eigenvalues --    0.34654   0.38237   0.39732   0.41437   0.44700

 Mulliken charges:
               1
     1  C    0.078585
     2  O   -0.481798
     3  H    0.050276
     4  H    0.032332
     5  H    0.065458
     6  H    0.255147
 Sum of Mulliken charges =   0.00000

 Dipole moment (field-independent basis, Debye):
    X=              0.8117    Y=              1.5754    Z=              0.3439  Tot=              1.8052
 Quadrupole moment (field-independent basis, Debye-Ang):
   XX=            -12.8230   YY=            -12.0288   ZZ=            -13.9480
   XY=             -2.4525   XZ=             -0.1848   YZ=              0.2386

 Normal termination of Gaussian 09 at Wed Aug 26 11:56:11 2020.
