 Gaussian 09, Revision D.01,
 Gaussian 09:  ES64L-G09RevD.01 24-Apr-2013

 --------------------
 #p B2PLYPD3/Def2QZVP
 --------------------

 --------
 methanol
 --------
 Symbolic Z-matrix:
 Charge =  0 Multiplicity = 1

                         Standard orientation:
 ---------------------------------------------------------------------
 Center     Atomic      Atomic             Coordinates (Angstroms)
 Number     Number       Type             X           Y           Z
 ---------------------------------------------------------------------
      1          6           0        0.662555    0.010259   -0.000160
      2          8           0       -0.724537   -0.194105   -0.006714
      3          1           0        1.087677    0.402933    0.822526
      4          1           0        0.938421    0.696687   -0.743615
      5          1           0        1.103959   -0.723234   -0.110577
      6          1           0       -1.309091    1.114894    0.086337
 ---------------------------------------------------------------------

 SCF Done:  E(RB2PLYPD3) =  -115.398830025     A.U. after   11 cycles
 E2(B2PLYPD3) =    -0.1558201521D+00 E(B2PLYPD3) =    -0.11555465017750D+03

 The electronic state is 1-A.
 Alpha  occ. eigenvalues --  -19.75321 -10.61059  -1.12139  -0.81226  -0.55707
 Alpha  occ. eigenvalues --   -0.51962  -0.50280  -0.39292  -0.34581
 Alpha virt. eigenvalues --   -0.02308   0.07466   0.12965   0.13126   0.14753
 Alpha virt. eigenvalues --    0.17889   0.18446   0.21811   0.29741   0.32984
 Alpha virt. eigenvalues --    0.34863   0.38184   0.40960   0.42774   0.44384

 Mulliken charges:
               1
     1  C    0.060932
     2  O   -0.480639
     3  H    0.037591
     4  H    0.033524
     5  H    0.105371
     6  H    0.243222
 Sum of Mulliken charges =   0.00000

 Dipole moment (field-independent basis, Debye):
    X=              0.9025    Y=              1.6938    Z=              0.1368  Tot=              1.9241
 Quadrupole moment (field-independent basis, Debye-Ang):
   XX=            -12.4850   YY=            -11.4781   ZZ=            -14.0915
   XY=             -2.8174   XZ=             -0.0562   YZ=              0.1265

 Normal termination of Gaussian 09 at Wed Aug 26 19:19:46 2020.
