 Gaussian 09, Revision D.01,
 Gaussian 09:  ES64L-G09RevD.01 24-Apr-2013

 --------------------
 #p B2PLYPD3/Def2QZVP
 --------------------

 --------
 methanol
 --------
 Symbolic Z-matrix:
 Charge =  0 Multiplicity = 1

                         Standard orientation:
 ---------------------------------------------------------------------
 Center     Atomic      Atomic             Coordinates (Angstroms)
 Number     Number       Type             X           Y           Z
 ---------------------------------------------------------------------
      1          6           0        0.658997    0.041426   -0.008099
      2          8           0       -0.696277   -0.210983    0.000525
      3          1           0        0.976449    0.369987    0.878610
      4          1           0        0.789051    0.681051   -0.718482
      5          1           0        1.166970   -0.695320   -0.164461
      6          1           0       -1.316237    1.083589    0.048722
 ---------------------------------------------------------------------

 SCF Done:  E(RB2PLYPD3) =  -115.406691393     A.U. after   12 cycles
 E2(B2PLYPD3) =    -0.1549501286D+00 E(B2PLYPD3) =    -0.11556164152163D+03

 The electronic state is 1-A.
 Alpha  occ. eigenvalues --  -19.74606 -10.60148  -1.12967  -0.80337  -0.56016
 Alpha  occ. eigenvalues --   -0.54076  -0.50418  -0.38289  -0.34543
 Alpha virt. eigenvalues --   -0.02218   0.07730   0.12805   0.13201   0.14496
 Alpha virt. eigenvalues --    0.17927   0.18257   0.21929   0.29375   0.32752
 Alpha virt. eigenvalues --    0.35072   0.40183   0.41544   0.43940   0.45643

 Mulliken charges:
               1
     1  C    0.091502
     2  O   -0.477993
     3  H    0.041314
     4  H    0.041333
     5  H    0.067418
     6  H    0.236426
 Sum of Mulliken charges =   0.00000

 Dipole moment (field-independent basis, Debye):
    X=              0.8758    Y=              1.7112    Z=              0.0074  Tot=              1.9223
 Quadrupole moment (field-independent basis, Debye-Ang):
   XX=            -12.5605   YY=            -11.6782   ZZ=            -13.7540
   XY=             -2.8967   XZ=             -0.0545   YZ=             -0.0015

 Normal termination of Gaussian 09 at Wed Aug 26 23:46:57 2020.
