 Gaussian 09, Revision D.01,
 Gaussian 09:  ES64L-G09RevD.01 24-Apr-2013

 --------------------
 #p B2PLYPD3/Def2QZVP
 --------------------

 --------
 methanol
 --------
 Symbolic Z-matrix:
 Charge =  0 Multiplicity = 1

                         Standard orientation:
 ---------------------------------------------------------------------
 Center     Atomic      Atomic             Coordinates (Angstroms)
 Number     Number       Type             X           Y           Z
 ---------------------------------------------------------------------
      1          6           0        0.674552   -0.022116    0.005013
      2          8           0       -0.749526    0.132063   -0.007960
      3          1           0        1.015994   -0.602318   -0.860604
      4          1           0        1.040974   -0.455074    0.898312
      5          1           0        1.073211    0.942499   -0.059272
      6          1           0       -1.181283   -0.808917    0.055160
 ---------------------------------------------------------------------

 SCF Done:  E(RB2PLYPD3) =  -115.544751561     A.U. after   10 cycles
 E2(B2PLYPD3) =    -0.1485753074D+00 E(B2PLYPD3) =    -0.11569332686807D+03

 The electronic state is 1-A.
 Alpha  occ. eigenvalues --  -19.73039 -10.64791  -1.14210  -0.78811  -0.57394
 Alpha  occ. eigenvalues --   -0.51851  -0.49761  -0.40945  -0.35280
 Alpha virt. eigenvalues --    0.04473   0.07960   0.12437   0.12638   0.14800
 Alpha virt. eigenvalues --    0.17224   0.18271   0.29086   0.32356   0.33229
 Alpha virt. eigenvalues --    0.33662   0.38972   0.40122   0.41402   0.43964

 Mulliken charges:
               1
     1  C    0.074935
     2  O   -0.485826
     3  H    0.046538
     4  H    0.050937
     5  H    0.071149
     6  H    0.242267
 Sum of Mulliken charges =   0.00000

 Dipole moment (field-independent basis, Debye):
    X=              0.9056    Y=             -1.5385    Z=              0.1357  Tot=              1.7904
 Quadrupole moment (field-independent basis, Debye-Ang):
   XX=            -12.8825   YY=            -12.1561   ZZ=            -13.7800
   XY=              2.3858   XZ=             -0.0874   YZ=             -0.0920

 Normal termination of Gaussian 09 at Thu Aug 27 00:08:56 2020.
