 Gaussian 09, Revision D.01,
 Gaussian 09:  ES64L-G09RevD.01 24-Apr-2013

 --------------------
 #p B2PLYPD3/Def2QZVP
 --------------------

 --------
 methanol
 --------
 Symbolic Z-matrix:
 Charge =  0 Multiplicity = 1

                         Standard orientation:
 ---------------------------------------------------------------------
 Center     Atomic      Atomic             Coordinates (Angstroms)
 Number     Number       Type             X           Y           Z
 ---------------------------------------------------------------------
      1          6           0       -0.675939   -0.025410    0.022409
      2          8           0        0.761135    0.080231   -0.021706
      3          1           0       -0.993837   -0.361788    0.979271
      4          1           0       -1.075299   -0.739676   -0.842186
      5          1           0       -1.059611    1.121588   -0.184649
      6          1           0        1.095303   -0.509513    0.086763
 ---------------------------------------------------------------------

 SCF Done:  E(RB2PLYPD3) =  -115.395098830     A.U. after   11 cycles
 E2(B2PLYPD3) =    -0.1441498351D+00 E(B2PLYPD3) =    -0.11553924866485D+03

 The electronic state is 1-A.
 Alpha  occ. eigenvalues --  -19.69485 -10.68594  -1.24194  -0.81171  -0.61834
 Alpha  occ. eigenvalues --   -0.51792  -0.48864  -0.40827  -0.36441
 Alpha virt. eigenvalues --    0.05239   0.09182   0.11350   0.11937   0.14603
 Alpha virt. eigenvalues --    0.16775   0.17770   0.28728   0.31642   0.33019
 Alpha virt. eigenvalues --    0.35048   0.37156   0.40515   0.41433   0.42071

 Mulliken charges:
               1
     1  C    0.052445
     2  O   -0.247456
     3  H    0.069518
     4  H    0.049860
     5  H    0.071665
     6  H    0.003969
 Sum of Mulliken charges =   0.00000

 Dipole moment (field-independent basis, Debye):
    X=             -0.9884    Y=             -1.2527    Z=              0.3428  Tot=              1.6321
 Quadrupole moment (field-independent basis, Debye-Ang):
   XX=            -13.1447   YY=            -12.5188   ZZ=            -13.4774
   XY=             -1.7823   XZ=              0.2573   YZ=             -0.2021

 Normal termination of Gaussian 09 at Wed Aug 26 15:22:54 2020.
