 Gaussian 09, Revision D.01,
 Gaussian 09:  ES64L-G09RevD.01 24-Apr-2013

 --------------------
 #p B2PLYPD3/Def2QZVP
 --------------------

 --------
 methanol
 --------
 Symbolic Z-matrix:
 Charge =  0 Multiplicity = 1

                         Standard orientation:
 ---------------------------------------------------------------------
 Center     Atomic      Atomic             Coordinates (Angstroms)
 Number     Number       Type             X           Y           Z
 ---------------------------------------------------------------------
      1          6           0       -0.678254    0.033241   -0.002819
      2          8           0        0.764702   -0.133468   -0.015082
      3          1           0       -1.007638    0.666236   -0.847973
      4          1           0       -1.203467    0.331345    0.930171
      5          1           0       -1.108759   -0.918401   -0.115670
      6          1           0        1.271772    0.789123    0.171039
 ---------------------------------------------------------------------

 SCF Done:  E(RB2PLYPD3) =  -115.533809054     A.U. after   11 cycles
 E2(B2PLYPD3) =    -0.1500023647D+00 E(B2PLYPD3) =    -0.11568381141903D+03

 The electronic state is 1-A.
 Alpha  occ. eigenvalues --  -19.73701 -10.65750  -1.13117  -0.78550  -0.56371
 Alpha  occ. eigenvalues --   -0.51606  -0.48712  -0.40163  -0.35492
 Alpha virt. eigenvalues --    0.04251   0.07319   0.12309   0.12699   0.14662
 Alpha virt. eigenvalues --    0.17064   0.18997   0.28520   0.31004   0.32162
 Alpha virt. eigenvalues --    0.34400   0.37897   0.39138   0.41198   0.43226

 Mulliken charges:
               1
     1  C    0.063015
     2  O   -0.491705
     3  H    0.054640
     4  H    0.051998
     5  H    0.070014
     6  H    0.252038
 Sum of Mulliken charges =   0.00000

 Dipole moment (field-independent basis, Debye):
    X=             -0.8286    Y=              1.4647    Z=              0.2962  Tot=              1.7087
 Quadrupole moment (field-independent basis, Debye-Ang):
   XX=            -12.3357   YY=            -12.5278   ZZ=            -13.8868
   XY=              2.5444   XZ=              0.3146   YZ=              0.1299

 Normal termination of Gaussian 09 at Wed Aug 26 23:31:22 2020.
