 Gaussian 09, Revision D.01,
 Gaussian 09:  ES64L-G09RevD.01 24-Apr-2013

 --------------------
 #p B2PLYPD3/Def2QZVP
 --------------------

 --------
 methanol
 --------
 Symbolic Z-matrix:
 Charge =  0 Multiplicity = 1

                         Standard orientation:
 ---------------------------------------------------------------------
 Center     Atomic      Atomic             Coordinates (Angstroms)
 Number     Number       Type             X           Y           Z
 ---------------------------------------------------------------------
      1          6           0        0.677819   -0.009878    0.000922
      2          8           0       -0.753628    0.121462   -0.006125
      3          1           0        1.056412   -0.561128   -0.875493
      4          1           0        1.008576   -0.537489    0.890016
      5          1           0        1.042581    0.969188    0.009007
      6          1           0       -1.145465   -0.783000    0.019939
 ---------------------------------------------------------------------

 SCF Done:  E(RB2PLYPD3) =  -115.550252453     A.U. after   10 cycles
 E2(B2PLYPD3) =    -0.1478337468D+00 E(B2PLYPD3) =    -0.11569808620006D+03

 The electronic state is 1-A.
 Alpha  occ. eigenvalues --  -19.72623 -10.65291  -1.15003  -0.78867  -0.58141
 Alpha  occ. eigenvalues --   -0.51296  -0.49919  -0.41515  -0.35222
 Alpha virt. eigenvalues --    0.04806   0.08160   0.12381   0.12477   0.14875
 Alpha virt. eigenvalues --    0.17128   0.17997   0.29167   0.32922   0.33357
 Alpha virt. eigenvalues --    0.34426   0.38950   0.40211   0.40547   0.43966

 Mulliken charges:
               1
     1  C    0.074562
     2  O   -0.474919
     3  H    0.046814
     4  H    0.046926
     5  H    0.076766
     6  H    0.229850
 Sum of Mulliken charges =   0.00000

 Dipole moment (field-independent basis, Debye):
    X=              0.9513    Y=             -1.5061    Z=              0.0658  Tot=              1.7826
 Quadrupole moment (field-independent basis, Debye-Ang):
   XX=            -13.0641   YY=            -12.0602   ZZ=            -13.8263
   XY=              2.2731   XZ=             -0.0734   YZ=             -0.0273

 Normal termination of Gaussian 09 at Thu Aug 27 00:08:42 2020.
