 Gaussian 09, Revision D.01,
 Gaussian 09:  ES64L-G09RevD.01 24-Apr-2013

 --------------------
 #p B2PLYPD3/Def2QZVP
 --------------------

 --------
 methanol
 --------
 Symbolic Z-matrix:
 Charge =  0 Multiplicity = 1

                         Standard orientation:
 ---------------------------------------------------------------------
 Center     Atomic      Atomic             Coordinates (Angstroms)
 Number     Number       Type             X           Y           Z
 ---------------------------------------------------------------------
      1          6           0        0.627747    0.056900    0.000290
      2          8           0       -0.710454   -0.200944   -0.006500
      3          1           0        0.979481    0.438304    0.829410
      4          1           0        0.996192    0.584622   -0.755437
      5          1           0        1.255865   -0.796972   -0.050202
      6          1           0       -1.314389    1.040194    0.026489
 ---------------------------------------------------------------------

 SCF Done:  E(RB2PLYPD3) =  -115.447310368     A.U. after   11 cycles
 E2(B2PLYPD3) =    -0.1541432962D+00 E(B2PLYPD3) =    -0.11560145366412D+03

 The electronic state is 1-A.
 Alpha  occ. eigenvalues --  -19.75281 -10.61947  -1.13865  -0.79488  -0.54302
 Alpha  occ. eigenvalues --   -0.53892  -0.50599  -0.37969  -0.35168
 Alpha virt. eigenvalues --   -0.01341   0.07300   0.12962   0.13214   0.14719
 Alpha virt. eigenvalues --    0.18386   0.18747   0.22183   0.29384   0.33653
 Alpha virt. eigenvalues --    0.35711   0.40015   0.40739   0.42659   0.44033

 Mulliken charges:
               1
     1  C    0.095469
     2  O   -0.471923
     3  H    0.043890
     4  H    0.040299
     5  H    0.042499
     6  H    0.249765
 Sum of Mulliken charges =   0.00000

 Dipole moment (field-independent basis, Debye):
    X=              0.7279    Y=              1.7911    Z=              0.0624  Tot=              1.9343
 Quadrupole moment (field-independent basis, Debye-Ang):
   XX=            -12.3373   YY=            -12.0364   ZZ=            -13.9751
   XY=             -2.7079   XZ=             -0.0658   YZ=             -0.0003

 Normal termination of Gaussian 09 at Wed Aug 26 22:23:22 2020.
