 Gaussian 09, Revision D.01,
 Gaussian 09:  ES64L-G09RevD.01 24-Apr-2013

 --------------------
 #p B2PLYPD3/Def2QZVP
 --------------------

 --------
 methanol
 --------
 Symbolic Z-matrix:
 Charge =  0 Multiplicity = 1

                         Standard orientation:
 ---------------------------------------------------------------------
 Center     Atomic      Atomic             Coordinates (Angstroms)
 Number     Number       Type             X           Y           Z
 ---------------------------------------------------------------------
      1          6           0       -0.661680    0.019266   -0.011989
      2          8           0        0.753085   -0.147865    0.004350
      3          1           0       -1.066556    0.485905   -0.808781
      4          1           0       -0.969554    0.609936    0.830150
      5          1           0       -1.140583   -0.932052    0.065951
      6          1           0        1.122092    0.903537   -0.050187
 ---------------------------------------------------------------------

 SCF Done:  E(RB2PLYPD3) =  -115.525662504     A.U. after   11 cycles
 E2(B2PLYPD3) =    -0.1500641879D+00 E(B2PLYPD3) =    -0.11567572669234D+03

 The electronic state is 1-A.
 Alpha  occ. eigenvalues --  -19.73981 -10.64067  -1.13748  -0.78939  -0.57001
 Alpha  occ. eigenvalues --   -0.51919  -0.49440  -0.41293  -0.35181
 Alpha virt. eigenvalues --    0.03493   0.07775   0.12508   0.12718   0.14885
 Alpha virt. eigenvalues --    0.17849   0.18115   0.28471   0.29916   0.33018
 Alpha virt. eigenvalues --    0.34258   0.39150   0.39466   0.41765   0.44385

 Mulliken charges:
               1
     1  C    0.087441
     2  O   -0.483495
     3  H    0.044491
     4  H    0.037565
     5  H    0.062749
     6  H    0.251248
 Sum of Mulliken charges =   0.00000

 Dipole moment (field-independent basis, Debye):
    X=             -0.9981    Y=              1.6772    Z=             -0.1330  Tot=              1.9563
 Quadrupole moment (field-independent basis, Debye-Ang):
   XX=            -13.1076   YY=            -11.8446   ZZ=            -13.9835
   XY=              2.3283   XZ=              0.0240   YZ=             -0.1243

 Normal termination of Gaussian 09 at Wed Aug 26 16:24:48 2020.
