 Gaussian 09, Revision D.01,
 Gaussian 09:  ES64L-G09RevD.01 24-Apr-2013

 --------------------
 #p B2PLYPD3/Def2QZVP
 --------------------

 --------
 methanol
 --------
 Symbolic Z-matrix:
 Charge =  0 Multiplicity = 1

                         Standard orientation:
 ---------------------------------------------------------------------
 Center     Atomic      Atomic             Coordinates (Angstroms)
 Number     Number       Type             X           Y           Z
 ---------------------------------------------------------------------
      1          6           0        0.642727    0.032302    0.009038
      2          8           0       -0.736905   -0.139017   -0.013281
      3          1           0        0.963275    0.426304    0.931463
      4          1           0        1.063394    0.609535   -0.834240
      5          1           0        1.161542   -0.925187   -0.075829
      6          1           0       -1.149332    0.807676    0.030624
 ---------------------------------------------------------------------

 SCF Done:  E(RB2PLYPD3) =  -115.544069318     A.U. after   11 cycles
 E2(B2PLYPD3) =    -0.1482207046D+00 E(B2PLYPD3) =    -0.11569229002225D+03

 The electronic state is 1-A.
 Alpha  occ. eigenvalues --  -19.73398 -10.64969  -1.15988  -0.78238  -0.58052
 Alpha  occ. eigenvalues --   -0.52608  -0.50256  -0.40031  -0.35347
 Alpha virt. eigenvalues --    0.04402   0.07911   0.12394   0.12807   0.14686
 Alpha virt. eigenvalues --    0.17816   0.18463   0.28903   0.31717   0.33395
 Alpha virt. eigenvalues --    0.34937   0.38914   0.40153   0.41742   0.43732

 Mulliken charges:
               1
     1  C    0.065804
     2  O   -0.462728
     3  H    0.050088
     4  H    0.041458
     5  H    0.058996
     6  H    0.246382
 Sum of Mulliken charges =   0.00000

 Dipole moment (field-independent basis, Debye):
    X=              0.7670    Y=              1.5630    Z=              0.1173  Tot=              1.7450
 Quadrupole moment (field-independent basis, Debye-Ang):
   XX=            -12.9194   YY=            -12.3604   ZZ=            -13.7867
   XY=             -2.4076   XZ=             -0.1527   YZ=              0.0699

 Normal termination of Gaussian 09 at Wed Aug 26 11:32:43 2020.
