 Gaussian 09, Revision D.01,
 Gaussian 09:  ES64L-G09RevD.01 24-Apr-2013

 --------------------
 #p B2PLYPD3/Def2QZVP
 --------------------

 --------
 methanol
 --------
 Symbolic Z-matrix:
 Charge =  0 Multiplicity = 1

                         Standard orientation:
 ---------------------------------------------------------------------
 Center     Atomic      Atomic             Coordinates (Angstroms)
 Number     Number       Type             X           Y           Z
 ---------------------------------------------------------------------
      1          6           0        0.650028   -0.014652    0.003788
      2          8           0       -0.746342    0.113545   -0.004127
      3          1           0        1.034723   -0.587364   -0.890632
      4          1           0        1.052866   -0.484059    0.921553
      5          1           0        1.070238    0.985111   -0.051248
      6          1           0       -1.087261   -0.734136    0.030611
 ---------------------------------------------------------------------

 SCF Done:  E(RB2PLYPD3) =  -115.550354388     A.U. after   10 cycles
 E2(B2PLYPD3) =    -0.1465327009D+00 E(B2PLYPD3) =    -0.11569688708926D+03

 The electronic state is 1-A.
 Alpha  occ. eigenvalues --  -19.72469 -10.66064  -1.18039  -0.78703  -0.59643
 Alpha  occ. eigenvalues --   -0.51605  -0.50389  -0.41262  -0.35441
 Alpha virt. eigenvalues --    0.05113   0.08421   0.12241   0.12457   0.14881
 Alpha virt. eigenvalues --    0.17364   0.18179   0.28963   0.33209   0.33978
 Alpha virt. eigenvalues --    0.36237   0.38609   0.40064   0.40468   0.43712

 Mulliken charges:
               1
     1  C    0.062025
     2  O   -0.425814
     3  H    0.041384
     4  H    0.046160
     5  H    0.069869
     6  H    0.206376
 Sum of Mulliken charges =   0.00000

 Dipole moment (field-independent basis, Debye):
    X=              0.8534    Y=             -1.4359    Z=              0.0799  Tot=              1.6723
 Quadrupole moment (field-independent basis, Debye-Ang):
   XX=            -13.2029   YY=            -12.2835   ZZ=            -13.7851
   XY=              2.1750   XZ=             -0.0454   YZ=             -0.0658

 Normal termination of Gaussian 09 at Wed Aug 26 18:37:04 2020.
