 Gaussian 09, Revision D.01,
 Gaussian 09:  ES64L-G09RevD.01 24-Apr-2013

 --------------------
 #p B2PLYPD3/Def2QZVP
 --------------------

 --------
 methanol
 --------
 Symbolic Z-matrix:
 Charge =  0 Multiplicity = 1

                         Standard orientation:
 ---------------------------------------------------------------------
 Center     Atomic      Atomic             Coordinates (Angstroms)
 Number     Number       Type             X           Y           Z
 ---------------------------------------------------------------------
      1          6           0        0.657191   -0.022191    0.007092
      2          8           0       -0.740639    0.110601   -0.010434
      3          1           0        0.992336   -0.656254   -0.864059
      4          1           0        1.028478   -0.454267    0.919033
      5          1           0        1.082284    1.027305   -0.087731
      6          1           0       -1.121137   -0.668445    0.073682
 ---------------------------------------------------------------------

 SCF Done:  E(RB2PLYPD3) =  -115.542893969     A.U. after   10 cycles
 E2(B2PLYPD3) =    -0.1457201026D+00 E(B2PLYPD3) =    -0.11568861407162D+03

 The electronic state is 1-A.
 Alpha  occ. eigenvalues --  -19.71676 -10.66364  -1.18717  -0.79158  -0.60314
 Alpha  occ. eigenvalues --   -0.52012  -0.49904  -0.40890  -0.35482
 Alpha virt. eigenvalues --    0.05259   0.08651   0.12175   0.12308   0.14883
 Alpha virt. eigenvalues --    0.17182   0.17917   0.29064   0.33040   0.34031
 Alpha virt. eigenvalues --    0.37218   0.38200   0.39788   0.41009   0.43285

 Mulliken charges:
               1
     1  C    0.065696
     2  O   -0.410157
     3  H    0.043760
     4  H    0.051414
     5  H    0.068641
     6  H    0.180646
 Sum of Mulliken charges =   0.00000

 Dipole moment (field-independent basis, Debye):
    X=              0.8074    Y=             -1.4290    Z=              0.2059  Tot=              1.6542
 Quadrupole moment (field-independent basis, Debye-Ang):
   XX=            -13.0824   YY=            -12.3484   ZZ=            -13.7238
   XY=              2.1271   XZ=             -0.1178   YZ=             -0.1312

 Normal termination of Gaussian 09 at Wed Aug 26 09:56:52 2020.
