 Gaussian 09, Revision D.01,
 Gaussian 09:  ES64L-G09RevD.01 24-Apr-2013

 --------------------
 #p B2PLYPD3/Def2QZVP
 --------------------

 --------
 methanol
 --------
 Symbolic Z-matrix:
 Charge =  0 Multiplicity = 1

                         Standard orientation:
 ---------------------------------------------------------------------
 Center     Atomic      Atomic             Coordinates (Angstroms)
 Number     Number       Type             X           Y           Z
 ---------------------------------------------------------------------
      1          6           0       -0.663047   -0.022520    0.023595
      2          8           0        0.760137    0.074049   -0.043045
      3          1           0       -0.944169   -0.144676    1.100861
      4          1           0       -1.092641   -0.864609   -0.731322
      5          1           0       -1.122988    1.011326   -0.354226
      6          1           0        1.056988   -0.459316    0.187480
 ---------------------------------------------------------------------

 SCF Done:  E(RB2PLYPD3) =  -115.338927129     A.U. after   11 cycles
 E2(B2PLYPD3) =    -0.1438506204D+00 E(B2PLYPD3) =    -0.11548277774918D+03

 The electronic state is 1-A.
 Alpha  occ. eigenvalues --  -19.69388 -10.69016  -1.26461  -0.81358  -0.61694
 Alpha  occ. eigenvalues --   -0.52006  -0.49850  -0.40644  -0.36529
 Alpha virt. eigenvalues --    0.05266   0.09253   0.11520   0.11844   0.14036
 Alpha virt. eigenvalues --    0.17122   0.18002   0.28247   0.32155   0.32861
 Alpha virt. eigenvalues --    0.35201   0.36850   0.39698   0.40536   0.43440

 Mulliken charges:
               1
     1  C    0.049995
     2  O   -0.214953
     3  H    0.062518
     4  H    0.049710
     5  H    0.072105
     6  H   -0.019376
 Sum of Mulliken charges =   0.00000

 Dipole moment (field-independent basis, Debye):
    X=             -1.0044    Y=             -1.0617    Z=              0.5582  Tot=              1.5645
 Quadrupole moment (field-independent basis, Debye-Ang):
   XX=            -13.2231   YY=            -12.8348   ZZ=            -13.2352
   XY=             -1.7639   XZ=              0.7865   YZ=             -0.2545

 Normal termination of Gaussian 09 at Wed Aug 26 11:54:00 2020.
