 Gaussian 09, Revision D.01,
 Gaussian 09:  ES64L-G09RevD.01 24-Apr-2013

 --------------------
 #p B2PLYPD3/Def2QZVP
 --------------------

 --------
 methanol
 --------
 Symbolic Z-matrix:
 Charge =  0 Multiplicity = 1

                         Standard orientation:
 ---------------------------------------------------------------------
 Center     Atomic      Atomic             Coordinates (Angstroms)
 Number     Number       Type             X           Y           Z
 ---------------------------------------------------------------------
      1          6           0       -0.670706   -0.017045   -0.002473
      2          8           0        0.763915    0.090897   -0.005191
      3          1           0       -1.036404   -0.519023    0.984123
      4          1           0       -1.120040   -0.557864   -0.926919
      5          1           0       -1.076213    1.037279   -0.002021
      6          1           0        1.145573   -0.585304    0.001187
 ---------------------------------------------------------------------

 SCF Done:  E(RB2PLYPD3) =  -115.496709103     A.U. after   10 cycles
 E2(B2PLYPD3) =    -0.1452411809D+00 E(B2PLYPD3) =    -0.11564195028430D+03

 The electronic state is 1-A.
 Alpha  occ. eigenvalues --  -19.70854 -10.68246  -1.20609  -0.79991  -0.60526
 Alpha  occ. eigenvalues --   -0.50804  -0.49899  -0.40738  -0.35976
 Alpha virt. eigenvalues --    0.05395   0.08635   0.11851   0.12171   0.14470
 Alpha virt. eigenvalues --    0.16972   0.18212   0.28752   0.32089   0.33307
 Alpha virt. eigenvalues --    0.36267   0.38712   0.38941   0.39853   0.42388

 Mulliken charges:
               1
     1  C    0.053592
     2  O   -0.333432
     3  H    0.050782
     4  H    0.053728
     5  H    0.078835
     6  H    0.096496
 Sum of Mulliken charges =   0.00000

 Dipole moment (field-independent basis, Debye):
    X=             -0.9038    Y=             -1.2578    Z=              0.0096  Tot=              1.5489
 Quadrupole moment (field-independent basis, Debye-Ang):
   XX=            -12.8639   YY=            -12.6437   ZZ=            -13.6608
   XY=             -2.0806   XZ=              0.1010   YZ=              0.0190

 Normal termination of Gaussian 09 at Wed Aug 26 15:49:32 2020.
