 Gaussian 09, Revision D.01,
 Gaussian 09:  ES64L-G09RevD.01 24-Apr-2013

 --------------------
 #p B2PLYPD3/Def2QZVP
 --------------------

 --------
 methanol
 --------
 Symbolic Z-matrix:
 Charge =  0 Multiplicity = 1

                         Standard orientation:
 ---------------------------------------------------------------------
 Center     Atomic      Atomic             Coordinates (Angstroms)
 Number     Number       Type             X           Y           Z
 ---------------------------------------------------------------------
      1          6           0       -0.679253    0.012363    0.013905
      2          8           0        0.769369   -0.169170   -0.014236
      3          1           0       -1.221453    0.631141   -0.696920
      4          1           0       -1.025818    0.446935    0.773054
      5          1           0       -1.063536   -0.903465   -0.062006
      6          1           0        1.231374    1.104567    0.016326
 ---------------------------------------------------------------------

 SCF Done:  E(RB2PLYPD3) =  -115.442827644     A.U. after   12 cycles
 E2(B2PLYPD3) =    -0.1558924973D+00 E(B2PLYPD3) =    -0.11559872014134D+03

 The electronic state is 1-A.
 Alpha  occ. eigenvalues --  -19.75749 -10.62841  -1.10774  -0.80637  -0.55932
 Alpha  occ. eigenvalues --   -0.50198  -0.48256  -0.40795  -0.35195
 Alpha virt. eigenvalues --   -0.00451   0.07129   0.12199   0.13344   0.14867
 Alpha virt. eigenvalues --    0.17435   0.18393   0.22825   0.29263   0.32562
 Alpha virt. eigenvalues --    0.34128   0.37848   0.38457   0.41280   0.44961

 Mulliken charges:
               1
     1  C    0.089982
     2  O   -0.487407
     3  H    0.032686
     4  H    0.055024
     5  H    0.065305
     6  H    0.244410
 Sum of Mulliken charges =   0.00000

 Dipole moment (field-independent basis, Debye):
    X=             -1.1034    Y=              1.7519    Z=              0.1715  Tot=              2.0775
 Quadrupole moment (field-independent basis, Debye-Ang):
   XX=            -12.7702   YY=            -11.3424   ZZ=            -14.3956
   XY=              2.3622   XZ=             -0.0052   YZ=              0.1579

 Normal termination of Gaussian 09 at Wed Aug 26 20:42:02 2020.
