 Gaussian 09, Revision D.01,
 Gaussian 09:  ES64L-G09RevD.01 24-Apr-2013

 --------------------
 #p B2PLYPD3/Def2QZVP
 --------------------

 --------
 methanol
 --------
 Symbolic Z-matrix:
 Charge =  0 Multiplicity = 1

                         Standard orientation:
 ---------------------------------------------------------------------
 Center     Atomic      Atomic             Coordinates (Angstroms)
 Number     Number       Type             X           Y           Z
 ---------------------------------------------------------------------
      1          6           0       -0.645706    0.006131    0.012623
      2          8           0        0.737279   -0.130424   -0.024510
      3          1           0       -1.066428    0.678297   -0.846264
      4          1           0       -1.002605    0.413123    0.930154
      5          1           0       -1.118691   -0.889088   -0.079368
      6          1           0        1.163731    0.804275    0.115816
 ---------------------------------------------------------------------

 SCF Done:  E(RB2PLYPD3) =  -115.538765563     A.U. after   11 cycles
 E2(B2PLYPD3) =    -0.1482462349D+00 E(B2PLYPD3) =    -0.11568701179822D+03

 The electronic state is 1-A.
 Alpha  occ. eigenvalues --  -19.73441 -10.65010  -1.15868  -0.78609  -0.58154
 Alpha  occ. eigenvalues --   -0.51476  -0.51146  -0.40635  -0.34825
 Alpha virt. eigenvalues --    0.04290   0.07909   0.12338   0.12920   0.14878
 Alpha virt. eigenvalues --    0.17713   0.18286   0.29026   0.31732   0.32934
 Alpha virt. eigenvalues --    0.34804   0.38467   0.40550   0.41291   0.43816

 Mulliken charges:
               1
     1  C    0.069951
     2  O   -0.463038
     3  H    0.028157
     4  H    0.042765
     5  H    0.072531
     6  H    0.249634
 Sum of Mulliken charges =   0.00000

 Dipole moment (field-independent basis, Debye):
    X=             -0.7222    Y=              1.4494    Z=              0.3420  Tot=              1.6550
 Quadrupole moment (field-independent basis, Debye-Ang):
   XX=            -12.8749   YY=            -12.2850   ZZ=            -13.8941
   XY=              2.5101   XZ=              0.2488   YZ=              0.2409

 Normal termination of Gaussian 09 at Wed Aug 26 13:05:37 2020.
