 Gaussian 09, Revision D.01,
 Gaussian 09:  ES64L-G09RevD.01 24-Apr-2013

 --------------------
 #p B2PLYPD3/Def2QZVP
 --------------------

 --------
 methanol
 --------
 Symbolic Z-matrix:
 Charge =  0 Multiplicity = 1

                         Standard orientation:
 ---------------------------------------------------------------------
 Center     Atomic      Atomic             Coordinates (Angstroms)
 Number     Number       Type             X           Y           Z
 ---------------------------------------------------------------------
      1          6           0        0.671295    0.011300   -0.000011
      2          8           0       -0.741348   -0.129539   -0.003086
      3          1           0        1.030061    0.499340    0.905810
      4          1           0        1.008169    0.604901   -0.861498
      5          1           0        1.060788   -0.930659   -0.047036
      6          1           0       -1.196007    0.794930    0.027478
 ---------------------------------------------------------------------

 SCF Done:  E(RB2PLYPD3) =  -115.544569233     A.U. after   10 cycles
 E2(B2PLYPD3) =    -0.1482111861D+00 E(B2PLYPD3) =    -0.11569278041881D+03

 The electronic state is 1-A.
 Alpha  occ. eigenvalues --  -19.72854 -10.64822  -1.14614  -0.78784  -0.57714
 Alpha  occ. eigenvalues --   -0.51404  -0.50603  -0.40876  -0.34928
 Alpha virt. eigenvalues --    0.04478   0.08036   0.12445   0.12701   0.14872
 Alpha virt. eigenvalues --    0.17214   0.18068   0.29222   0.32577   0.33249
 Alpha virt. eigenvalues --    0.33822   0.38892   0.40713   0.40917   0.43695

 Mulliken charges:
               1
     1  C    0.076028
     2  O   -0.483482
     3  H    0.045015
     4  H    0.042802
     5  H    0.076556
     6  H    0.243081
 Sum of Mulliken charges =   0.00000

 Dipole moment (field-independent basis, Debye):
    X=              0.8219    Y=              1.5085    Z=              0.0555  Tot=              1.7188
 Quadrupole moment (field-independent basis, Debye-Ang):
   XX=            -12.8348   YY=            -12.1287   ZZ=            -13.8458
   XY=             -2.4394   XZ=             -0.0537   YZ=              0.0437

 Normal termination of Gaussian 09 at Thu Aug 27 00:14:54 2020.
