 Gaussian 09, Revision D.01,
 Gaussian 09:  ES64L-G09RevD.01 24-Apr-2013

 --------------------
 #p B2PLYPD3/Def2QZVP
 --------------------

 --------
 methanol
 --------
 Symbolic Z-matrix:
 Charge =  0 Multiplicity = 1

                         Standard orientation:
 ---------------------------------------------------------------------
 Center     Atomic      Atomic             Coordinates (Angstroms)
 Number     Number       Type             X           Y           Z
 ---------------------------------------------------------------------
      1          6           0        0.660471   -0.027399    0.008491
      2          8           0       -0.755431    0.105503   -0.001618
      3          1           0        1.030469   -0.607447   -0.889096
      4          1           0        1.068465   -0.478011    0.919155
      5          1           0        1.101099    1.052534   -0.083546
      6          1           0       -1.119414   -0.646705    0.015486
 ---------------------------------------------------------------------

 SCF Done:  E(RB2PLYPD3) =  -115.530302247     A.U. after   10 cycles
 E2(B2PLYPD3) =    -0.1457128611D+00 E(B2PLYPD3) =    -0.11567601510815D+03

 The electronic state is 1-A.
 Alpha  occ. eigenvalues --  -19.71607 -10.67212  -1.19353  -0.79237  -0.60529
 Alpha  occ. eigenvalues --   -0.51689  -0.49396  -0.40805  -0.35943
 Alpha virt. eigenvalues --    0.05318   0.08582   0.11986   0.12228   0.14780
 Alpha virt. eigenvalues --    0.17197   0.18118   0.28930   0.33015   0.33406
 Alpha virt. eigenvalues --    0.36539   0.38400   0.39525   0.40535   0.42634

 Mulliken charges:
               1
     1  C    0.059255
     2  O   -0.384574
     3  H    0.048444
     4  H    0.057662
     5  H    0.065148
     6  H    0.154065
 Sum of Mulliken charges =   0.00000

 Dipole moment (field-independent basis, Debye):
    X=              0.8732    Y=             -1.4238    Z=              0.0603  Tot=              1.6713
 Quadrupole moment (field-independent basis, Debye-Ang):
   XX=            -13.0108   YY=            -12.4769   ZZ=            -13.7313
   XY=              2.0506   XZ=              0.0156   YZ=             -0.0621

 Normal termination of Gaussian 09 at Wed Aug 26 15:45:17 2020.
