 Gaussian 09, Revision D.01,
 Gaussian 09:  ES64L-G09RevD.01 24-Apr-2013

 --------------------
 #p B2PLYPD3/Def2QZVP
 --------------------

 --------
 methanol
 --------
 Symbolic Z-matrix:
 Charge =  0 Multiplicity = 1

                         Standard orientation:
 ---------------------------------------------------------------------
 Center     Atomic      Atomic             Coordinates (Angstroms)
 Number     Number       Type             X           Y           Z
 ---------------------------------------------------------------------
      1          6           0        0.660646    0.019394    0.000585
      2          8           0       -0.739486   -0.139920    0.001498
      3          1           0        1.028096    0.509618    0.888815
      4          1           0        0.974009    0.571120   -0.871018
      5          1           0        1.125294   -0.902436   -0.042592
      6          1           0       -1.175384    0.824694    0.009302
 ---------------------------------------------------------------------

 SCF Done:  E(RB2PLYPD3) =  -115.541159772     A.U. after   11 cycles
 E2(B2PLYPD3) =    -0.1485585129D+00 E(B2PLYPD3) =    -0.11568971828472D+03

 The electronic state is 1-A.
 Alpha  occ. eigenvalues --  -19.73219 -10.64450  -1.14694  -0.78671  -0.57346
 Alpha  occ. eigenvalues --   -0.52039  -0.50603  -0.40601  -0.35038
 Alpha virt. eigenvalues --    0.04190   0.07956   0.12465   0.12843   0.14747
 Alpha virt. eigenvalues --    0.17643   0.18180   0.29128   0.31295   0.33220
 Alpha virt. eigenvalues --    0.34165   0.39401   0.40897   0.41436   0.43584

 Mulliken charges:
               1
     1  C    0.076350
     2  O   -0.481102
     3  H    0.044112
     4  H    0.042338
     5  H    0.069419
     6  H    0.248884
 Sum of Mulliken charges =   0.00000

 Dipole moment (field-independent basis, Debye):
    X=              0.8348    Y=              1.5551    Z=              0.0044  Tot=              1.7650
 Quadrupole moment (field-independent basis, Debye-Ang):
   XX=            -12.8652   YY=            -12.1674   ZZ=            -13.8124
   XY=             -2.4972   XZ=              0.0108   YZ=              0.0180

 Normal termination of Gaussian 09 at Thu Aug 27 00:07:53 2020.
