 Gaussian 09, Revision D.01,
 Gaussian 09:  ES64L-G09RevD.01 24-Apr-2013

 --------------------
 #p B2PLYPD3/Def2QZVP
 --------------------

 --------
 methanol
 --------
 Symbolic Z-matrix:
 Charge =  0 Multiplicity = 1

                         Standard orientation:
 ---------------------------------------------------------------------
 Center     Atomic      Atomic             Coordinates (Angstroms)
 Number     Number       Type             X           Y           Z
 ---------------------------------------------------------------------
      1          6           0        0.656960    0.028173    0.005527
      2          8           0       -0.742345   -0.143255   -0.005714
      3          1           0        0.990063    0.493706    0.875537
      4          1           0        1.040425    0.571902   -0.838773
      5          1           0        1.133741   -0.933977   -0.033958
      6          1           0       -1.167224    0.845374    0.009746
 ---------------------------------------------------------------------

 SCF Done:  E(RB2PLYPD3) =  -115.538447179     A.U. after   11 cycles
 E2(B2PLYPD3) =    -0.1490108087D+00 E(B2PLYPD3) =    -0.11568745798815D+03

 The electronic state is 1-A.
 Alpha  occ. eigenvalues --  -19.73536 -10.64418  -1.14557  -0.78538  -0.57342
 Alpha  occ. eigenvalues --   -0.52302  -0.49840  -0.40599  -0.35254
 Alpha virt. eigenvalues --    0.04018   0.07853   0.12583   0.12675   0.14863
 Alpha virt. eigenvalues --    0.17644   0.18269   0.29012   0.30697   0.33435
 Alpha virt. eigenvalues --    0.34367   0.39171   0.40000   0.41902   0.43865

 Mulliken charges:
               1
     1  C    0.077184
     2  O   -0.480392
     3  H    0.047700
     4  H    0.042761
     5  H    0.063032
     6  H    0.249716
 Sum of Mulliken charges =   0.00000

 Dipole moment (field-independent basis, Debye):
    X=              0.8543    Y=              1.6181    Z=              0.0530  Tot=              1.8305
 Quadrupole moment (field-independent basis, Debye-Ang):
   XX=            -12.9004   YY=            -12.1220   ZZ=            -13.8584
   XY=             -2.4069   XZ=             -0.0495   YZ=              0.0412

 Normal termination of Gaussian 09 at Wed Aug 26 18:35:39 2020.
