 Gaussian 09, Revision D.01,
 Gaussian 09:  ES64L-G09RevD.01 24-Apr-2013

 --------------------
 #p B2PLYPD3/Def2QZVP
 --------------------

 --------
 methanol
 --------
 Symbolic Z-matrix:
 Charge =  0 Multiplicity = 1

                         Standard orientation:
 ---------------------------------------------------------------------
 Center     Atomic      Atomic             Coordinates (Angstroms)
 Number     Number       Type             X           Y           Z
 ---------------------------------------------------------------------
      1          6           0        0.672247    0.069377    0.002200
      2          8           0       -0.742350   -0.189171   -0.020336
      3          1           0        0.950477    0.309398    0.787018
      4          1           0        0.951370    0.610087   -0.731668
      5          1           0        1.129359   -0.921317   -0.033527
      6          1           0       -1.125887    1.098934    0.127667
 ---------------------------------------------------------------------

 SCF Done:  E(RB2PLYPD3) =  -115.411072665     A.U. after   11 cycles
 E2(B2PLYPD3) =    -0.1550026805D+00 E(B2PLYPD3) =    -0.11556607534598D+03

 The electronic state is 1-A.
 Alpha  occ. eigenvalues --  -19.75112 -10.61333  -1.11622  -0.81251  -0.57056
 Alpha  occ. eigenvalues --   -0.53925  -0.47748  -0.39158  -0.35965
 Alpha virt. eigenvalues --   -0.00246   0.07538   0.12203   0.12784   0.14634
 Alpha virt. eigenvalues --    0.17497   0.18712   0.22940   0.29129   0.33303
 Alpha virt. eigenvalues --    0.33930   0.37374   0.40487   0.43490   0.46087

 Mulliken charges:
               1
     1  C    0.068152
     2  O   -0.484636
     3  H    0.088823
     4  H    0.056248
     5  H    0.041427
     6  H    0.229986
 Sum of Mulliken charges =   0.00000

 Dipole moment (field-independent basis, Debye):
    X=              1.2448    Y=              1.8089    Z=              0.2798  Tot=              2.2135
 Quadrupole moment (field-independent basis, Debye-Ang):
   XX=            -13.4318   YY=            -11.4758   ZZ=            -13.7051
   XY=             -2.1706   XZ=             -0.1063   YZ=              0.0550

 Normal termination of Gaussian 09 at Wed Aug 26 23:23:52 2020.
