 Gaussian 09, Revision D.01,
 Gaussian 09:  ES64L-G09RevD.01 24-Apr-2013

 --------------------
 #p B2PLYPD3/Def2QZVP
 --------------------

 --------
 methanol
 --------
 Symbolic Z-matrix:
 Charge =  0 Multiplicity = 1

                         Standard orientation:
 ---------------------------------------------------------------------
 Center     Atomic      Atomic             Coordinates (Angstroms)
 Number     Number       Type             X           Y           Z
 ---------------------------------------------------------------------
      1          6           0        0.667480   -0.016452    0.004715
      2          8           0       -0.758422    0.125955   -0.000034
      3          1           0        1.086765   -0.528146   -0.875651
      4          1           0        0.975510   -0.557277    0.898062
      5          1           0        1.131714    0.948832   -0.000262
      6          1           0       -1.131491   -0.772343   -0.050166
 ---------------------------------------------------------------------

 SCF Done:  E(RB2PLYPD3) =  -115.550958443     A.U. after   10 cycles
 E2(B2PLYPD3) =    -0.1477124953D+00 E(B2PLYPD3) =    -0.11569867093798D+03

 The electronic state is 1-A.
 Alpha  occ. eigenvalues --  -19.72827 -10.65600  -1.15569  -0.78770  -0.58169
 Alpha  occ. eigenvalues --   -0.51756  -0.49800  -0.41216  -0.35435
 Alpha virt. eigenvalues --    0.04877   0.08067   0.12328   0.12575   0.14699
 Alpha virt. eigenvalues --    0.17595   0.18154   0.29134   0.32482   0.33690
 Alpha virt. eigenvalues --    0.34374   0.38878   0.39982   0.40825   0.44179

 Mulliken charges:
               1
     1  C    0.071719
     2  O   -0.465103
     3  H    0.044219
     4  H    0.049078
     5  H    0.071079
     6  H    0.229007
 Sum of Mulliken charges =   0.00000

 Dipole moment (field-independent basis, Debye):
    X=              0.9564    Y=             -1.5082    Z=             -0.0773  Tot=              1.7875
 Quadrupole moment (field-independent basis, Debye-Ang):
   XX=            -12.9881   YY=            -12.2392   ZZ=            -13.8194
   XY=              2.3288   XZ=              0.0191   YZ=              0.0312

 Normal termination of Gaussian 09 at Wed Aug 26 13:14:35 2020.
