 Gaussian 09, Revision D.01,
 Gaussian 09:  ES64L-G09RevD.01 24-Apr-2013

 --------------------
 #p B2PLYPD3/Def2QZVP
 --------------------

 --------
 methanol
 --------
 Symbolic Z-matrix:
 Charge =  0 Multiplicity = 1

                         Standard orientation:
 ---------------------------------------------------------------------
 Center     Atomic      Atomic             Coordinates (Angstroms)
 Number     Number       Type             X           Y           Z
 ---------------------------------------------------------------------
      1          6           0        0.663989   -0.020111    0.009503
      2          8           0       -0.738634    0.115775   -0.011699
      3          1           0        0.989416   -0.670121   -0.859767
      4          1           0        1.024164   -0.411061    0.943608
      5          1           0        1.065676    0.975946   -0.124914
      6          1           0       -1.154117   -0.700298    0.077646
 ---------------------------------------------------------------------

 SCF Done:  E(RB2PLYPD3) =  -115.550771092     A.U. after   10 cycles
 E2(B2PLYPD3) =    -0.1463760195D+00 E(B2PLYPD3) =    -0.11569714711105D+03

 The electronic state is 1-A.
 Alpha  occ. eigenvalues --  -19.71954 -10.65784  -1.17139  -0.79038  -0.59264
 Alpha  occ. eigenvalues --   -0.51983  -0.50306  -0.40713  -0.35294
 Alpha virt. eigenvalues --    0.05155   0.08463   0.12245   0.12513   0.14754
 Alpha virt. eigenvalues --    0.17137   0.18073   0.29092   0.33074   0.33933
 Alpha virt. eigenvalues --    0.36185   0.39036   0.39790   0.41139   0.43783

 Mulliken charges:
               1
     1  C    0.068155
     2  O   -0.443974
     3  H    0.042174
     4  H    0.052115
     5  H    0.072822
     6  H    0.208707
 Sum of Mulliken charges =   0.00000

 Dipole moment (field-independent basis, Debye):
    X=              0.7987    Y=             -1.4194    Z=              0.2062  Tot=              1.6417
 Quadrupole moment (field-independent basis, Debye-Ang):
   XX=            -12.9736   YY=            -12.3640   ZZ=            -13.6724
   XY=              2.2713   XZ=             -0.1456   YZ=             -0.1510

 Normal termination of Gaussian 09 at Wed Aug 26 18:43:00 2020.
