 Gaussian 09, Revision D.01,
 Gaussian 09:  ES64L-G09RevD.01 24-Apr-2013

 --------------------
 #p B2PLYPD3/Def2QZVP
 --------------------

 --------
 methanol
 --------
 Symbolic Z-matrix:
 Charge =  0 Multiplicity = 1

                         Standard orientation:
 ---------------------------------------------------------------------
 Center     Atomic      Atomic             Coordinates (Angstroms)
 Number     Number       Type             X           Y           Z
 ---------------------------------------------------------------------
      1          6           0        0.644083    0.000032    0.009646
      2          8           0       -0.746592    0.071336   -0.021905
      3          1           0        1.065975   -0.842879   -0.771434
      4          1           0        1.028562   -0.221676    1.093504
      5          1           0        1.033399    1.001338   -0.330844
      6          1           0       -1.019697   -0.507660    0.126140
 ---------------------------------------------------------------------

 SCF Done:  E(RB2PLYPD3) =  -115.350670691     A.U. after   11 cycles
 E2(B2PLYPD3) =    -0.1434575079D+00 E(B2PLYPD3) =    -0.11549412819857D+03

 The electronic state is 1-A.
 Alpha  occ. eigenvalues --  -19.69786 -10.68666  -1.27398  -0.81831  -0.62026
 Alpha  occ. eigenvalues --   -0.51644  -0.51160  -0.41355  -0.35939
 Alpha virt. eigenvalues --    0.05318   0.09328   0.11543   0.12077   0.14511
 Alpha virt. eigenvalues --    0.16976   0.17814   0.28227   0.32459   0.33701
 Alpha virt. eigenvalues --    0.35451   0.38378   0.39182   0.41139   0.42892

 Mulliken charges:
               1
     1  C    0.044412
     2  O   -0.199264
     3  H    0.034094
     4  H    0.047883
     5  H    0.083388
     6  H   -0.010512
 Sum of Mulliken charges =   0.00000

 Dipole moment (field-independent basis, Debye):
    X=              0.8745    Y=             -1.0619    Z=              0.3224  Tot=              1.4129
 Quadrupole moment (field-independent basis, Debye-Ang):
   XX=            -13.4086   YY=            -12.6046   ZZ=            -13.4594
   XY=              1.8324   XZ=             -0.4548   YZ=             -0.2872

 Normal termination of Gaussian 09 at Wed Aug 26 10:59:33 2020.
