 Gaussian 09, Revision D.01,
 Gaussian 09:  ES64L-G09RevD.01 24-Apr-2013

 --------------------
 #p B2PLYPD3/Def2QZVP
 --------------------

 --------
 methanol
 --------
 Symbolic Z-matrix:
 Charge =  0 Multiplicity = 1

                         Standard orientation:
 ---------------------------------------------------------------------
 Center     Atomic      Atomic             Coordinates (Angstroms)
 Number     Number       Type             X           Y           Z
 ---------------------------------------------------------------------
      1          6           0       -0.695467   -0.016452    0.038015
      2          8           0        0.767329    0.047914   -0.043494
      3          1           0       -0.935837   -0.152978    1.020692
      4          1           0       -1.074263   -0.938674   -0.726835
      5          1           0       -1.008545    1.146813   -0.379941
      6          1           0        1.052815   -0.339763    0.205944
 ---------------------------------------------------------------------

 SCF Done:  E(RB2PLYPD3) =  -114.979923380     A.U. after   12 cycles
 E2(B2PLYPD3) =    -0.1436318845D+00 E(B2PLYPD3) =    -0.11512355526423D+03

 The electronic state is 1-A.
 Alpha  occ. eigenvalues --  -19.67841 -10.69848  -1.30725  -0.83249  -0.62908
 Alpha  occ. eigenvalues --   -0.51497  -0.48435  -0.41262  -0.36645
 Alpha virt. eigenvalues --    0.04776   0.09588   0.10759   0.11334   0.14418
 Alpha virt. eigenvalues --    0.16393   0.17381   0.28345   0.29782   0.32119
 Alpha virt. eigenvalues --    0.33267   0.35380   0.40946   0.42220   0.42766

 Mulliken charges:
               1
     1  C    0.051843
     2  O   -0.110238
     3  H    0.078706
     4  H    0.056513
     5  H    0.077847
     6  H   -0.154671
 Sum of Mulliken charges =   0.00000

 Dipole moment (field-independent basis, Debye):
    X=             -1.1626    Y=             -0.9147    Z=              0.7978  Tot=              1.6807
 Quadrupole moment (field-independent basis, Debye-Ang):
   XX=            -13.3836   YY=            -12.5375   ZZ=            -13.0252
   XY=             -1.3793   XZ=              0.7413   YZ=             -0.3439

 Normal termination of Gaussian 09 at Wed Aug 26 20:02:47 2020.
