 Gaussian 09, Revision D.01,
 Gaussian 09:  ES64L-G09RevD.01 24-Apr-2013

 --------------------
 #p B2PLYPD3/Def2QZVP
 --------------------

 --------
 methanol
 --------
 Symbolic Z-matrix:
 Charge =  0 Multiplicity = 1

                         Standard orientation:
 ---------------------------------------------------------------------
 Center     Atomic      Atomic             Coordinates (Angstroms)
 Number     Number       Type             X           Y           Z
 ---------------------------------------------------------------------
      1          6           0        0.665263   -0.014078   -0.004368
      2          8           0       -0.746678    0.111494   -0.002617
      3          1           0        1.054269   -0.553115   -0.904934
      4          1           0        1.017474   -0.541730    0.933918
      5          1           0        1.079044    0.975287    0.011940
      6          1           0       -1.168941   -0.687926    0.006222
 ---------------------------------------------------------------------

 SCF Done:  E(RB2PLYPD3) =  -115.548847119     A.U. after   10 cycles
 E2(B2PLYPD3) =    -0.1463533910D+00 E(B2PLYPD3) =    -0.11569520051037D+03

 The electronic state is 1-A.
 Alpha  occ. eigenvalues --  -19.71970 -10.66324  -1.17258  -0.79137  -0.59304
 Alpha  occ. eigenvalues --   -0.51284  -0.50563  -0.40749  -0.35328
 Alpha virt. eigenvalues --    0.05226   0.08362   0.12195   0.12552   0.14727
 Alpha virt. eigenvalues --    0.17174   0.18122   0.29069   0.33109   0.33567
 Alpha virt. eigenvalues --    0.36285   0.39002   0.39998   0.40172   0.43449

 Mulliken charges:
               1
     1  C    0.066531
     2  O   -0.438341
     3  H    0.048121
     4  H    0.043927
     5  H    0.077023
     6  H    0.202739
 Sum of Mulliken charges =   0.00000

 Dipole moment (field-independent basis, Debye):
    X=              0.8035    Y=             -1.3881    Z=              0.0063  Tot=              1.6039
 Quadrupole moment (field-independent basis, Debye-Ang):
   XX=            -12.8446   YY=            -12.4225   ZZ=            -13.7577
   XY=              2.2955   XZ=             -0.0670   YZ=              0.0239

 Normal termination of Gaussian 09 at Wed Aug 26 22:48:13 2020.
