 Gaussian 09, Revision D.01,
 Gaussian 09:  ES64L-G09RevD.01 24-Apr-2013

 --------------------
 #p B2PLYPD3/Def2QZVP
 --------------------

 --------
 methanol
 --------
 Symbolic Z-matrix:
 Charge =  0 Multiplicity = 1

                         Standard orientation:
 ---------------------------------------------------------------------
 Center     Atomic      Atomic             Coordinates (Angstroms)
 Number     Number       Type             X           Y           Z
 ---------------------------------------------------------------------
      1          6           0        0.676505   -0.039096    0.014178
      2          8           0       -0.779978    0.098649   -0.004230
      3          1           0        1.151257   -0.568826   -0.889880
      4          1           0        1.145376   -0.472654    0.892039
      5          1           0        1.081228    1.120699   -0.063684
      6          1           0       -1.197066   -0.633836    0.010297
 ---------------------------------------------------------------------

 SCF Done:  E(RB2PLYPD3) =  -115.519370615     A.U. after   10 cycles
 E2(B2PLYPD3) =    -0.1469834578D+00 E(B2PLYPD3) =    -0.11566635407329D+03

 The electronic state is 1-A.
 Alpha  occ. eigenvalues --  -19.72057 -10.68369  -1.17999  -0.78996  -0.60385
 Alpha  occ. eigenvalues --   -0.50613  -0.47945  -0.40333  -0.36381
 Alpha virt. eigenvalues --    0.05240   0.07983   0.11406   0.12304   0.14928
 Alpha virt. eigenvalues --    0.16889   0.18541   0.28368   0.31475   0.33918
 Alpha virt. eigenvalues --    0.34776   0.38310   0.38778   0.40411   0.41090

 Mulliken charges:
               1
     1  C    0.047380
     2  O   -0.394708
     3  H    0.056989
     4  H    0.070648
     5  H    0.059538
     6  H    0.160154
 Sum of Mulliken charges =   0.00000

 Dipole moment (field-independent basis, Debye):
    X=              0.8883    Y=             -1.4551    Z=              0.0826  Tot=              1.7068
 Quadrupole moment (field-independent basis, Debye-Ang):
   XX=            -12.5657   YY=            -12.6639   ZZ=            -13.9105
   XY=              1.9388   XZ=              0.0238   YZ=             -0.0792

 Normal termination of Gaussian 09 at Wed Aug 26 22:20:48 2020.
