 Gaussian 09, Revision D.01,
 Gaussian 09:  ES64L-G09RevD.01 24-Apr-2013

 --------------------
 #p B2PLYPD3/Def2QZVP
 --------------------

 --------
 methanol
 --------
 Symbolic Z-matrix:
 Charge =  0 Multiplicity = 1

                         Standard orientation:
 ---------------------------------------------------------------------
 Center     Atomic      Atomic             Coordinates (Angstroms)
 Number     Number       Type             X           Y           Z
 ---------------------------------------------------------------------
      1          6           0       -0.659028   -0.024300    0.000115
      2          8           0        0.744683    0.134304   -0.001123
      3          1           0       -1.049732   -0.524714    0.856184
      4          1           0       -1.062528   -0.548598   -0.840934
      5          1           0       -1.066636    0.981161   -0.009174
      6          1           0        1.175600   -0.836482    0.002221
 ---------------------------------------------------------------------

 SCF Done:  E(RB2PLYPD3) =  -115.541591729     A.U. after   11 cycles
 E2(B2PLYPD3) =    -0.1489855479D+00 E(B2PLYPD3) =    -0.11569057727684D+03

 The electronic state is 1-A.
 Alpha  occ. eigenvalues --  -19.73556 -10.64811  -1.14674  -0.78392  -0.57917
 Alpha  occ. eigenvalues --   -0.51590  -0.49475  -0.40919  -0.35241
 Alpha virt. eigenvalues --    0.04170   0.07851   0.12389   0.12707   0.15159
 Alpha virt. eigenvalues --    0.17233   0.18283   0.29059   0.31380   0.33615
 Alpha virt. eigenvalues --    0.34398   0.38515   0.39552   0.41479   0.44078

 Mulliken charges:
               1
     1  C    0.071878
     2  O   -0.475380
     3  H    0.046103
     4  H    0.045324
     5  H    0.065632
     6  H    0.246443
 Sum of Mulliken charges =   0.00000

 Dipole moment (field-independent basis, Debye):
    X=             -0.8255    Y=             -1.6068    Z=              0.0098  Tot=              1.8065
 Quadrupole moment (field-independent basis, Debye-Ang):
   XX=            -12.8951   YY=            -12.0582   ZZ=            -13.9676
   XY=             -2.2898   XZ=              0.0131   YZ=             -0.0046

 Normal termination of Gaussian 09 at Wed Aug 26 23:49:16 2020.
