 Gaussian 09, Revision D.01,
 Gaussian 09:  ES64L-G09RevD.01 24-Apr-2013

 --------------------
 #p B2PLYPD3/Def2QZVP
 --------------------

 --------
 methanol
 --------
 Symbolic Z-matrix:
 Charge =  0 Multiplicity = 1

                         Standard orientation:
 ---------------------------------------------------------------------
 Center     Atomic      Atomic             Coordinates (Angstroms)
 Number     Number       Type             X           Y           Z
 ---------------------------------------------------------------------
      1          6           0        0.661725   -0.027886    0.013402
      2          8           0       -0.740927    0.112906   -0.009226
      3          1           0        0.988009   -0.657788   -0.865453
      4          1           0        1.012610   -0.429601    0.929283
      5          1           0        1.093266    1.015397   -0.122816
      6          1           0       -1.136815   -0.663942    0.052386
 ---------------------------------------------------------------------

 SCF Done:  E(RB2PLYPD3) =  -115.542958633     A.U. after   10 cycles
 E2(B2PLYPD3) =    -0.1457572763D+00 E(B2PLYPD3) =    -0.11568871590906D+03

 The electronic state is 1-A.
 Alpha  occ. eigenvalues --  -19.71575 -10.66259  -1.18344  -0.79267  -0.60042
 Alpha  occ. eigenvalues --   -0.52348  -0.49786  -0.40600  -0.35586
 Alpha virt. eigenvalues --    0.05286   0.08630   0.12205   0.12303   0.14735
 Alpha virt. eigenvalues --    0.17193   0.18001   0.29046   0.33117   0.33732
 Alpha virt. eigenvalues --    0.37014   0.38295   0.39646   0.41537   0.43575

 Mulliken charges:
               1
     1  C    0.067013
     2  O   -0.417494
     3  H    0.044196
     4  H    0.056500
     5  H    0.067411
     6  H    0.182374
 Sum of Mulliken charges =   0.00000

 Dipole moment (field-independent basis, Debye):
    X=              0.8164    Y=             -1.4326    Z=              0.1703  Tot=              1.6577
 Quadrupole moment (field-independent basis, Debye-Ang):
   XX=            -13.0119   YY=            -12.4254   ZZ=            -13.6415
   XY=              2.1670   XZ=             -0.0778   YZ=             -0.1294

 Normal termination of Gaussian 09 at Wed Aug 26 23:11:34 2020.
