 Gaussian 09, Revision D.01,
 Gaussian 09:  ES64L-G09RevD.01 24-Apr-2013

 --------------------
 #p B2PLYPD3/Def2QZVP
 --------------------

 --------
 methanol
 --------
 Symbolic Z-matrix:
 Charge =  0 Multiplicity = 1

                         Standard orientation:
 ---------------------------------------------------------------------
 Center     Atomic      Atomic             Coordinates (Angstroms)
 Number     Number       Type             X           Y           Z
 ---------------------------------------------------------------------
      1          6           0        0.658886    0.002092    0.003732
      2          8           0       -0.760384    0.085435   -0.019612
      3          1           0        1.017050   -0.843270   -0.771286
      4          1           0        1.064637   -0.251195    1.048628
      5          1           0        1.068144    0.978317   -0.292944
      6          1           0       -1.020076   -0.579885    0.150103
 ---------------------------------------------------------------------

 SCF Done:  E(RB2PLYPD3) =  -115.462117338     A.U. after   11 cycles
 E2(B2PLYPD3) =    -0.1444672795D+00 E(B2PLYPD3) =    -0.11560658461799D+03

 The electronic state is 1-A.
 Alpha  occ. eigenvalues --  -19.70567 -10.68004  -1.23387  -0.80190  -0.61133
 Alpha  occ. eigenvalues --   -0.51094  -0.50821  -0.42011  -0.35828
 Alpha virt. eigenvalues --    0.05330   0.09032   0.11650   0.12221   0.14551
 Alpha virt. eigenvalues --    0.17225   0.17772   0.28537   0.32394   0.32926
 Alpha virt. eigenvalues --    0.36089   0.38533   0.39810   0.40282   0.43123

 Mulliken charges:
               1
     1  C    0.054684
     2  O   -0.279935
     3  H    0.037200
     4  H    0.048816
     5  H    0.083381
     6  H    0.055853
 Sum of Mulliken charges =   0.00000

 Dipole moment (field-independent basis, Debye):
    X=              1.0195    Y=             -1.1678    Z=              0.3466  Tot=              1.5885
 Quadrupole moment (field-independent basis, Debye-Ang):
   XX=            -13.4348   YY=            -12.4433   ZZ=            -13.5777
   XY=              1.9581   XZ=             -0.3946   YZ=             -0.2947

 Normal termination of Gaussian 09 at Wed Aug 26 13:24:34 2020.
