 Gaussian 09, Revision D.01,
 Gaussian 09:  ES64L-G09RevD.01 24-Apr-2013

 --------------------
 #p B2PLYPD3/Def2QZVP
 --------------------

 --------
 methanol
 --------
 Symbolic Z-matrix:
 Charge =  0 Multiplicity = 1

                         Standard orientation:
 ---------------------------------------------------------------------
 Center     Atomic      Atomic             Coordinates (Angstroms)
 Number     Number       Type             X           Y           Z
 ---------------------------------------------------------------------
      1          6           0        0.662620    0.025434   -0.001974
      2          8           0       -0.737591   -0.148329   -0.007132
      3          1           0        0.990354    0.444704    0.888732
      4          1           0        1.012244    0.623550   -0.792466
      5          1           0        1.095082   -0.920779   -0.063641
      6          1           0       -1.172673    0.886556    0.036273
 ---------------------------------------------------------------------

 SCF Done:  E(RB2PLYPD3) =  -115.527637956     A.U. after   11 cycles
 E2(B2PLYPD3) =    -0.1497200847D+00 E(B2PLYPD3) =    -0.11567735804052D+03

 The electronic state is 1-A.
 Alpha  occ. eigenvalues --  -19.73642 -10.63678  -1.13852  -0.78730  -0.56940
 Alpha  occ. eigenvalues --   -0.52425  -0.49789  -0.40765  -0.35053
 Alpha virt. eigenvalues --    0.03475   0.07880   0.12571   0.12779   0.14932
 Alpha virt. eigenvalues --    0.17454   0.18190   0.28511   0.29847   0.33393
 Alpha virt. eigenvalues --    0.34452   0.39424   0.40146   0.42235   0.44005

 Mulliken charges:
               1
     1  C    0.084532
     2  O   -0.488304
     3  H    0.044956
     4  H    0.042001
     5  H    0.065440
     6  H    0.251375
 Sum of Mulliken charges =   0.00000

 Dipole moment (field-independent basis, Debye):
    X=              0.8896    Y=              1.6403    Z=              0.0832  Tot=              1.8679
 Quadrupole moment (field-independent basis, Debye-Ang):
   XX=            -12.9703   YY=            -11.9211   ZZ=            -13.8629
   XY=             -2.4183   XZ=             -0.1020   YZ=              0.0310

 Normal termination of Gaussian 09 at Wed Aug 26 23:59:49 2020.
