 Gaussian 09, Revision D.01,
 Gaussian 09:  ES64L-G09RevD.01 24-Apr-2013

 --------------------
 #p B2PLYPD3/Def2QZVP
 --------------------

 --------
 methanol
 --------
 Symbolic Z-matrix:
 Charge =  0 Multiplicity = 1

                         Standard orientation:
 ---------------------------------------------------------------------
 Center     Atomic      Atomic             Coordinates (Angstroms)
 Number     Number       Type             X           Y           Z
 ---------------------------------------------------------------------
      1          6           0       -0.679924    0.003958    0.004373
      2          8           0        0.759144   -0.136627   -0.018807
      3          1           0       -1.098067    0.638711   -0.831048
      4          1           0       -1.025315    0.470567    0.885595
      5          1           0       -1.083351   -0.904978   -0.018727
      6          1           0        1.213127    0.864974    0.088396
 ---------------------------------------------------------------------

 SCF Done:  E(RB2PLYPD3) =  -115.526203389     A.U. after   11 cycles
 E2(B2PLYPD3) =    -0.1501018949D+00 E(B2PLYPD3) =    -0.11567630528389D+03

 The electronic state is 1-A.
 Alpha  occ. eigenvalues --  -19.73716 -10.64647  -1.12858  -0.79042  -0.56581
 Alpha  occ. eigenvalues --   -0.50536  -0.50221  -0.41187  -0.34985
 Alpha virt. eigenvalues --    0.03725   0.07608   0.12498   0.12731   0.14849
 Alpha virt. eigenvalues --    0.17367   0.18220   0.28841   0.30140   0.32966
 Alpha virt. eigenvalues --    0.33369   0.38521   0.40082   0.40746   0.43622

 Mulliken charges:
               1
     1  C    0.081387
     2  O   -0.497793
     3  H    0.040636
     4  H    0.045434
     5  H    0.076896
     6  H    0.253440
 Sum of Mulliken charges =   0.00000

 Dipole moment (field-independent basis, Debye):
    X=             -0.9236    Y=              1.5539    Z=              0.2549  Tot=              1.8256
 Quadrupole moment (field-independent basis, Debye-Ang):
   XX=            -12.7405   YY=            -11.9942   ZZ=            -14.0047
   XY=              2.4931   XZ=              0.1891   YZ=              0.1460

 Normal termination of Gaussian 09 at Wed Aug 26 14:25:43 2020.
