 Gaussian 09, Revision D.01,
 Gaussian 09:  ES64L-G09RevD.01 24-Apr-2013

 --------------------
 #p B2PLYPD3/Def2QZVP
 --------------------

 --------
 methanol
 --------
 Symbolic Z-matrix:
 Charge =  0 Multiplicity = 1

                         Standard orientation:
 ---------------------------------------------------------------------
 Center     Atomic      Atomic             Coordinates (Angstroms)
 Number     Number       Type             X           Y           Z
 ---------------------------------------------------------------------
      1          6           0        0.665757    0.011305   -0.002011
      2          8           0       -0.731535   -0.154796   -0.001516
      3          1           0        0.986194    0.523593    0.864008
      4          1           0        0.923409    0.596067   -0.848922
      5          1           0        1.132754   -0.844738   -0.025127
      6          1           0       -1.184622    0.895613    0.034233
 ---------------------------------------------------------------------

 SCF Done:  E(RB2PLYPD3) =  -115.515550626     A.U. after   11 cycles
 E2(B2PLYPD3) =    -0.1498185859D+00 E(B2PLYPD3) =    -0.11566536921142D+03

 The electronic state is 1-A.
 Alpha  occ. eigenvalues --  -19.73493 -10.63213  -1.13627  -0.79066  -0.56523
 Alpha  occ. eigenvalues --   -0.52333  -0.51024  -0.40512  -0.34597
 Alpha virt. eigenvalues --    0.03101   0.07926   0.12570   0.12953   0.14697
 Alpha virt. eigenvalues --    0.17831   0.17975   0.28034   0.29715   0.33004
 Alpha virt. eigenvalues --    0.34207   0.39343   0.41498   0.42464   0.43535

 Mulliken charges:
               1
     1  C    0.088188
     2  O   -0.492629
     3  H    0.038231
     4  H    0.039375
     5  H    0.070862
     6  H    0.255972
 Sum of Mulliken charges =   0.00000

 Dipole moment (field-independent basis, Debye):
    X=              0.8740    Y=              1.6135    Z=              0.0590  Tot=              1.8360
 Quadrupole moment (field-independent basis, Debye-Ang):
   XX=            -12.9068   YY=            -11.9046   ZZ=            -13.8424
   XY=             -2.6310   XZ=             -0.0199   YZ=              0.0384

 Normal termination of Gaussian 09 at Wed Aug 26 11:21:31 2020.
