 Gaussian 09, Revision D.01,
 Gaussian 09:  ES64L-G09RevD.01 24-Apr-2013

 --------------------
 #p B2PLYPD3/Def2QZVP
 --------------------

 --------
 methanol
 --------
 Symbolic Z-matrix:
 Charge =  0 Multiplicity = 1

                         Standard orientation:
 ---------------------------------------------------------------------
 Center     Atomic      Atomic             Coordinates (Angstroms)
 Number     Number       Type             X           Y           Z
 ---------------------------------------------------------------------
      1          6           0       -0.663499   -0.029089   -0.000476
      2          8           0        0.760175    0.107937   -0.021991
      3          1           0       -1.108528   -0.331498    0.931605
      4          1           0       -0.884167   -0.761383   -0.833631
      5          1           0       -1.147567    1.020786   -0.157013
      6          1           0        1.039853   -0.616870    0.237821
 ---------------------------------------------------------------------

 SCF Done:  E(RB2PLYPD3) =  -115.519093067     A.U. after   11 cycles
 E2(B2PLYPD3) =    -0.1456728247D+00 E(B2PLYPD3) =    -0.11566476589202D+03

 The electronic state is 1-A.
 Alpha  occ. eigenvalues --  -19.71376 -10.67032  -1.20053  -0.79190  -0.60426
 Alpha  occ. eigenvalues --   -0.52739  -0.48885  -0.41368  -0.35930
 Alpha virt. eigenvalues --    0.05276   0.08711   0.11985   0.12032   0.14518
 Alpha virt. eigenvalues --    0.17396   0.18074   0.28964   0.31430   0.33981
 Alpha virt. eigenvalues --    0.36560   0.37469   0.40056   0.41164   0.43315

 Mulliken charges:
               1
     1  C    0.059775
     2  O   -0.367722
     3  H    0.053177
     4  H    0.054275
     5  H    0.063413
     6  H    0.137082
 Sum of Mulliken charges =   0.00000

 Dipole moment (field-independent basis, Debye):
    X=             -1.0362    Y=             -1.3469    Z=              0.5417  Tot=              1.7836
 Quadrupole moment (field-independent basis, Debye-Ang):
   XX=            -13.3495   YY=            -12.4837   ZZ=            -13.5407
   XY=             -2.0003   XZ=              0.3237   YZ=             -0.2522

 Normal termination of Gaussian 09 at Wed Aug 26 23:18:00 2020.
