 Gaussian 09, Revision D.01,
 Gaussian 09:  ES64L-G09RevD.01 24-Apr-2013

 --------------------
 #p B2PLYPD3/Def2QZVP
 --------------------

 --------
 methanol
 --------
 Symbolic Z-matrix:
 Charge =  0 Multiplicity = 1

                         Standard orientation:
 ---------------------------------------------------------------------
 Center     Atomic      Atomic             Coordinates (Angstroms)
 Number     Number       Type             X           Y           Z
 ---------------------------------------------------------------------
      1          6           0        0.654954   -0.010166    0.016897
      2          8           0       -0.760164    0.083485   -0.019340
      3          1           0        1.063994   -0.813407   -0.795175
      4          1           0        0.999726   -0.357945    0.993491
      5          1           0        1.139360    1.079255   -0.220743
      6          1           0       -1.051492   -0.514789    0.075761
 ---------------------------------------------------------------------

 SCF Done:  E(RB2PLYPD3) =  -115.373512181     A.U. after   11 cycles
 E2(B2PLYPD3) =    -0.1439441940D+00 E(B2PLYPD3) =    -0.11551745637473D+03

 The electronic state is 1-A.
 Alpha  occ. eigenvalues --  -19.69866 -10.68887  -1.25948  -0.81105  -0.62407
 Alpha  occ. eigenvalues --   -0.51339  -0.49935  -0.41255  -0.36167
 Alpha virt. eigenvalues --    0.05196   0.09223   0.11412   0.11976   0.14695
 Alpha virt. eigenvalues --    0.17158   0.17565   0.28550   0.32549   0.32661
 Alpha virt. eigenvalues --    0.35079   0.36726   0.40140   0.40660   0.42683

 Mulliken charges:
               1
     1  C    0.055504
     2  O   -0.227424
     3  H    0.035930
     4  H    0.060362
     5  H    0.073850
     6  H    0.001777
 Sum of Mulliken charges =   0.00000

 Dipole moment (field-independent basis, Debye):
    X=              0.9699    Y=             -1.2101    Z=              0.3153  Tot=              1.5825
 Quadrupole moment (field-independent basis, Debye-Ang):
   XX=            -13.2189   YY=            -12.4878   ZZ=            -13.6641
   XY=              1.8788   XZ=             -0.2125   YZ=             -0.2244

 Normal termination of Gaussian 09 at Wed Aug 26 10:47:29 2020.
