 Gaussian 09, Revision D.01,
 Gaussian 09:  ES64L-G09RevD.01 24-Apr-2013

 --------------------
 #p B2PLYPD3/Def2QZVP
 --------------------

 --------
 methanol
 --------
 Symbolic Z-matrix:
 Charge =  0 Multiplicity = 1

                         Standard orientation:
 ---------------------------------------------------------------------
 Center     Atomic      Atomic             Coordinates (Angstroms)
 Number     Number       Type             X           Y           Z
 ---------------------------------------------------------------------
      1          6           0        0.664105   -0.037200   -0.012207
      2          8           0       -0.757227    0.093085    0.015899
      3          1           0        0.957520   -0.536123   -0.934934
      4          1           0        1.029396   -0.561925    0.955835
      5          1           0        1.153785    1.089187   -0.010654
      6          1           0       -1.067514   -0.512618   -0.064197
 ---------------------------------------------------------------------

 SCF Done:  E(RB2PLYPD3) =  -115.396861762     A.U. after   11 cycles
 E2(B2PLYPD3) =    -0.1439514736D+00 E(B2PLYPD3) =    -0.11554081323589D+03

 The electronic state is 1-A.
 Alpha  occ. eigenvalues --  -19.69619 -10.68434  -1.24891  -0.80953  -0.61808
 Alpha  occ. eigenvalues --   -0.52448  -0.49360  -0.40680  -0.36450
 Alpha virt. eigenvalues --    0.05278   0.09249   0.11646   0.11828   0.14276
 Alpha virt. eigenvalues --    0.17209   0.17802   0.28534   0.32273   0.33019
 Alpha virt. eigenvalues --    0.34687   0.38090   0.40208   0.40581   0.43337

 Mulliken charges:
               1
     1  C    0.055185
     2  O   -0.244894
     3  H    0.062414
     4  H    0.055263
     5  H    0.064836
     6  H    0.007196
 Sum of Mulliken charges =   0.00000

 Dipole moment (field-independent basis, Debye):
    X=              0.9898    Y=             -1.2974    Z=             -0.2321  Tot=              1.6483
 Quadrupole moment (field-independent basis, Debye-Ang):
   XX=            -13.1974   YY=            -12.6475   ZZ=            -13.3977
   XY=              1.8953   XZ=              0.2044   YZ=              0.1482

 Normal termination of Gaussian 09 at Wed Aug 26 16:27:40 2020.
