 Gaussian 09, Revision D.01,
 Gaussian 09:  ES64L-G09RevD.01 24-Apr-2013

 --------------------
 #p B2PLYPD3/Def2QZVP
 --------------------

 --------
 methanol
 --------
 Symbolic Z-matrix:
 Charge =  0 Multiplicity = 1

                         Standard orientation:
 ---------------------------------------------------------------------
 Center     Atomic      Atomic             Coordinates (Angstroms)
 Number     Number       Type             X           Y           Z
 ---------------------------------------------------------------------
      1          6           0        0.672165   -0.012921    0.006358
      2          8           0       -0.743143    0.104088   -0.006431
      3          1           0        1.064592   -0.601589   -0.859143
      4          1           0        0.975920   -0.529552    0.903505
      5          1           0        1.005145    1.054091   -0.030953
      6          1           0       -1.133508   -0.678126   -0.000113
 ---------------------------------------------------------------------

 SCF Done:  E(RB2PLYPD3) =  -115.543295986     A.U. after   10 cycles
 E2(B2PLYPD3) =    -0.1458889305D+00 E(B2PLYPD3) =    -0.11568918491613D+03

 The electronic state is 1-A.
 Alpha  occ. eigenvalues --  -19.71417 -10.66230  -1.17928  -0.79316  -0.60095
 Alpha  occ. eigenvalues --   -0.51655  -0.49555  -0.41293  -0.35349
 Alpha virt. eigenvalues --    0.05261   0.08676   0.12008   0.12392   0.15051
 Alpha virt. eigenvalues --    0.16822   0.17717   0.29210   0.32968   0.33565
 Alpha virt. eigenvalues --    0.38026   0.38270   0.39704   0.40379   0.43138

 Mulliken charges:
               1
     1  C    0.068889
     2  O   -0.422264
     3  H    0.044972
     4  H    0.051712
     5  H    0.076195
     6  H    0.180496
 Sum of Mulliken charges =   0.00000

 Dipole moment (field-independent basis, Debye):
    X=              0.8536    Y=             -1.4381    Z=              0.0475  Tot=              1.6731
 Quadrupole moment (field-independent basis, Debye-Ang):
   XX=            -13.1201   YY=            -12.1459   ZZ=            -13.7837
   XY=              2.0517   XZ=             -0.0531   YZ=             -0.0421

 Normal termination of Gaussian 09 at Wed Aug 26 12:17:54 2020.
