 Gaussian 09, Revision D.01,
 Gaussian 09:  ES64L-G09RevD.01 24-Apr-2013

 --------------------
 #p B2PLYPD3/Def2QZVP
 --------------------

 --------
 methanol
 --------
 Symbolic Z-matrix:
 Charge =  0 Multiplicity = 1

                         Standard orientation:
 ---------------------------------------------------------------------
 Center     Atomic      Atomic             Coordinates (Angstroms)
 Number     Number       Type             X           Y           Z
 ---------------------------------------------------------------------
      1          6           0        0.710898    0.034478    0.013373
      2          8           0       -0.748650   -0.200851   -0.022537
      3          1           0        0.911865    0.338189    0.837811
      4          1           0        1.091749    0.656199   -0.707815
      5          1           0        1.070707   -0.754616   -0.092378
      6          1           0       -1.350509    1.160164    0.062439
 ---------------------------------------------------------------------

 SCF Done:  E(RB2PLYPD3) =  -115.366112728     A.U. after   12 cycles
 E2(B2PLYPD3) =    -0.1580817059D+00 E(B2PLYPD3) =    -0.11552419443396D+03

 The electronic state is 1-A.
 Alpha  occ. eigenvalues --  -19.75346 -10.60369  -1.09505  -0.82413  -0.56108
 Alpha  occ. eigenvalues --   -0.53450  -0.47579  -0.39041  -0.35448
 Alpha virt. eigenvalues --   -0.02752   0.07372   0.12690   0.12986   0.14308
 Alpha virt. eigenvalues --    0.17234   0.18450   0.21528   0.29036   0.32030
 Alpha virt. eigenvalues --    0.33799   0.38656   0.40565   0.42950   0.45432

 Mulliken charges:
               1
     1  C    0.052584
     2  O   -0.500507
     3  H    0.073294
     4  H    0.049938
     5  H    0.102193
     6  H    0.222499
 Sum of Mulliken charges =   0.00000

 Dipole moment (field-independent basis, Debye):
    X=              1.2285    Y=              1.6806    Z=              0.1790  Tot=              2.0894
 Quadrupole moment (field-independent basis, Debye-Ang):
   XX=            -12.4907   YY=            -11.4272   ZZ=            -13.8293
   XY=             -2.6863   XZ=             -0.2103   YZ=              0.0976

 Normal termination of Gaussian 09 at Wed Aug 26 23:52:24 2020.
