 Gaussian 09, Revision D.01,
 Gaussian 09:  ES64L-G09RevD.01 24-Apr-2013

 --------------------
 #p B2PLYPD3/Def2QZVP
 --------------------

 --------
 methanol
 --------
 Symbolic Z-matrix:
 Charge =  0 Multiplicity = 1

                         Standard orientation:
 ---------------------------------------------------------------------
 Center     Atomic      Atomic             Coordinates (Angstroms)
 Number     Number       Type             X           Y           Z
 ---------------------------------------------------------------------
      1          6           0        0.659818   -0.008319   -0.004570
      2          8           0       -0.748213    0.103350    0.002867
      3          1           0        1.008825   -0.568385   -0.913071
      4          1           0        1.009945   -0.556151    0.940202
      5          1           0        1.087750    0.997474   -0.008133
      6          1           0       -1.079726   -0.649829   -0.014516
 ---------------------------------------------------------------------

 SCF Done:  E(RB2PLYPD3) =  -115.528348690     A.U. after   10 cycles
 E2(B2PLYPD3) =    -0.1451468238D+00 E(B2PLYPD3) =    -0.11567349551362D+03

 The electronic state is 1-A.
 Alpha  occ. eigenvalues --  -19.71238 -10.66815  -1.20017  -0.79590  -0.60380
 Alpha  occ. eigenvalues --   -0.51528  -0.50759  -0.41410  -0.35492
 Alpha virt. eigenvalues --    0.05346   0.08835   0.12023   0.12373   0.14655
 Alpha virt. eigenvalues --    0.17311   0.17788   0.28928   0.32904   0.33393
 Alpha virt. eigenvalues --    0.37187   0.39563   0.39656   0.40051   0.43465

 Mulliken charges:
               1
     1  C    0.064679
     2  O   -0.373747
     3  H    0.045569
     4  H    0.042379
     5  H    0.077799
     6  H    0.143320
 Sum of Mulliken charges =   0.00000

 Dipole moment (field-independent basis, Debye):
    X=              0.9090    Y=             -1.3385    Z=             -0.0591  Tot=              1.6191
 Quadrupole moment (field-independent basis, Debye-Ang):
   XX=            -13.2302   YY=            -12.3421   ZZ=            -13.6837
   XY=              2.1465   XZ=              0.0057   YZ=              0.0468

 Normal termination of Gaussian 09 at Wed Aug 26 20:43:24 2020.
