 Gaussian 09, Revision D.01,
 Gaussian 09:  ES64L-G09RevD.01 24-Apr-2013

 --------------------
 #p B2PLYPD3/Def2QZVP
 --------------------

 --------
 methanol
 --------
 Symbolic Z-matrix:
 Charge =  0 Multiplicity = 1

                         Standard orientation:
 ---------------------------------------------------------------------
 Center     Atomic      Atomic             Coordinates (Angstroms)
 Number     Number       Type             X           Y           Z
 ---------------------------------------------------------------------
      1          6           0        0.651295   -0.027981   -0.010073
      2          8           0       -0.748746    0.119256   -0.002642
      3          1           0        1.075273   -0.578162   -0.838937
      4          1           0        1.120707   -0.459264    0.904032
      5          1           0        1.039692    1.025865   -0.031246
      6          1           0       -1.153476   -0.774601    0.047725
 ---------------------------------------------------------------------

 SCF Done:  E(RB2PLYPD3) =  -115.548549956     A.U. after   11 cycles
 E2(B2PLYPD3) =    -0.1479897891D+00 E(B2PLYPD3) =    -0.11569653974551D+03

 The electronic state is 1-A.
 Alpha  occ. eigenvalues --  -19.73291 -10.65968  -1.16356  -0.78219  -0.59142
 Alpha  occ. eigenvalues --   -0.51371  -0.49348  -0.40748  -0.35502
 Alpha virt. eigenvalues --    0.04801   0.07944   0.12159   0.12561   0.15230
 Alpha virt. eigenvalues --    0.17044   0.18515   0.28944   0.33420   0.33880
 Alpha virt. eigenvalues --    0.35003   0.37404   0.39582   0.40779   0.43040

 Mulliken charges:
               1
     1  C    0.057356
     2  O   -0.448229
     3  H    0.052011
     4  H    0.045278
     5  H    0.062220
     6  H    0.231364
 Sum of Mulliken charges =   0.00000

 Dipole moment (field-independent basis, Debye):
    X=              0.7682    Y=             -1.5360    Z=              0.0609  Tot=              1.7184
 Quadrupole moment (field-independent basis, Debye-Ang):
   XX=            -12.9244   YY=            -12.2734   ZZ=            -13.9661
   XY=              2.1457   XZ=             -0.1113   YZ=              0.0095

 Normal termination of Gaussian 09 at Wed Aug 26 14:56:39 2020.
