 Gaussian 09, Revision D.01,
 Gaussian 09:  ES64L-G09RevD.01 24-Apr-2013

 --------------------
 #p B2PLYPD3/Def2QZVP
 --------------------

 --------
 methanol
 --------
 Symbolic Z-matrix:
 Charge =  0 Multiplicity = 1

                         Standard orientation:
 ---------------------------------------------------------------------
 Center     Atomic      Atomic             Coordinates (Angstroms)
 Number     Number       Type             X           Y           Z
 ---------------------------------------------------------------------
      1          6           0       -0.675566   -0.014972    0.025076
      2          8           0        0.741454    0.077614   -0.029948
      3          1           0       -0.916150   -0.281688    1.076986
      4          1           0       -1.068652   -0.797909   -0.811478
      5          1           0       -1.057222    1.022141   -0.271969
      6          1           0        1.163786   -0.473620    0.095591
 ---------------------------------------------------------------------

 SCF Done:  E(RB2PLYPD3) =  -115.423463115     A.U. after   11 cycles
 E2(B2PLYPD3) =    -0.1439866234D+00 E(B2PLYPD3) =    -0.11556744973870D+03

 The electronic state is 1-A.
 Alpha  occ. eigenvalues --  -19.69154 -10.68494  -1.23014  -0.81889  -0.60827
 Alpha  occ. eigenvalues --   -0.52182  -0.50118  -0.39642  -0.35774
 Alpha virt. eigenvalues --    0.05378   0.09212   0.11670   0.12096   0.14091
 Alpha virt. eigenvalues --    0.16700   0.17776   0.28831   0.32190   0.32636
 Alpha virt. eigenvalues --    0.36263   0.38132   0.39981   0.40569   0.42740

 Mulliken charges:
               1
     1  C    0.056806
     2  O   -0.261700
     3  H    0.062987
     4  H    0.043167
     5  H    0.084180
     6  H    0.014560
 Sum of Mulliken charges =   0.00000

 Dipole moment (field-independent basis, Debye):
    X=             -0.8066    Y=             -1.0907    Z=              0.3471  Tot=              1.4002
 Quadrupole moment (field-independent basis, Debye-Ang):
   XX=            -12.8988   YY=            -12.7857   ZZ=            -13.3371
   XY=             -1.9662   XZ=              0.4972   YZ=             -0.2237

 Normal termination of Gaussian 09 at Wed Aug 26 15:20:58 2020.
