 Gaussian 09, Revision D.01,
 Gaussian 09:  ES64L-G09RevD.01 24-Apr-2013

 --------------------
 #p B2PLYPD3/Def2QZVP
 --------------------

 --------
 methanol
 --------
 Symbolic Z-matrix:
 Charge =  0 Multiplicity = 1

                         Standard orientation:
 ---------------------------------------------------------------------
 Center     Atomic      Atomic             Coordinates (Angstroms)
 Number     Number       Type             X           Y           Z
 ---------------------------------------------------------------------
      1          6           0        0.668147   -0.015020    0.010078
      2          8           0       -0.753094    0.102183   -0.010196
      3          1           0        1.026962   -0.662471   -0.855497
      4          1           0        0.987711   -0.461068    0.934070
      5          1           0        1.070177    1.044847   -0.096903
      6          1           0       -1.068983   -0.648658    0.039435
 ---------------------------------------------------------------------

 SCF Done:  E(RB2PLYPD3) =  -115.524109961     A.U. after   10 cycles
 E2(B2PLYPD3) =    -0.1452069280D+00 E(B2PLYPD3) =    -0.11566931688904D+03

 The electronic state is 1-A.
 Alpha  occ. eigenvalues --  -19.71051 -10.66777  -1.19870  -0.79560  -0.60531
 Alpha  occ. eigenvalues --   -0.51871  -0.49667  -0.41655  -0.35743
 Alpha virt. eigenvalues --    0.05332   0.08888   0.11980   0.12192   0.14809
 Alpha virt. eigenvalues --    0.17140   0.17679   0.29021   0.32739   0.33105
 Alpha virt. eigenvalues --    0.37602   0.38360   0.39738   0.40874   0.43207

 Mulliken charges:
               1
     1  C    0.067667
     2  O   -0.373052
     3  H    0.043696
     4  H    0.055071
     5  H    0.072994
     6  H    0.133624
 Sum of Mulliken charges =   0.00000

 Dipole moment (field-independent basis, Debye):
    X=              0.9812    Y=             -1.3956    Z=              0.1488  Tot=              1.7125
 Quadrupole moment (field-independent basis, Debye-Ang):
   XX=            -13.3149   YY=            -12.2327   ZZ=            -13.6692
   XY=              2.0135   XZ=             -0.0998   YZ=             -0.1159

 Normal termination of Gaussian 09 at Wed Aug 26 10:03:45 2020.
