 Gaussian 09, Revision D.01,
 Gaussian 09:  ES64L-G09RevD.01 24-Apr-2013

 --------------------
 #p B2PLYPD3/Def2QZVP
 --------------------

 --------
 methanol
 --------
 Symbolic Z-matrix:
 Charge =  0 Multiplicity = 1

                         Standard orientation:
 ---------------------------------------------------------------------
 Center     Atomic      Atomic             Coordinates (Angstroms)
 Number     Number       Type             X           Y           Z
 ---------------------------------------------------------------------
      1          6           0        0.645544    0.010783   -0.003678
      2          8           0       -0.735052   -0.144885   -0.004006
      3          1           0        0.990282    0.529290    0.875355
      4          1           0        1.087085    0.523979   -0.837227
      5          1           0        1.045739   -0.898197    0.023970
      6          1           0       -1.115955    0.939308   -0.007987
 ---------------------------------------------------------------------

 SCF Done:  E(RB2PLYPD3) =  -115.517806031     A.U. after   11 cycles
 E2(B2PLYPD3) =    -0.1502628987D+00 E(B2PLYPD3) =    -0.11566806892966D+03

 The electronic state is 1-A.
 Alpha  occ. eigenvalues --  -19.74187 -10.63635  -1.14665  -0.78544  -0.57210
 Alpha  occ. eigenvalues --   -0.51802  -0.50454  -0.40988  -0.34854
 Alpha virt. eigenvalues --    0.02991   0.07843   0.12605   0.12791   0.15064
 Alpha virt. eigenvalues --    0.17506   0.18354   0.27626   0.29604   0.33237
 Alpha virt. eigenvalues --    0.35400   0.38729   0.40624   0.41645   0.43720

 Mulliken charges:
               1
     1  C    0.075568
     2  O   -0.471369
     3  H    0.036065
     4  H    0.038139
     5  H    0.067154
     6  H    0.254442
 Sum of Mulliken charges =   0.00000

 Dipole moment (field-independent basis, Debye):
    X=              0.8737    Y=              1.6030    Z=             -0.0015  Tot=              1.8256
 Quadrupole moment (field-independent basis, Debye-Ang):
   XX=            -13.2283   YY=            -11.7948   ZZ=            -13.9546
   XY=             -2.3690   XZ=             -0.0637   YZ=             -0.0311

 Normal termination of Gaussian 09 at Wed Aug 26 12:50:04 2020.
