 Gaussian 09, Revision D.01,
 Gaussian 09:  ES64L-G09RevD.01 24-Apr-2013

 --------------------
 #p B2PLYPD3/Def2QZVP
 --------------------

 --------
 methanol
 --------
 Symbolic Z-matrix:
 Charge =  0 Multiplicity = 1

                         Standard orientation:
 ---------------------------------------------------------------------
 Center     Atomic      Atomic             Coordinates (Angstroms)
 Number     Number       Type             X           Y           Z
 ---------------------------------------------------------------------
      1          6           0        0.669508    0.056964    0.004291
      2          8           0       -0.722009   -0.195066   -0.019346
      3          1           0        0.884564    0.337719    0.804459
      4          1           0        0.970689    0.705580   -0.658072
      5          1           0        1.157314   -0.879047   -0.092730
      6          1           0       -1.253540    1.054487    0.075366
 ---------------------------------------------------------------------

 SCF Done:  E(RB2PLYPD3) =  -115.421373350     A.U. after   12 cycles
 E2(B2PLYPD3) =    -0.1541444155D+00 E(B2PLYPD3) =    -0.11557551776584D+03

 The electronic state is 1-A.
 Alpha  occ. eigenvalues --  -19.74696 -10.60959  -1.12056  -0.80718  -0.55343
 Alpha  occ. eigenvalues --   -0.54889  -0.48582  -0.39393  -0.35242
 Alpha virt. eigenvalues --   -0.00454   0.07579   0.12435   0.13146   0.14854
 Alpha virt. eigenvalues --    0.17359   0.18384   0.22913   0.29606   0.33393
 Alpha virt. eigenvalues --    0.34504   0.38684   0.40039   0.44233   0.44690

 Mulliken charges:
               1
     1  C    0.076019
     2  O   -0.490702
     3  H    0.083029
     4  H    0.042351
     5  H    0.054462
     6  H    0.234841
 Sum of Mulliken charges =   0.00000

 Dipole moment (field-independent basis, Debye):
    X=              1.0222    Y=              1.8084    Z=              0.2253  Tot=              2.0895
 Quadrupole moment (field-independent basis, Debye-Ang):
   XX=            -12.8454   YY=            -11.4963   ZZ=            -13.8716
   XY=             -2.4815   XZ=             -0.1249   YZ=              0.0513

 Normal termination of Gaussian 09 at Wed Aug 26 22:38:09 2020.
