 Gaussian 09, Revision D.01,
 Gaussian 09:  ES64L-G09RevD.01 24-Apr-2013

 --------------------
 #p B2PLYPD3/Def2QZVP
 --------------------

 --------
 methanol
 --------
 Symbolic Z-matrix:
 Charge =  0 Multiplicity = 1

                         Standard orientation:
 ---------------------------------------------------------------------
 Center     Atomic      Atomic             Coordinates (Angstroms)
 Number     Number       Type             X           Y           Z
 ---------------------------------------------------------------------
      1          6           0       -0.669405   -0.018284    0.004302
      2          8           0        0.749531    0.100378   -0.003971
      3          1           0       -1.071712   -0.479729    0.921064
      4          1           0       -0.991843   -0.615435   -0.900468
      5          1           0       -1.037925    1.042145   -0.070154
      6          1           0        1.121668   -0.640304    0.055515
 ---------------------------------------------------------------------

 SCF Done:  E(RB2PLYPD3) =  -115.531088813     A.U. after   10 cycles
 E2(B2PLYPD3) =    -0.1454021904D+00 E(B2PLYPD3) =    -0.11567649100370D+03

 The electronic state is 1-A.
 Alpha  occ. eigenvalues --  -19.71161 -10.66832  -1.19173  -0.79598  -0.60306
 Alpha  occ. eigenvalues --   -0.51665  -0.49714  -0.41142  -0.35673
 Alpha virt. eigenvalues --    0.05369   0.08742   0.12128   0.12174   0.14793
 Alpha virt. eigenvalues --    0.16935   0.17950   0.29036   0.32715   0.33554
 Alpha virt. eigenvalues --    0.37650   0.38606   0.39867   0.40328   0.42768

 Mulliken charges:
               1
     1  C    0.062174
     2  O   -0.386912
     3  H    0.053541
     4  H    0.048595
     5  H    0.074248
     6  H    0.148354
 Sum of Mulliken charges =   0.00000

 Dipole moment (field-independent basis, Debye):
    X=             -0.8842    Y=             -1.3734    Z=              0.1358  Tot=              1.6391
 Quadrupole moment (field-independent basis, Debye-Ang):
   XX=            -13.0833   YY=            -12.3598   ZZ=            -13.6681
   XY=             -2.0551   XZ=              0.0486   YZ=             -0.0987

 Normal termination of Gaussian 09 at Wed Aug 26 15:28:52 2020.
