 Gaussian 09, Revision D.01,
 Gaussian 09:  ES64L-G09RevD.01 24-Apr-2013

 --------------------
 #p B2PLYPD3/Def2QZVP
 --------------------

 --------
 methanol
 --------
 Symbolic Z-matrix:
 Charge =  0 Multiplicity = 1

                         Standard orientation:
 ---------------------------------------------------------------------
 Center     Atomic      Atomic             Coordinates (Angstroms)
 Number     Number       Type             X           Y           Z
 ---------------------------------------------------------------------
      1          6           0       -0.711207   -0.026371    0.014487
      2          8           0        0.768999    0.062430   -0.019537
      3          1           0       -0.922654   -0.388556    1.043613
      4          1           0       -1.100351   -0.754238   -0.839233
      5          1           0       -1.046637    1.180721   -0.170924
      6          1           0        1.184889   -0.379146    0.035915
 ---------------------------------------------------------------------

 SCF Done:  E(RB2PLYPD3) =  -115.217758205     A.U. after   11 cycles
 E2(B2PLYPD3) =    -0.1443085148D+00 E(B2PLYPD3) =    -0.11536206671948D+03

 The electronic state is 1-A.
 Alpha  occ. eigenvalues --  -19.67428 -10.70550  -1.25603  -0.82559  -0.60986
 Alpha  occ. eigenvalues --   -0.51523  -0.48312  -0.39129  -0.36376
 Alpha virt. eigenvalues --    0.04905   0.09339   0.10851   0.11671   0.13870
 Alpha virt. eigenvalues --    0.16328   0.17397   0.28179   0.29819   0.32828
 Alpha virt. eigenvalues --    0.33507   0.36367   0.39617   0.40853   0.41924

 Mulliken charges:
               1
     1  C    0.059262
     2  O   -0.208065
     3  H    0.077194
     4  H    0.065715
     5  H    0.086282
     6  H   -0.080387
 Sum of Mulliken charges =   0.00000

 Dipole moment (field-independent basis, Debye):
    X=             -1.1052    Y=             -1.1021    Z=              0.2088  Tot=              1.5748
 Quadrupole moment (field-independent basis, Debye-Ang):
   XX=            -12.8050   YY=            -12.5757   ZZ=            -13.3556
   XY=             -1.6419   XZ=              0.3108   YZ=             -0.0754

 Normal termination of Gaussian 09 at Wed Aug 26 23:23:36 2020.
