 Gaussian 09, Revision D.01,
 Gaussian 09:  ES64L-G09RevD.01 24-Apr-2013

 --------------------
 #p B2PLYPD3/Def2QZVP
 --------------------

 --------
 methanol
 --------
 Symbolic Z-matrix:
 Charge =  0 Multiplicity = 1

                         Standard orientation:
 ---------------------------------------------------------------------
 Center     Atomic      Atomic             Coordinates (Angstroms)
 Number     Number       Type             X           Y           Z
 ---------------------------------------------------------------------
      1          6           0       -0.648039    0.016251   -0.001704
      2          8           0        0.754917   -0.054545   -0.037715
      3          1           0       -1.046689    1.179019   -0.181162
      4          1           0       -1.192157   -0.483001    0.994224
      5          1           0       -1.016044   -0.681699   -0.834938
      6          1           0        1.103793    0.324537    0.333820
 ---------------------------------------------------------------------

 SCF Done:  E(RB2PLYPD3) =  -115.291444497     A.U. after   11 cycles
 E2(B2PLYPD3) =    -0.1441298222D+00 E(B2PLYPD3) =    -0.11543557431924D+03

 The electronic state is 1-A.
 Alpha  occ. eigenvalues --  -19.69761 -10.70122  -1.27649  -0.82725  -0.61783
 Alpha  occ. eigenvalues --   -0.51449  -0.50078  -0.40323  -0.35927
 Alpha virt. eigenvalues --    0.05118   0.08962   0.11256   0.11979   0.14391
 Alpha virt. eigenvalues --    0.16588   0.18349   0.28242   0.31974   0.33405
 Alpha virt. eigenvalues --    0.33718   0.36966   0.38443   0.41048   0.42298

 Mulliken charges:
               1
     1  C    0.036069
     2  O   -0.173338
     3  H    0.042748
     4  H    0.044348
     5  H    0.086668
     6  H   -0.036494
 Sum of Mulliken charges =   0.00000

 Dipole moment (field-independent basis, Debye):
    X=             -0.7667    Y=              0.7507    Z=              0.6826  Tot=              1.2717
 Quadrupole moment (field-independent basis, Debye-Ang):
   XX=            -12.9915   YY=            -13.0197   ZZ=            -13.4258
   XY=              1.4090   XZ=              1.2673   YZ=              0.4273

 Normal termination of Gaussian 09 at Wed Aug 26 23:07:10 2020.
