 Gaussian 09, Revision D.01,
 Gaussian 09:  ES64L-G09RevD.01 24-Apr-2013

 --------------------
 #p B2PLYPD3/Def2QZVP
 --------------------

 --------
 methanol
 --------
 Symbolic Z-matrix:
 Charge =  0 Multiplicity = 1

                         Standard orientation:
 ---------------------------------------------------------------------
 Center     Atomic      Atomic             Coordinates (Angstroms)
 Number     Number       Type             X           Y           Z
 ---------------------------------------------------------------------
      1          6           0       -0.661364    0.033263    0.003124
      2          8           0        0.736665   -0.144313   -0.006623
      3          1           0       -1.007451    0.567388   -0.828593
      4          1           0       -1.007143    0.475857    0.848354
      5          1           0       -1.059787   -0.966423   -0.024640
      6          1           0        1.149239    0.878098    0.039125
 ---------------------------------------------------------------------

 SCF Done:  E(RB2PLYPD3) =  -115.530199537     A.U. after   11 cycles
 E2(B2PLYPD3) =    -0.1494420556D+00 E(B2PLYPD3) =    -0.11567964159284D+03

 The electronic state is 1-A.
 Alpha  occ. eigenvalues --  -19.73561 -10.63745  -1.14242  -0.78700  -0.57402
 Alpha  occ. eigenvalues --   -0.52931  -0.49149  -0.40783  -0.35290
 Alpha virt. eigenvalues --    0.03739   0.07974   0.12450   0.12698   0.15055
 Alpha virt. eigenvalues --    0.17276   0.18231   0.28803   0.30192   0.33543
 Alpha virt. eigenvalues --    0.34645   0.38687   0.39866   0.42719   0.44627

 Mulliken charges:
               1
     1  C    0.081501
     2  O   -0.482176
     3  H    0.045257
     4  H    0.046819
     5  H    0.061786
     6  H    0.246814
 Sum of Mulliken charges =   0.00000

 Dipole moment (field-independent basis, Debye):
    X=             -0.9016    Y=              1.6570    Z=              0.1034  Tot=              1.8892
 Quadrupole moment (field-independent basis, Debye-Ang):
   XX=            -13.1071   YY=            -11.9137   ZZ=            -13.8119
   XY=              2.2717   XZ=              0.0554   YZ=              0.0571

 Normal termination of Gaussian 09 at Thu Aug 27 00:15:11 2020.
