 Gaussian 09, Revision D.01,
 Gaussian 09:  ES64L-G09RevD.01 24-Apr-2013

 --------------------
 #p B2PLYPD3/Def2QZVP
 --------------------

 --------
 methanol
 --------
 Symbolic Z-matrix:
 Charge =  0 Multiplicity = 1

                         Standard orientation:
 ---------------------------------------------------------------------
 Center     Atomic      Atomic             Coordinates (Angstroms)
 Number     Number       Type             X           Y           Z
 ---------------------------------------------------------------------
      1          6           0        0.651027    0.013915    0.020868
      2          8           0       -0.743561   -0.135693   -0.019807
      3          1           0        0.978628    0.463572    0.878371
      4          1           0        1.059379    0.603826   -0.878368
      5          1           0        1.116973   -0.909374   -0.041002
      6          1           0       -1.112659    0.844030    0.074244
 ---------------------------------------------------------------------

 SCF Done:  E(RB2PLYPD3) =  -115.537066455     A.U. after   11 cycles
 E2(B2PLYPD3) =    -0.1486381536D+00 E(B2PLYPD3) =    -0.11568570460898D+03

 The electronic state is 1-A.
 Alpha  occ. eigenvalues --  -19.73525 -10.64596  -1.15364  -0.78686  -0.57923
 Alpha  occ. eigenvalues --   -0.51797  -0.50547  -0.41069  -0.35069
 Alpha virt. eigenvalues --    0.04192   0.07966   0.12367   0.12779   0.14813
 Alpha virt. eigenvalues --    0.17780   0.18256   0.29015   0.31281   0.33032
 Alpha virt. eigenvalues --    0.34523   0.38596   0.40801   0.41192   0.44247

 Mulliken charges:
               1
     1  C    0.075400
     2  O   -0.468401
     3  H    0.046713
     4  H    0.031741
     5  H    0.067109
     6  H    0.247439
 Sum of Mulliken charges =   0.00000

 Dipole moment (field-independent basis, Debye):
    X=              0.8771    Y=              1.5310    Z=              0.2766  Tot=              1.7860
 Quadrupole moment (field-independent basis, Debye-Ang):
   XX=            -13.1417   YY=            -12.1132   ZZ=            -13.8293
   XY=             -2.3986   XZ=             -0.1162   YZ=              0.2205

 Normal termination of Gaussian 09 at Wed Aug 26 13:29:24 2020.
