 Gaussian 09, Revision D.01,
 Gaussian 09:  ES64L-G09RevD.01 24-Apr-2013

 --------------------
 #p B2PLYPD3/Def2QZVP
 --------------------

 --------
 methanol
 --------
 Symbolic Z-matrix:
 Charge =  0 Multiplicity = 1

                         Standard orientation:
 ---------------------------------------------------------------------
 Center     Atomic      Atomic             Coordinates (Angstroms)
 Number     Number       Type             X           Y           Z
 ---------------------------------------------------------------------
      1          6           0        0.661971    0.007743    0.003352
      2          8           0       -0.759231   -0.093566   -0.040563
      3          1           0        1.045480    0.149584    1.056019
      4          1           0        0.997757    0.891114   -0.716260
      5          1           0        1.121840   -0.917457   -0.314286
      6          1           0       -1.063054    0.578823    0.278916
 ---------------------------------------------------------------------

 SCF Done:  E(RB2PLYPD3) =  -115.514667998     A.U. after   11 cycles
 E2(B2PLYPD3) =    -0.1452965654D+00 E(B2PLYPD3) =    -0.11565996456372D+03

 The electronic state is 1-A.
 Alpha  occ. eigenvalues --  -19.71257 -10.67351  -1.20483  -0.79636  -0.60246
 Alpha  occ. eigenvalues --   -0.51584  -0.50532  -0.41345  -0.35731
 Alpha virt. eigenvalues --    0.05338   0.08762   0.11701   0.12526   0.14316
 Alpha virt. eigenvalues --    0.17451   0.18065   0.28710   0.32259   0.33275
 Alpha virt. eigenvalues --    0.36151   0.38727   0.39643   0.40649   0.43694

 Mulliken charges:
               1
     1  C    0.059749
     2  O   -0.355375
     3  H    0.047600
     4  H    0.042935
     5  H    0.078821
     6  H    0.126271
 Sum of Mulliken charges =   0.00000

 Dipole moment (field-independent basis, Debye):
    X=              0.9862    Y=              1.1333    Z=              0.6196  Tot=              1.6251
 Quadrupole moment (field-independent basis, Debye-Ang):
   XX=            -13.2495   YY=            -12.6501   ZZ=            -13.4566
   XY=             -2.0449   XZ=             -0.7682   YZ=              0.3692

 Normal termination of Gaussian 09 at Wed Aug 26 14:40:28 2020.
