 Gaussian 09, Revision D.01,
 Gaussian 09:  ES64L-G09RevD.01 24-Apr-2013

 --------------------
 #p B2PLYPD3/Def2QZVP
 --------------------

 --------
 methanol
 --------
 Symbolic Z-matrix:
 Charge =  0 Multiplicity = 1

                         Standard orientation:
 ---------------------------------------------------------------------
 Center     Atomic      Atomic             Coordinates (Angstroms)
 Number     Number       Type             X           Y           Z
 ---------------------------------------------------------------------
      1          6           0        0.661176    0.020858   -0.003891
      2          8           0       -0.728788   -0.155122   -0.001813
      3          1           0        0.999125    0.435255    0.923030
      4          1           0        0.927642    0.625460   -0.825771
      5          1           0        1.124644   -0.837403   -0.095953
      6          1           0       -1.188162    0.892515    0.036547
 ---------------------------------------------------------------------

 SCF Done:  E(RB2PLYPD3) =  -115.516602436     A.U. after   11 cycles
 E2(B2PLYPD3) =    -0.1498000037D+00 E(B2PLYPD3) =    -0.11566640243991D+03

 The electronic state is 1-A.
 Alpha  occ. eigenvalues --  -19.73544 -10.63267  -1.13862  -0.78939  -0.56289
 Alpha  occ. eigenvalues --   -0.52669  -0.50998  -0.40205  -0.34776
 Alpha virt. eigenvalues --    0.03136   0.07906   0.12463   0.13073   0.14618
 Alpha virt. eigenvalues --    0.17785   0.18179   0.27938   0.29575   0.33046
 Alpha virt. eigenvalues --    0.34413   0.39445   0.41931   0.42261   0.43309

 Mulliken charges:
               1
     1  C    0.081987
     2  O   -0.489376
     3  H    0.042631
     4  H    0.040653
     5  H    0.067763
     6  H    0.256342
 Sum of Mulliken charges =   0.00000

 Dipole moment (field-independent basis, Debye):
    X=              0.8434    Y=              1.5925    Z=              0.0305  Tot=              1.8023
 Quadrupole moment (field-independent basis, Debye-Ang):
   XX=            -12.8962   YY=            -12.0275   ZZ=            -13.7504
   XY=             -2.6377   XZ=             -0.0829   YZ=              0.0267

 Normal termination of Gaussian 09 at Wed Aug 26 14:14:53 2020.
