 Gaussian 09, Revision D.01,
 Gaussian 09:  ES64L-G09RevD.01 24-Apr-2013

 --------------------
 #p B2PLYPD3/Def2QZVP
 --------------------

 --------
 methanol
 --------
 Symbolic Z-matrix:
 Charge =  0 Multiplicity = 1

                         Standard orientation:
 ---------------------------------------------------------------------
 Center     Atomic      Atomic             Coordinates (Angstroms)
 Number     Number       Type             X           Y           Z
 ---------------------------------------------------------------------
      1          6           0        0.644453   -0.030560   -0.005724
      2          8           0       -0.748884    0.087925    0.004058
      3          1           0        1.024145   -0.575144   -0.915196
      4          1           0        1.046627   -0.535667    0.952754
      5          1           0        1.115141    1.112578   -0.023575
      6          1           0       -1.061560   -0.521802   -0.012101
 ---------------------------------------------------------------------

 SCF Done:  E(RB2PLYPD3) =  -115.396950726     A.U. after   11 cycles
 E2(B2PLYPD3) =    -0.1438426081D+00 E(B2PLYPD3) =    -0.11554079333397D+03

 The electronic state is 1-A.
 Alpha  occ. eigenvalues --  -19.70078 -10.68601  -1.25843  -0.81147  -0.62478
 Alpha  occ. eigenvalues --   -0.52116  -0.49882  -0.40430  -0.36352
 Alpha virt. eigenvalues --    0.05255   0.09234   0.11542   0.11982   0.14646
 Alpha virt. eigenvalues --    0.17115   0.17893   0.28482   0.33054   0.33367
 Alpha virt. eigenvalues --    0.35061   0.38306   0.39636   0.40529   0.42626

 Mulliken charges:
               1
     1  C    0.046027
     2  O   -0.224660
     3  H    0.055189
     4  H    0.050590
     5  H    0.062661
     6  H    0.010193
 Sum of Mulliken charges =   0.00000

 Dipole moment (field-independent basis, Debye):
    X=              0.8431    Y=             -1.2977    Z=             -0.0641  Tot=              1.5488
 Quadrupole moment (field-independent basis, Debye-Ang):
   XX=            -13.1769   YY=            -12.6178   ZZ=            -13.5885
   XY=              1.8153   XZ=              0.0223   YZ=              0.0571

 Normal termination of Gaussian 09 at Wed Aug 26 12:19:38 2020.
