 Gaussian 09, Revision D.01,
 Gaussian 09:  ES64L-G09RevD.01 24-Apr-2013

 --------------------
 #p B2PLYPD3/Def2QZVP
 --------------------

 --------
 methanol
 --------
 Symbolic Z-matrix:
 Charge =  0 Multiplicity = 1

                         Standard orientation:
 ---------------------------------------------------------------------
 Center     Atomic      Atomic             Coordinates (Angstroms)
 Number     Number       Type             X           Y           Z
 ---------------------------------------------------------------------
      1          6           0       -0.671766   -0.016578    0.014943
      2          8           0        0.758968    0.080279   -0.030612
      3          1           0       -1.001825   -0.323997    1.026934
      4          1           0       -1.108278   -0.775417   -0.813275
      5          1           0       -1.091100    1.058997   -0.196052
      6          1           0        1.160054   -0.502343    0.137634
 ---------------------------------------------------------------------

 SCF Done:  E(RB2PLYPD3) =  -115.449700097     A.U. after   11 cycles
 E2(B2PLYPD3) =    -0.1445616508D+00 E(B2PLYPD3) =    -0.11559426174806D+03

 The electronic state is 1-A.
 Alpha  occ. eigenvalues --  -19.70008 -10.68719  -1.22290  -0.80919  -0.61273
 Alpha  occ. eigenvalues --   -0.51000  -0.49729  -0.40334  -0.36020
 Alpha virt. eigenvalues --    0.05345   0.08903   0.11752   0.11984   0.14486
 Alpha virt. eigenvalues --    0.16871   0.17921   0.28820   0.32141   0.32855
 Alpha virt. eigenvalues --    0.36168   0.37141   0.39915   0.40244   0.42206

 Mulliken charges:
               1
     1  C    0.054994
     2  O   -0.282886
     3  H    0.060126
     4  H    0.047624
     5  H    0.078912
     6  H    0.041231
 Sum of Mulliken charges =   0.00000

 Dipole moment (field-independent basis, Debye):
    X=             -0.8759    Y=             -1.1542    Z=              0.4427  Tot=              1.5150
 Quadrupole moment (field-independent basis, Debye-Ang):
   XX=            -12.7976   YY=            -12.7262   ZZ=            -13.5646
   XY=             -1.9247   XZ=              0.4975   YZ=             -0.2295

 Normal termination of Gaussian 09 at Wed Aug 26 13:46:25 2020.
