 Gaussian 09, Revision D.01,
 Gaussian 09:  ES64L-G09RevD.01 24-Apr-2013

 --------------------
 #p B2PLYPD3/Def2QZVP
 --------------------

 --------
 methanol
 --------
 Symbolic Z-matrix:
 Charge =  0 Multiplicity = 1

                         Standard orientation:
 ---------------------------------------------------------------------
 Center     Atomic      Atomic             Coordinates (Angstroms)
 Number     Number       Type             X           Y           Z
 ---------------------------------------------------------------------
      1          6           0        0.662944    0.046175   -0.016685
      2          8           0       -0.752633   -0.184554    0.015251
      3          1           0        1.140351    0.544943    0.801163
      4          1           0        1.077801    0.490654   -0.749953
      5          1           0        1.174531   -0.881265   -0.018130
      6          1           0       -1.349279    1.045049   -0.054981
 ---------------------------------------------------------------------

 SCF Done:  E(RB2PLYPD3) =  -115.450038256     A.U. after   12 cycles
 E2(B2PLYPD3) =    -0.1556138788D+00 E(B2PLYPD3) =    -0.11560565213435D+03

 The electronic state is 1-A.
 Alpha  occ. eigenvalues --  -19.75838 -10.63262  -1.11382  -0.80041  -0.54312
 Alpha  occ. eigenvalues --   -0.51017  -0.49065  -0.39410  -0.35431
 Alpha virt. eigenvalues --   -0.00839   0.07024   0.12554   0.13193   0.14898
 Alpha virt. eigenvalues --    0.17592   0.18821   0.22433   0.29334   0.33681
 Alpha virt. eigenvalues --    0.34220   0.38047   0.39113   0.41355   0.44177

 Mulliken charges:
               1
     1  C    0.084886
     2  O   -0.482703
     3  H    0.042148
     4  H    0.053353
     5  H    0.052893
     6  H    0.249424
 Sum of Mulliken charges =   0.00000

 Dipole moment (field-independent basis, Debye):
    X=              0.8586    Y=              1.7584    Z=             -0.2031  Tot=              1.9673
 Quadrupole moment (field-independent basis, Debye-Ang):
   XX=            -12.1544   YY=            -11.9187   ZZ=            -14.2761
   XY=             -2.6347   XZ=              0.0441   YZ=             -0.1404

 Normal termination of Gaussian 09 at Wed Aug 26 22:41:13 2020.
