 Gaussian 09, Revision D.01,
 Gaussian 09:  ES64L-G09RevD.01 24-Apr-2013

 --------------------
 #p B2PLYPD3/Def2QZVP
 --------------------

 --------
 methanol
 --------
 Symbolic Z-matrix:
 Charge =  0 Multiplicity = 1

                         Standard orientation:
 ---------------------------------------------------------------------
 Center     Atomic      Atomic             Coordinates (Angstroms)
 Number     Number       Type             X           Y           Z
 ---------------------------------------------------------------------
      1          6           0        0.669235   -0.031479   -0.011750
      2          8           0       -0.740169    0.137765    0.001467
      3          1           0        1.080882   -0.469729   -0.857912
      4          1           0        0.969852   -0.611314    0.859209
      5          1           0        1.107880    0.954419    0.093983
      6          1           0       -1.252675   -0.786621   -0.036516
 ---------------------------------------------------------------------

 SCF Done:  E(RB2PLYPD3) =  -115.540692559     A.U. after   11 cycles
 E2(B2PLYPD3) =    -0.1487222563D+00 E(B2PLYPD3) =    -0.11568941481532D+03

 The electronic state is 1-A.
 Alpha  occ. eigenvalues --  -19.73109 -10.64806  -1.14119  -0.78621  -0.57569
 Alpha  occ. eigenvalues --   -0.51964  -0.49628  -0.40197  -0.35136
 Alpha virt. eigenvalues --    0.04293   0.07786   0.12569   0.12642   0.14907
 Alpha virt. eigenvalues --    0.17227   0.18326   0.29174   0.31465   0.33247
 Alpha virt. eigenvalues --    0.34208   0.39070   0.39291   0.41879   0.44167

 Mulliken charges:
               1
     1  C    0.075015
     2  O   -0.488510
     3  H    0.053341
     4  H    0.044172
     5  H    0.067529
     6  H    0.248453
 Sum of Mulliken charges =   0.00000

 Dipole moment (field-independent basis, Debye):
    X=              0.7518    Y=             -1.5703    Z=             -0.0947  Tot=              1.7436
 Quadrupole moment (field-independent basis, Debye-Ang):
   XX=            -12.5032   YY=            -12.2979   ZZ=            -13.8656
   XY=              2.4567   XZ=             -0.0333   YZ=              0.1023

 Normal termination of Gaussian 09 at Wed Aug 26 15:43:02 2020.
