 Gaussian 09, Revision D.01,
 Gaussian 09:  ES64L-G09RevD.01 24-Apr-2013

 --------------------
 #p B2PLYPD3/Def2QZVP
 --------------------

 --------
 methanol
 --------
 Symbolic Z-matrix:
 Charge =  0 Multiplicity = 1

                         Standard orientation:
 ---------------------------------------------------------------------
 Center     Atomic      Atomic             Coordinates (Angstroms)
 Number     Number       Type             X           Y           Z
 ---------------------------------------------------------------------
      1          6           0        0.666701   -0.015312    0.004776
      2          8           0       -0.746334    0.102707   -0.010260
      3          1           0        1.069283   -0.648901   -0.862874
      4          1           0        1.022944   -0.458616    0.957969
      5          1           0        1.059783    1.018946   -0.083386
      6          1           0       -1.181542   -0.641208    0.041711
 ---------------------------------------------------------------------

 SCF Done:  E(RB2PLYPD3) =  -115.540485487     A.U. after   10 cycles
 E2(B2PLYPD3) =    -0.1458301973D+00 E(B2PLYPD3) =    -0.11568631568414D+03

 The electronic state is 1-A.
 Alpha  occ. eigenvalues --  -19.71505 -10.66907  -1.18166  -0.79416  -0.59981
 Alpha  occ. eigenvalues --   -0.51184  -0.50167  -0.40592  -0.35431
 Alpha virt. eigenvalues --    0.05342   0.08490   0.12182   0.12324   0.14826
 Alpha virt. eigenvalues --    0.16969   0.18022   0.29076   0.33119   0.33436
 Alpha virt. eigenvalues --    0.37140   0.39125   0.39278   0.40004   0.42702

 Mulliken charges:
               1
     1  C    0.064243
     2  O   -0.414787
     3  H    0.044668
     4  H    0.051392
     5  H    0.077157
     6  H    0.177327
 Sum of Mulliken charges =   0.00000

 Dipole moment (field-independent basis, Debye):
    X=              0.7707    Y=             -1.3549    Z=              0.1314  Tot=              1.5643
 Quadrupole moment (field-independent basis, Debye-Ang):
   XX=            -12.7883   YY=            -12.4655   ZZ=            -13.7698
   XY=              2.1767   XZ=             -0.1462   YZ=             -0.0853

 Normal termination of Gaussian 09 at Wed Aug 26 11:06:53 2020.
