 Gaussian 09, Revision D.01,
 Gaussian 09:  ES64L-G09RevD.01 24-Apr-2013

 --------------------
 #p B2PLYPD3/Def2QZVP
 --------------------

 --------
 methanol
 --------
 Symbolic Z-matrix:
 Charge =  0 Multiplicity = 1

                         Standard orientation:
 ---------------------------------------------------------------------
 Center     Atomic      Atomic             Coordinates (Angstroms)
 Number     Number       Type             X           Y           Z
 ---------------------------------------------------------------------
      1          6           0       -0.670052    0.012975    0.015493
      2          8           0        0.743807   -0.130084   -0.025815
      3          1           0       -0.972144    0.747665   -0.807642
      4          1           0       -1.006209    0.309129    0.930698
      5          1           0       -1.067786   -0.901638   -0.173014
      6          1           0        1.115992    0.807670    0.163523
 ---------------------------------------------------------------------

 SCF Done:  E(RB2PLYPD3) =  -115.538655993     A.U. after   10 cycles
 E2(B2PLYPD3) =    -0.1482324745D+00 E(B2PLYPD3) =    -0.11568688846777D+03

 The electronic state is 1-A.
 Alpha  occ. eigenvalues --  -19.72888 -10.64419  -1.14903  -0.79102  -0.57765
 Alpha  occ. eigenvalues --   -0.52151  -0.50299  -0.41243  -0.35098
 Alpha virt. eigenvalues --    0.04463   0.08202   0.12201   0.12758   0.14679
 Alpha virt. eigenvalues --    0.17373   0.18153   0.29106   0.32360   0.32832
 Alpha virt. eigenvalues --    0.34069   0.38510   0.40925   0.41680   0.44573

 Mulliken charges:
               1
     1  C    0.078107
     2  O   -0.476504
     3  H    0.037590
     4  H    0.050057
     5  H    0.071217
     6  H    0.239532
 Sum of Mulliken charges =   0.00000

 Dipole moment (field-independent basis, Debye):
    X=             -0.9540    Y=              1.4681    Z=              0.4051  Tot=              1.7971
 Quadrupole moment (field-independent basis, Debye-Ang):
   XX=            -13.2153   YY=            -12.1079   ZZ=            -13.6404
   XY=              2.3682   XZ=              0.2817   YZ=              0.2927

 Normal termination of Gaussian 09 at Wed Aug 26 14:43:07 2020.
