 Gaussian 09, Revision D.01,
 Gaussian 09:  ES64L-G09RevD.01 24-Apr-2013

 --------------------
 #p B2PLYPD3/Def2QZVP
 --------------------

 --------
 methanol
 --------
 Symbolic Z-matrix:
 Charge =  0 Multiplicity = 1

                         Standard orientation:
 ---------------------------------------------------------------------
 Center     Atomic      Atomic             Coordinates (Angstroms)
 Number     Number       Type             X           Y           Z
 ---------------------------------------------------------------------
      1          6           0       -0.679724   -0.017956    0.006253
      2          8           0        0.752013    0.100215   -0.014942
      3          1           0       -0.984054   -0.428697    0.977978
      4          1           0       -1.032181   -0.672993   -0.861314
      5          1           0       -1.066183    1.021929   -0.103310
      6          1           0        1.144664   -0.614226    0.068662
 ---------------------------------------------------------------------

 SCF Done:  E(RB2PLYPD3) =  -115.525741345     A.U. after   10 cycles
 E2(B2PLYPD3) =    -0.1452730951D+00 E(B2PLYPD3) =    -0.11567101444006D+03

 The electronic state is 1-A.
 Alpha  occ. eigenvalues --  -19.70745 -10.66997  -1.18915  -0.79865  -0.59906
 Alpha  occ. eigenvalues --   -0.51680  -0.49977  -0.40843  -0.35661
 Alpha virt. eigenvalues --    0.05410   0.08772   0.12038   0.12243   0.14533
 Alpha virt. eigenvalues --    0.16954   0.17834   0.29045   0.32371   0.33133
 Alpha virt. eigenvalues --    0.37569   0.39065   0.39619   0.40258   0.43056

 Mulliken charges:
               1
     1  C    0.067520
     2  O   -0.388659
     3  H    0.055600
     4  H    0.049696
     5  H    0.078406
     6  H    0.137437
 Sum of Mulliken charges =   0.00000

 Dipole moment (field-independent basis, Debye):
    X=             -0.9214    Y=             -1.3329    Z=              0.1991  Tot=              1.6326
 Quadrupole moment (field-independent basis, Debye-Ang):
   XX=            -12.9984   YY=            -12.4289   ZZ=            -13.5853
   XY=             -2.1246   XZ=              0.2342   YZ=             -0.1132

 Normal termination of Gaussian 09 at Wed Aug 26 14:06:51 2020.
