 Gaussian 09, Revision D.01,
 Gaussian 09:  ES64L-G09RevD.01 24-Apr-2013

 --------------------
 #p B2PLYPD3/Def2QZVP
 --------------------

 --------
 methanol
 --------
 Symbolic Z-matrix:
 Charge =  0 Multiplicity = 1

                         Standard orientation:
 ---------------------------------------------------------------------
 Center     Atomic      Atomic             Coordinates (Angstroms)
 Number     Number       Type             X           Y           Z
 ---------------------------------------------------------------------
      1          6           0        0.673033    0.021215    0.005077
      2          8           0       -0.746141   -0.142135   -0.008519
      3          1           0        1.022439    0.456967    0.856641
      4          1           0        0.995160    0.614879   -0.823522
      5          1           0        1.064402   -0.940949   -0.055258
      6          1           0       -1.151067    0.878893    0.059827
 ---------------------------------------------------------------------

 SCF Done:  E(RB2PLYPD3) =  -115.530820441     A.U. after   11 cycles
 E2(B2PLYPD3) =    -0.1495876317D+00 E(B2PLYPD3) =    -0.11568040807253D+03

 The electronic state is 1-A.
 Alpha  occ. eigenvalues --  -19.73473 -10.63831  -1.13562  -0.78966  -0.57146
 Alpha  occ. eigenvalues --   -0.52280  -0.49315  -0.41245  -0.35165
 Alpha virt. eigenvalues --    0.03788   0.07946   0.12519   0.12652   0.14944
 Alpha virt. eigenvalues --    0.17303   0.18097   0.28899   0.30340   0.33328
 Alpha virt. eigenvalues --    0.33911   0.39247   0.39899   0.42055   0.44434

 Mulliken charges:
               1
     1  C    0.085436
     2  O   -0.491342
     3  H    0.046986
     4  H    0.043242
     5  H    0.068480
     6  H    0.247197
 Sum of Mulliken charges =   0.00000

 Dipole moment (field-independent basis, Debye):
    X=              0.9777    Y=              1.6259    Z=              0.1512  Tot=              1.9032
 Quadrupole moment (field-independent basis, Debye-Ang):
   XX=            -13.0862   YY=            -11.8583   ZZ=            -13.8414
   XY=             -2.3330   XZ=             -0.0658   YZ=              0.1011

 Normal termination of Gaussian 09 at Wed Aug 26 11:18:36 2020.
