 Gaussian 09, Revision D.01,
 Gaussian 09:  ES64L-G09RevD.01 24-Apr-2013

 --------------------
 #p B2PLYPD3/Def2QZVP
 --------------------

 --------
 methanol
 --------
 Symbolic Z-matrix:
 Charge =  0 Multiplicity = 1

                         Standard orientation:
 ---------------------------------------------------------------------
 Center     Atomic      Atomic             Coordinates (Angstroms)
 Number     Number       Type             X           Y           Z
 ---------------------------------------------------------------------
      1          6           0        0.668443   -0.010859   -0.007084
      2          8           0       -0.749022    0.074773   -0.014399
      3          1           0        1.011301   -0.807606   -0.793151
      4          1           0        1.122453   -0.234197    1.072814
      5          1           0        0.962523    1.029408   -0.286866
      6          1           0       -1.114763   -0.520634    0.164896
 ---------------------------------------------------------------------

 SCF Done:  E(RB2PLYPD3) =  -115.445343209     A.U. after   11 cycles
 E2(B2PLYPD3) =    -0.1443377944D+00 E(B2PLYPD3) =    -0.11558968100328D+03

 The electronic state is 1-A.
 Alpha  occ. eigenvalues --  -19.69946 -10.68389  -1.23049  -0.81159  -0.60893
 Alpha  occ. eigenvalues --   -0.51326  -0.50064  -0.40818  -0.35842
 Alpha virt. eigenvalues --    0.05378   0.09004   0.11721   0.12076   0.14512
 Alpha virt. eigenvalues --    0.16554   0.18047   0.28751   0.32428   0.33206
 Alpha virt. eigenvalues --    0.35841   0.38494   0.39445   0.40581   0.42448

 Mulliken charges:
               1
     1  C    0.045623
     2  O   -0.264739
     3  H    0.051886
     4  H    0.046443
     5  H    0.085745
     6  H    0.035043
 Sum of Mulliken charges =   0.00000

 Dipole moment (field-independent basis, Debye):
    X=              0.8336    Y=             -1.1315    Z=              0.3138  Tot=              1.4400
 Quadrupole moment (field-independent basis, Debye-Ang):
   XX=            -13.1298   YY=            -12.5715   ZZ=            -13.5191
   XY=              1.8527   XZ=             -0.4736   YZ=             -0.2021

 Normal termination of Gaussian 09 at Wed Aug 26 11:49:56 2020.
