 Gaussian 09, Revision D.01,
 Gaussian 09:  ES64L-G09RevD.01 24-Apr-2013

 --------------------
 #p B2PLYPD3/Def2QZVP
 --------------------

 --------
 methanol
 --------
 Symbolic Z-matrix:
 Charge =  0 Multiplicity = 1

                         Standard orientation:
 ---------------------------------------------------------------------
 Center     Atomic      Atomic             Coordinates (Angstroms)
 Number     Number       Type             X           Y           Z
 ---------------------------------------------------------------------
      1          6           0        0.626204   -0.010291    0.014377
      2          8           0       -0.750090   -0.019393    0.079224
      3          1           0        1.152864    1.098831   -0.269018
      4          1           0        1.029965   -0.833056   -0.797303
      5          1           0        1.068579   -0.258014    0.915837
      6          1           0       -1.007914    0.209131   -0.569572
 ---------------------------------------------------------------------

 SCF Done:  E(RB2PLYPD3) =  -115.447263664     A.U. after   10 cycles
 E2(B2PLYPD3) =    -0.1445437856D+00 E(B2PLYPD3) =    -0.11559180744918D+03

 The electronic state is 1-A.
 Alpha  occ. eigenvalues --  -19.71450 -10.68319  -1.25118  -0.80911  -0.61854
 Alpha  occ. eigenvalues --   -0.52931  -0.50731  -0.41426  -0.35304
 Alpha virt. eigenvalues --    0.05238   0.08799   0.11358   0.12571   0.14583
 Alpha virt. eigenvalues --    0.17536   0.18093   0.28077   0.31791   0.33678
 Alpha virt. eigenvalues --    0.34847   0.37249   0.40495   0.41553   0.44119

 Mulliken charges:
               1
     1  C    0.040378
     2  O   -0.248809
     3  H    0.022421
     4  H    0.031071
     5  H    0.089522
     6  H    0.065417
 Sum of Mulliken charges =   0.00000

 Dipole moment (field-independent basis, Debye):
    X=              0.7857    Y=              0.3283    Z=             -1.0029  Tot=              1.3156
 Quadrupole moment (field-independent basis, Debye-Ang):
   XX=            -13.3989   YY=            -13.6940   ZZ=            -12.7163
   XY=             -0.6201   XZ=              2.0294   YZ=             -0.3511

 Normal termination of Gaussian 09 at Wed Aug 26 22:55:15 2020.
