 Gaussian 09, Revision D.01,
 Gaussian 09:  ES64L-G09RevD.01 24-Apr-2013

 --------------------
 #p B2PLYPD3/Def2QZVP
 --------------------

 --------
 methanol
 --------
 Symbolic Z-matrix:
 Charge =  0 Multiplicity = 1

                         Standard orientation:
 ---------------------------------------------------------------------
 Center     Atomic      Atomic             Coordinates (Angstroms)
 Number     Number       Type             X           Y           Z
 ---------------------------------------------------------------------
      1          6           0       -0.660230   -0.007544    0.008171
      2          8           0        0.754996    0.077094   -0.008170
      3          1           0       -1.068643   -0.470066    0.998227
      4          1           0       -1.060223   -0.681689   -0.912744
      5          1           0       -1.089199    1.068709   -0.116456
      6          1           0        1.139481   -0.488440    0.047311
 ---------------------------------------------------------------------

 SCF Done:  E(RB2PLYPD3) =  -115.395741545     A.U. after   11 cycles
 E2(B2PLYPD3) =    -0.1441276193D+00 E(B2PLYPD3) =    -0.11553986916412D+03

 The electronic state is 1-A.
 Alpha  occ. eigenvalues --  -19.69769 -10.69310  -1.24546  -0.81690  -0.61722
 Alpha  occ. eigenvalues --   -0.50727  -0.50429  -0.40340  -0.35877
 Alpha virt. eigenvalues --    0.05282   0.09086   0.11701   0.11897   0.14483
 Alpha virt. eigenvalues --    0.16908   0.17792   0.28694   0.32513   0.32892
 Alpha virt. eigenvalues --    0.35986   0.37423   0.38273   0.40535   0.42101

 Mulliken charges:
               1
     1  C    0.051329
     2  O   -0.234686
     3  H    0.051863
     4  H    0.041878
     5  H    0.084455
     6  H    0.005161
 Sum of Mulliken charges =   0.00000

 Dipole moment (field-independent basis, Debye):
    X=             -0.8261    Y=             -1.1252    Z=              0.1576  Tot=              1.4048
 Quadrupole moment (field-independent basis, Debye-Ang):
   XX=            -12.8523   YY=            -12.6901   ZZ=            -13.6727
   XY=             -1.9609   XZ=              0.1262   YZ=             -0.1311

 Normal termination of Gaussian 09 at Wed Aug 26 15:49:16 2020.
