 Gaussian 09, Revision D.01,
 Gaussian 09:  ES64L-G09RevD.01 24-Apr-2013

 --------------------
 #p B2PLYPD3/Def2QZVP
 --------------------

 --------
 methanol
 --------
 Symbolic Z-matrix:
 Charge =  0 Multiplicity = 1

                         Standard orientation:
 ---------------------------------------------------------------------
 Center     Atomic      Atomic             Coordinates (Angstroms)
 Number     Number       Type             X           Y           Z
 ---------------------------------------------------------------------
      1          6           0        0.661034   -0.020357   -0.004077
      2          8           0       -0.753586    0.102894   -0.002416
      3          1           0        1.064756   -0.600399   -0.867043
      4          1           0        1.036506   -0.485318    0.952316
      5          1           0        1.073036    1.039472   -0.049617
      6          1           0       -1.111813   -0.654763    0.008139
 ---------------------------------------------------------------------

 SCF Done:  E(RB2PLYPD3) =  -115.533350968     A.U. after   10 cycles
 E2(B2PLYPD3) =    -0.1456357718D+00 E(B2PLYPD3) =    -0.11567898673961D+03

 The electronic state is 1-A.
 Alpha  occ. eigenvalues --  -19.71570 -10.67030  -1.19317  -0.79292  -0.60413
 Alpha  occ. eigenvalues --   -0.51461  -0.49753  -0.41131  -0.35767
 Alpha virt. eigenvalues --    0.05338   0.08623   0.12092   0.12225   0.14822
 Alpha virt. eigenvalues --    0.17121   0.18075   0.28964   0.33026   0.33482
 Alpha virt. eigenvalues --    0.37210   0.38560   0.39741   0.39997   0.42727

 Mulliken charges:
               1
     1  C    0.060173
     2  O   -0.386727
     3  H    0.050982
     4  H    0.049329
     5  H    0.070274
     6  H    0.155970
 Sum of Mulliken charges =   0.00000

 Dipole moment (field-independent basis, Debye):
    X=              0.8783    Y=             -1.3963    Z=              0.0064  Tot=              1.6496
 Quadrupole moment (field-independent basis, Debye-Ang):
   XX=            -13.0653   YY=            -12.4021   ZZ=            -13.7417
   XY=              2.0611   XZ=             -0.0763   YZ=              0.0163

 Normal termination of Gaussian 09 at Thu Aug 27 00:13:03 2020.
