 Gaussian 09, Revision D.01,
 Gaussian 09:  ES64L-G09RevD.01 24-Apr-2013

 --------------------
 #p B2PLYPD3/Def2QZVP
 --------------------

 --------
 methanol
 --------
 Symbolic Z-matrix:
 Charge =  0 Multiplicity = 1

                         Standard orientation:
 ---------------------------------------------------------------------
 Center     Atomic      Atomic             Coordinates (Angstroms)
 Number     Number       Type             X           Y           Z
 ---------------------------------------------------------------------
      1          6           0        0.656991   -0.014843    0.005556
      2          8           0       -0.740584    0.125021   -0.014010
      3          1           0        1.039101   -0.650205   -0.848298
      4          1           0        1.006597   -0.441181    0.936057
      5          1           0        1.106689    0.935622   -0.077412
      6          1           0       -1.169663   -0.755343    0.068396
 ---------------------------------------------------------------------

 SCF Done:  E(RB2PLYPD3) =  -115.550400405     A.U. after   10 cycles
 E2(B2PLYPD3) =    -0.1473770663D+00 E(B2PLYPD3) =    -0.11569777747119D+03

 The electronic state is 1-A.
 Alpha  occ. eigenvalues --  -19.72752 -10.65406  -1.16102  -0.78685  -0.58552
 Alpha  occ. eigenvalues --   -0.51541  -0.50746  -0.40679  -0.35105
 Alpha virt. eigenvalues --    0.04805   0.08122   0.12348   0.12725   0.14821
 Alpha virt. eigenvalues --    0.17445   0.18170   0.29124   0.33136   0.33913
 Alpha virt. eigenvalues --    0.34217   0.39022   0.40448   0.40719   0.43943

 Mulliken charges:
               1
     1  C    0.070033
     2  O   -0.462097
     3  H    0.038859
     4  H    0.046072
     5  H    0.072829
     6  H    0.234304
 Sum of Mulliken charges =   0.00000

 Dipole moment (field-independent basis, Debye):
    X=              0.7744    Y=             -1.4622    Z=              0.1879  Tot=              1.6653
 Quadrupole moment (field-independent basis, Debye-Ang):
   XX=            -12.8523   YY=            -12.3169   ZZ=            -13.8190
   XY=              2.4038   XZ=             -0.1808   YZ=             -0.1222

 Normal termination of Gaussian 09 at Thu Aug 27 00:14:53 2020.
