 Gaussian 09, Revision D.01,
 Gaussian 09:  ES64L-G09RevD.01 24-Apr-2013

 --------------------
 #p B2PLYPD3/Def2QZVP
 --------------------

 --------
 methanol
 --------
 Symbolic Z-matrix:
 Charge =  0 Multiplicity = 1

                         Standard orientation:
 ---------------------------------------------------------------------
 Center     Atomic      Atomic             Coordinates (Angstroms)
 Number     Number       Type             X           Y           Z
 ---------------------------------------------------------------------
      1          6           0       -0.677471   -0.009458   -0.010013
      2          8           0        0.745723    0.112086   -0.001240
      3          1           0       -0.995966   -0.541333    0.938135
      4          1           0       -0.942376   -0.611747   -0.894007
      5          1           0       -1.098094    0.975270   -0.013063
      6          1           0        1.135473   -0.662133    0.038935
 ---------------------------------------------------------------------

 SCF Done:  E(RB2PLYPD3) =  -115.541808414     A.U. after   10 cycles
 E2(B2PLYPD3) =    -0.1457343592D+00 E(B2PLYPD3) =    -0.11568754277363D+03

 The electronic state is 1-A.
 Alpha  occ. eigenvalues --  -19.71168 -10.66297  -1.17772  -0.79515  -0.59313
 Alpha  occ. eigenvalues --   -0.51935  -0.50626  -0.40961  -0.35181
 Alpha virt. eigenvalues --    0.05284   0.08687   0.12085   0.12450   0.14533
 Alpha virt. eigenvalues --    0.17210   0.17617   0.29185   0.32624   0.32969
 Alpha virt. eigenvalues --    0.37073   0.39337   0.40009   0.40624   0.43812

 Mulliken charges:
               1
     1  C    0.075341
     2  O   -0.426796
     3  H    0.041829
     4  H    0.049942
     5  H    0.081573
     6  H    0.178111
 Sum of Mulliken charges =   0.00000

 Dipole moment (field-independent basis, Debye):
    X=             -0.9131    Y=             -1.3796    Z=              0.0468  Tot=              1.6551
 Quadrupole moment (field-independent basis, Debye-Ang):
   XX=            -13.0747   YY=            -12.2891   ZZ=            -13.6732
   XY=             -2.3001   XZ=              0.0845   YZ=              0.0085

 Normal termination of Gaussian 09 at Wed Aug 26 13:32:02 2020.
