 Gaussian 09, Revision D.01,
 Gaussian 09:  ES64L-G09RevD.01 24-Apr-2013

 --------------------
 #p B2PLYPD3/Def2QZVP
 --------------------

 --------
 methanol
 --------
 Symbolic Z-matrix:
 Charge =  0 Multiplicity = 1

                         Standard orientation:
 ---------------------------------------------------------------------
 Center     Atomic      Atomic             Coordinates (Angstroms)
 Number     Number       Type             X           Y           Z
 ---------------------------------------------------------------------
      1          6           0        0.655473    0.004697    0.019413
      2          8           0       -0.750507   -0.071714   -0.053275
      3          1           0        1.029565   -0.076871    1.056176
      4          1           0        1.090591    1.016858   -0.549034
      5          1           0        1.053877   -0.887418   -0.511229
      6          1           0       -1.102818    0.492962    0.313806
 ---------------------------------------------------------------------

 SCF Done:  E(RB2PLYPD3) =  -115.482415302     A.U. after   10 cycles
 E2(B2PLYPD3) =    -0.1446898291D+00 E(B2PLYPD3) =    -0.11562710513092D+03

 The electronic state is 1-A.
 Alpha  occ. eigenvalues --  -19.70805 -10.67913  -1.22205  -0.80530  -0.61171
 Alpha  occ. eigenvalues --   -0.51140  -0.50693  -0.40823  -0.35819
 Alpha virt. eigenvalues --    0.05370   0.08853   0.11635   0.12351   0.14527
 Alpha virt. eigenvalues --    0.16993   0.18229   0.28592   0.32475   0.33483
 Alpha virt. eigenvalues --    0.35679   0.38728   0.40166   0.40472   0.42869

 Mulliken charges:
               1
     1  C    0.050189
     2  O   -0.301260
     3  H    0.057475
     4  H    0.035121
     5  H    0.078377
     6  H    0.080097
 Sum of Mulliken charges =   0.00000

 Dipole moment (field-independent basis, Debye):
    X=              0.8214    Y=              0.9389    Z=              0.7875  Tot=              1.4753
 Quadrupole moment (field-independent basis, Debye-Ang):
   XX=            -13.0855   YY=            -12.8819   ZZ=            -13.3476
   XY=             -1.8179   XZ=             -1.0014   YZ=              0.4230

 Normal termination of Gaussian 09 at Wed Aug 26 15:40:25 2020.
