 Gaussian 09, Revision D.01,
 Gaussian 09:  ES64L-G09RevD.01 24-Apr-2013

 --------------------
 #p B2PLYPD3/Def2QZVP
 --------------------

 --------
 methanol
 --------
 Symbolic Z-matrix:
 Charge =  0 Multiplicity = 1

                         Standard orientation:
 ---------------------------------------------------------------------
 Center     Atomic      Atomic             Coordinates (Angstroms)
 Number     Number       Type             X           Y           Z
 ---------------------------------------------------------------------
      1          6           0        0.645287    0.063219   -0.032931
      2          8           0       -0.701533   -0.208128    0.024672
      3          1           0        0.930819    0.582155    0.830084
      4          1           0        0.973050    0.442505   -0.673274
      5          1           0        1.118566   -0.854276   -0.021792
      6          1           0       -1.281894    1.115325   -0.134809
 ---------------------------------------------------------------------

 SCF Done:  E(RB2PLYPD3) =  -115.364115247     A.U. after   12 cycles
 E2(B2PLYPD3) =    -0.1558921761D+00 E(B2PLYPD3) =    -0.11552000742347D+03

 The electronic state is 1-A.
 Alpha  occ. eigenvalues --  -19.75468 -10.60653  -1.13389  -0.81566  -0.56721
 Alpha  occ. eigenvalues --   -0.53735  -0.49421  -0.38561  -0.35068
 Alpha virt. eigenvalues --   -0.02451   0.07477   0.12680   0.12947   0.14949
 Alpha virt. eigenvalues --    0.17554   0.18583   0.21592   0.29531   0.33128
 Alpha virt. eigenvalues --    0.36498   0.37878   0.39432   0.42668   0.47560

 Mulliken charges:
               1
     1  C    0.001490
     2  O   -0.455309
     3  H    0.049957
     4  H    0.132747
     5  H    0.049498
     6  H    0.221616
 Sum of Mulliken charges =   0.00000

 Dipole moment (field-independent basis, Debye):
    X=              0.9201    Y=              1.7447    Z=             -0.3618  Tot=              2.0054
 Quadrupole moment (field-independent basis, Debye-Ang):
   XX=            -12.8561   YY=            -11.5670   ZZ=            -13.8548
   XY=             -2.4861   XZ=              0.0066   YZ=             -0.2603

 Normal termination of Gaussian 09 at Wed Aug 26 23:54:36 2020.
