 Gaussian 09, Revision D.01,
 Gaussian 09:  ES64L-G09RevD.01 24-Apr-2013

 --------------------
 #p B2PLYPD3/Def2QZVP
 --------------------

 --------
 methanol
 --------
 Symbolic Z-matrix:
 Charge =  0 Multiplicity = 1

                         Standard orientation:
 ---------------------------------------------------------------------
 Center     Atomic      Atomic             Coordinates (Angstroms)
 Number     Number       Type             X           Y           Z
 ---------------------------------------------------------------------
      1          6           0        0.654779   -0.014495    0.004631
      2          8           0       -0.745861    0.098941   -0.013250
      3          1           0        1.014676   -0.698224   -0.869962
      4          1           0        1.036625   -0.406617    1.000383
      5          1           0        1.111559    0.996097   -0.138745
      6          1           0       -1.124644   -0.595809    0.086539
 ---------------------------------------------------------------------

 SCF Done:  E(RB2PLYPD3) =  -115.513284198     A.U. after   10 cycles
 E2(B2PLYPD3) =    -0.1448935640D+00 E(B2PLYPD3) =    -0.11565817776155D+03

 The electronic state is 1-A.
 Alpha  occ. eigenvalues --  -19.71048 -10.67507  -1.20848  -0.79965  -0.60797
 Alpha  occ. eigenvalues --   -0.51460  -0.50726  -0.40575  -0.35611
 Alpha virt. eigenvalues --    0.05391   0.08797   0.11952   0.12372   0.14521
 Alpha virt. eigenvalues --    0.17258   0.17985   0.28798   0.32866   0.33662
 Alpha virt. eigenvalues --    0.36743   0.39043   0.39653   0.39904   0.42989

 Mulliken charges:
               1
     1  C    0.058043
     2  O   -0.345670
     3  H    0.042298
     4  H    0.048099
     5  H    0.076763
     6  H    0.120467
 Sum of Mulliken charges =   0.00000

 Dipole moment (field-independent basis, Debye):
    X=              0.7989    Y=             -1.2645    Z=              0.2140  Tot=              1.5110
 Quadrupole moment (field-independent basis, Debye-Ang):
   XX=            -12.9734   YY=            -12.6119   ZZ=            -13.6526
   XY=              2.1597   XZ=             -0.2430   YZ=             -0.1400

 Normal termination of Gaussian 09 at Thu Aug 27 00:02:32 2020.
