 Gaussian 09, Revision D.01,
 Gaussian 09:  ES64L-G09RevD.01 24-Apr-2013

 --------------------
 #p B2PLYPD3/Def2QZVP
 --------------------

 --------
 methanol
 --------
 Symbolic Z-matrix:
 Charge =  0 Multiplicity = 1

                         Standard orientation:
 ---------------------------------------------------------------------
 Center     Atomic      Atomic             Coordinates (Angstroms)
 Number     Number       Type             X           Y           Z
 ---------------------------------------------------------------------
      1          6           0        0.668187   -0.028408    0.001545
      2          8           0       -0.745882    0.099421   -0.008075
      3          1           0        1.009905   -0.678533   -0.846880
      4          1           0        1.044655   -0.409356    0.965524
      5          1           0        1.060139    1.062554   -0.126746
      6          1           0       -1.156769   -0.599581    0.063432
 ---------------------------------------------------------------------

 SCF Done:  E(RB2PLYPD3) =  -115.521425263     A.U. after   10 cycles
 E2(B2PLYPD3) =    -0.1451675151D+00 E(B2PLYPD3) =    -0.11566659277840D+03

 The electronic state is 1-A.
 Alpha  occ. eigenvalues --  -19.70883 -10.67231  -1.19601  -0.79837  -0.60602
 Alpha  occ. eigenvalues --   -0.51939  -0.49417  -0.40407  -0.35808
 Alpha virt. eigenvalues --    0.05389   0.08774   0.11945   0.12226   0.14746
 Alpha virt. eigenvalues --    0.16875   0.17990   0.29007   0.33031   0.33368
 Alpha virt. eigenvalues --    0.36879   0.38819   0.39820   0.40529   0.42424

 Mulliken charges:
               1
     1  C    0.060297
     2  O   -0.371955
     3  H    0.052565
     4  H    0.056206
     5  H    0.070262
     6  H    0.132625
 Sum of Mulliken charges =   0.00000

 Dipole moment (field-independent basis, Debye):
    X=              0.8097    Y=             -1.3666    Z=              0.1576  Tot=              1.5962
 Quadrupole moment (field-independent basis, Debye-Ang):
   XX=            -12.9116   YY=            -12.4994   ZZ=            -13.6456
   XY=              2.0293   XZ=             -0.1482   YZ=             -0.0669

 Normal termination of Gaussian 09 at Wed Aug 26 09:57:25 2020.
