 Gaussian 09, Revision D.01,
 Gaussian 09:  ES64L-G09RevD.01 24-Apr-2013

 --------------------
 #p B2PLYPD3/Def2QZVP
 --------------------

 --------
 methanol
 --------
 Symbolic Z-matrix:
 Charge =  0 Multiplicity = 1

                         Standard orientation:
 ---------------------------------------------------------------------
 Center     Atomic      Atomic             Coordinates (Angstroms)
 Number     Number       Type             X           Y           Z
 ---------------------------------------------------------------------
      1          6           0        0.662574    0.005464   -0.001746
      2          8           0       -0.743235   -0.139928    0.007541
      3          1           0        1.100899    0.502136    0.882767
      4          1           0        1.039474    0.532957   -0.861359
      5          1           0        0.987836   -0.885920   -0.049965
      6          1           0       -1.157771    0.937464   -0.021299
 ---------------------------------------------------------------------

 SCF Done:  E(RB2PLYPD3) =  -115.509081635     A.U. after   11 cycles
 E2(B2PLYPD3) =    -0.1507206355D+00 E(B2PLYPD3) =    -0.11565980227082D+03

 The electronic state is 1-A.
 Alpha  occ. eigenvalues --  -19.74144 -10.63680  -1.13648  -0.79004  -0.56907
 Alpha  occ. eigenvalues --   -0.51150  -0.50170  -0.41261  -0.34939
 Alpha virt. eigenvalues --    0.03030   0.07738   0.12548   0.12833   0.15061
 Alpha virt. eigenvalues --    0.17108   0.18463   0.27611   0.29626   0.33416
 Alpha virt. eigenvalues --    0.34524   0.38033   0.40633   0.40948   0.43646

 Mulliken charges:
               1
     1  C    0.067449
     2  O   -0.482326
     3  H    0.042258
     4  H    0.040412
     5  H    0.078783
     6  H    0.253426
 Sum of Mulliken charges =   0.00000

 Dipole moment (field-independent basis, Debye):
    X=              0.9016    Y=              1.5644    Z=             -0.0885  Tot=              1.8077
 Quadrupole moment (field-independent basis, Debye-Ang):
   XX=            -13.0928   YY=            -11.8056   ZZ=            -13.9329
   XY=             -2.3968   XZ=              0.0475   YZ=             -0.0216

 Normal termination of Gaussian 09 at Wed Aug 26 12:08:43 2020.
