 Gaussian 09, Revision D.01,
 Gaussian 09:  ES64L-G09RevD.01 24-Apr-2013

 --------------------
 #p B2PLYPD3/Def2QZVP
 --------------------

 --------
 methanol
 --------
 Symbolic Z-matrix:
 Charge =  0 Multiplicity = 1

                         Standard orientation:
 ---------------------------------------------------------------------
 Center     Atomic      Atomic             Coordinates (Angstroms)
 Number     Number       Type             X           Y           Z
 ---------------------------------------------------------------------
      1          6           0        0.659561   -0.023200    0.003726
      2          8           0       -0.758718    0.099171    0.005495
      3          1           0        1.035391   -0.604998   -0.878645
      4          1           0        1.053907   -0.520234    0.920700
      5          1           0        1.119385    1.076355   -0.072568
      6          1           0       -1.096304   -0.605290   -0.035800
 ---------------------------------------------------------------------

 SCF Done:  E(RB2PLYPD3) =  -115.501998041     A.U. after   10 cycles
 E2(B2PLYPD3) =    -0.1450369505D+00 E(B2PLYPD3) =    -0.11564703499203D+03

 The electronic state is 1-A.
 Alpha  occ. eigenvalues --  -19.71050 -10.67719  -1.21159  -0.79713  -0.61275
 Alpha  occ. eigenvalues --   -0.51548  -0.49416  -0.41040  -0.36060
 Alpha virt. eigenvalues --    0.05323   0.08800   0.11778   0.12207   0.14819
 Alpha virt. eigenvalues --    0.17227   0.17851   0.28933   0.32778   0.33241
 Alpha virt. eigenvalues --    0.35947   0.38880   0.39568   0.40118   0.42486

 Mulliken charges:
               1
     1  C    0.059033
     2  O   -0.332516
     3  H    0.048919
     4  H    0.055524
     5  H    0.066521
     6  H    0.102519
 Sum of Mulliken charges =   0.00000

 Dipole moment (field-independent basis, Debye):
    X=              0.9181    Y=             -1.3932    Z=             -0.0813  Tot=              1.6705
 Quadrupole moment (field-independent basis, Debye-Ang):
   XX=            -13.0712   YY=            -12.4485   ZZ=            -13.7446
   XY=              1.9587   XZ=              0.1051   YZ=              0.0234

 Normal termination of Gaussian 09 at Wed Aug 26 11:33:19 2020.
