 Gaussian 09, Revision D.01,
 Gaussian 09:  ES64L-G09RevD.01 24-Apr-2013

 --------------------
 #p B2PLYPD3/Def2QZVP
 --------------------

 --------
 methanol
 --------
 Symbolic Z-matrix:
 Charge =  0 Multiplicity = 1

                         Standard orientation:
 ---------------------------------------------------------------------
 Center     Atomic      Atomic             Coordinates (Angstroms)
 Number     Number       Type             X           Y           Z
 ---------------------------------------------------------------------
      1          6           0       -0.670709   -0.024628    0.007817
      2          8           0        0.743949    0.105488   -0.012805
      3          1           0       -0.990765   -0.422015    0.963612
      4          1           0       -1.049463   -0.667413   -0.845566
      5          1           0       -1.061325    1.032093   -0.111110
      6          1           0        1.174217   -0.638799    0.048600
 ---------------------------------------------------------------------

 SCF Done:  E(RB2PLYPD3) =  -115.540024160     A.U. after   10 cycles
 E2(B2PLYPD3) =    -0.1457466222D+00 E(B2PLYPD3) =    -0.11568577078263D+03

 The electronic state is 1-A.
 Alpha  occ. eigenvalues --  -19.71302 -10.66694  -1.18083  -0.79430  -0.59892
 Alpha  occ. eigenvalues --   -0.51866  -0.49682  -0.40449  -0.35569
 Alpha virt. eigenvalues --    0.05349   0.08588   0.12120   0.12302   0.14747
 Alpha virt. eigenvalues --    0.16930   0.17996   0.29087   0.33111   0.33364
 Alpha virt. eigenvalues --    0.37310   0.38664   0.39421   0.40680   0.43028

 Mulliken charges:
               1
     1  C    0.065467
     2  O   -0.416886
     3  H    0.056503
     4  H    0.048042
     5  H    0.072751
     6  H    0.174123
 Sum of Mulliken charges =   0.00000

 Dipole moment (field-independent basis, Debye):
    X=             -0.7985    Y=             -1.3893    Z=              0.1597  Tot=              1.6103
 Quadrupole moment (field-independent basis, Debye-Ang):
   XX=            -12.8670   YY=            -12.4562   ZZ=            -13.6681
   XY=             -2.1408   XZ=              0.1756   YZ=             -0.0915

 Normal termination of Gaussian 09 at Thu Aug 27 00:15:08 2020.
