 Gaussian 09, Revision D.01,
 Gaussian 09:  ES64L-G09RevD.01 24-Apr-2013

 --------------------
 #p B2PLYPD3/Def2QZVP
 --------------------

 --------
 methanol
 --------
 Symbolic Z-matrix:
 Charge =  0 Multiplicity = 1

                         Standard orientation:
 ---------------------------------------------------------------------
 Center     Atomic      Atomic             Coordinates (Angstroms)
 Number     Number       Type             X           Y           Z
 ---------------------------------------------------------------------
      1          6           0        0.644451   -0.021984    0.014457
      2          8           0       -0.744502    0.083052   -0.004678
      3          1           0        1.016093   -0.644849   -0.938046
      4          1           0        1.072205   -0.482744    0.961086
      5          1           0        1.111145    1.086364   -0.108690
      6          1           0       -1.110127   -0.491283    0.036329
 ---------------------------------------------------------------------

 SCF Done:  E(RB2PLYPD3) =  -115.389958629     A.U. after   11 cycles
 E2(B2PLYPD3) =    -0.1438314804D+00 E(B2PLYPD3) =    -0.11553379010958D+03

 The electronic state is 1-A.
 Alpha  occ. eigenvalues --  -19.69952 -10.68983  -1.25663  -0.81844  -0.62343
 Alpha  occ. eigenvalues --   -0.51640  -0.50326  -0.40011  -0.36014
 Alpha virt. eigenvalues --    0.05278   0.09181   0.11723   0.11887   0.14552
 Alpha virt. eigenvalues --    0.16997   0.17938   0.28553   0.32673   0.33913
 Alpha virt. eigenvalues --    0.35418   0.37576   0.39204   0.40574   0.42425

 Mulliken charges:
               1
     1  C    0.045323
     2  O   -0.217040
     3  H    0.040379
     4  H    0.056430
     5  H    0.071075
     6  H    0.003833
 Sum of Mulliken charges =   0.00000

 Dipole moment (field-independent basis, Debye):
    X=              0.7442    Y=             -1.1906    Z=              0.1499  Tot=              1.4120
 Quadrupole moment (field-independent basis, Debye-Ang):
   XX=            -12.9502   YY=            -12.7590   ZZ=            -13.6136
   XY=              1.9066   XZ=             -0.0090   YZ=             -0.1377

 Normal termination of Gaussian 09 at Wed Aug 26 12:53:37 2020.
