 Gaussian 09, Revision D.01,
 Gaussian 09:  ES64L-G09RevD.01 24-Apr-2013

 --------------------
 #p B2PLYPD3/Def2QZVP
 --------------------

 --------
 methanol
 --------
 Symbolic Z-matrix:
 Charge =  0 Multiplicity = 1

                         Standard orientation:
 ---------------------------------------------------------------------
 Center     Atomic      Atomic             Coordinates (Angstroms)
 Number     Number       Type             X           Y           Z
 ---------------------------------------------------------------------
      1          6           0       -0.650555   -0.034677    0.002848
      2          8           0        0.767372    0.086577   -0.026910
      3          1           0       -1.060246   -0.341712    1.017576
      4          1           0       -0.931530   -0.793606   -0.843465
      5          1           0       -1.255915    1.070132   -0.196262
      6          1           0        1.012047   -0.419366    0.220341
 ---------------------------------------------------------------------

 SCF Done:  E(RB2PLYPD3) =  -115.242949564     A.U. after   11 cycles
 E2(B2PLYPD3) =    -0.1438686038D+00 E(B2PLYPD3) =    -0.11538681816808D+03

 The electronic state is 1-A.
 Alpha  occ. eigenvalues --  -19.69461 -10.69641  -1.29142  -0.81247  -0.62692
 Alpha  occ. eigenvalues --   -0.52241  -0.49591  -0.40614  -0.36777
 Alpha virt. eigenvalues --    0.05017   0.09296   0.11317   0.11602   0.14173
 Alpha virt. eigenvalues --    0.17529   0.17762   0.28199   0.31729   0.32638
 Alpha virt. eigenvalues --    0.33369   0.37633   0.38094   0.40852   0.44285

 Mulliken charges:
               1
     1  C    0.049930
     2  O   -0.178453
     3  H    0.055674
     4  H    0.058534
     5  H    0.061435
     6  H   -0.047120
 Sum of Mulliken charges =   0.00000

 Dipole moment (field-independent basis, Debye):
    X=             -1.0694    Y=             -1.1370    Z=              0.5896  Tot=              1.6685
 Quadrupole moment (field-independent basis, Debye-Ang):
   XX=            -13.2680   YY=            -12.8662   ZZ=            -13.3215
   XY=             -1.7340   XZ=              0.5221   YZ=             -0.2190

 Normal termination of Gaussian 09 at Wed Aug 26 21:54:22 2020.
