 Gaussian 09, Revision D.01,
 Gaussian 09:  ES64L-G09RevD.01 24-Apr-2013

 --------------------
 #p B2PLYPD3/Def2QZVP
 --------------------

 --------
 methanol
 --------
 Symbolic Z-matrix:
 Charge =  0 Multiplicity = 1

                         Standard orientation:
 ---------------------------------------------------------------------
 Center     Atomic      Atomic             Coordinates (Angstroms)
 Number     Number       Type             X           Y           Z
 ---------------------------------------------------------------------
      1          6           0        0.684709    0.016679    0.004525
      2          8           0       -0.765128   -0.169636    0.009288
      3          1           0        1.026914    0.530024    0.869243
      4          1           0        1.207609    0.486263   -0.773919
      5          1           0        1.042372   -0.838533   -0.073070
      6          1           0       -1.264121    1.079258   -0.123707
 ---------------------------------------------------------------------

 SCF Done:  E(RB2PLYPD3) =  -115.447653829     A.U. after   11 cycles
 E2(B2PLYPD3) =    -0.1557494845D+00 E(B2PLYPD3) =    -0.11560340331321D+03

 The electronic state is 1-A.
 Alpha  occ. eigenvalues --  -19.75532 -10.63043  -1.10644  -0.80263  -0.54892
 Alpha  occ. eigenvalues --   -0.51525  -0.47898  -0.40326  -0.35282
 Alpha virt. eigenvalues --   -0.00263   0.07185   0.12591   0.12730   0.14768
 Alpha virt. eigenvalues --    0.17166   0.18784   0.23057   0.29018   0.32283
 Alpha virt. eigenvalues --    0.34367   0.38004   0.38839   0.42117   0.43711

 Mulliken charges:
               1
     1  C    0.071684
     2  O   -0.491973
     3  H    0.051643
     4  H    0.042129
     5  H    0.080304
     6  H    0.246214
 Sum of Mulliken charges =   0.00000

 Dipole moment (field-independent basis, Debye):
    X=              1.0705    Y=              1.6524    Z=             -0.2195  Tot=              1.9811
 Quadrupole moment (field-independent basis, Debye-Ang):
   XX=            -12.6749   YY=            -11.6591   ZZ=            -14.1163
   XY=             -2.5504   XZ=              0.0575   YZ=             -0.0602

 Normal termination of Gaussian 09 at Wed Aug 26 21:37:25 2020.
