 Gaussian 09, Revision D.01,
 Gaussian 09:  ES64L-G09RevD.01 24-Apr-2013

 --------------------
 #p B2PLYPD3/Def2QZVP
 --------------------

 --------
 methanol
 --------
 Symbolic Z-matrix:
 Charge =  0 Multiplicity = 1

                         Standard orientation:
 ---------------------------------------------------------------------
 Center     Atomic      Atomic             Coordinates (Angstroms)
 Number     Number       Type             X           Y           Z
 ---------------------------------------------------------------------
      1          6           0        0.664088    0.022851    0.008042
      2          8           0       -0.743918   -0.145030   -0.006528
      3          1           0        1.067191    0.467824    0.840625
      4          1           0        1.016803    0.594951   -0.836129
      5          1           0        1.069022   -0.933569   -0.052522
      6          1           0       -1.186200    0.893926    0.051996
 ---------------------------------------------------------------------

 SCF Done:  E(RB2PLYPD3) =  -115.525362786     A.U. after   11 cycles
 E2(B2PLYPD3) =    -0.1501416464D+00 E(B2PLYPD3) =    -0.11567550443235D+03

 The electronic state is 1-A.
 Alpha  occ. eigenvalues --  -19.73908 -10.63926  -1.13580  -0.78780  -0.56964
 Alpha  occ. eigenvalues --   -0.51820  -0.49541  -0.40912  -0.35131
 Alpha virt. eigenvalues --    0.03395   0.07756   0.12590   0.12729   0.15053
 Alpha virt. eigenvalues --    0.17308   0.18333   0.28294   0.29806   0.33432
 Alpha virt. eigenvalues --    0.34409   0.38970   0.39624   0.41837   0.44328

 Mulliken charges:
               1
     1  C    0.080324
     2  O   -0.486722
     3  H    0.046782
     4  H    0.041137
     5  H    0.066453
     6  H    0.252026
 Sum of Mulliken charges =   0.00000

 Dipole moment (field-independent basis, Debye):
    X=              0.8861    Y=              1.6292    Z=              0.1348  Tot=              1.8594
 Quadrupole moment (field-independent basis, Debye-Ang):
   XX=            -12.8902   YY=            -11.9303   ZZ=            -13.9410
   XY=             -2.3913   XZ=             -0.0285   YZ=              0.1052

 Normal termination of Gaussian 09 at Wed Aug 26 13:31:12 2020.
