 Gaussian 09, Revision D.01,
 Gaussian 09:  ES64L-G09RevD.01 24-Apr-2013

 --------------------
 #p B2PLYPD3/Def2QZVP
 --------------------

 --------
 methanol
 --------
 Symbolic Z-matrix:
 Charge =  0 Multiplicity = 1

                         Standard orientation:
 ---------------------------------------------------------------------
 Center     Atomic      Atomic             Coordinates (Angstroms)
 Number     Number       Type             X           Y           Z
 ---------------------------------------------------------------------
      1          6           0       -0.668532   -0.003764    0.001563
      2          8           0        0.753422   -0.060130   -0.030252
      3          1           0       -1.070888    0.952946   -0.633512
      4          1           0       -1.048061    0.027362    1.126268
      5          1           0       -0.952419   -0.946148   -0.480700
      6          1           0        1.055184    0.469464    0.220582
 ---------------------------------------------------------------------

 SCF Done:  E(RB2PLYPD3) =  -115.352790731     A.U. after   11 cycles
 E2(B2PLYPD3) =    -0.1437137170D+00 E(B2PLYPD3) =    -0.11549650444796D+03

 The electronic state is 1-A.
 Alpha  occ. eigenvalues --  -19.69296 -10.68709  -1.25991  -0.81955  -0.61206
 Alpha  occ. eigenvalues --   -0.50997  -0.50808  -0.41529  -0.35976
 Alpha virt. eigenvalues --    0.05313   0.09253   0.11439   0.12121   0.14377
 Alpha virt. eigenvalues --    0.16586   0.17841   0.28516   0.32375   0.32635
 Alpha virt. eigenvalues --    0.35166   0.37918   0.39932   0.41218   0.42506

 Mulliken charges:
               1
     1  C    0.045136
     2  O   -0.213169
     3  H    0.043414
     4  H    0.049535
     5  H    0.092444
     6  H   -0.017360
 Sum of Mulliken charges =   0.00000

 Dipole moment (field-independent basis, Debye):
    X=             -0.9461    Y=              0.9840    Z=              0.4943  Tot=              1.4518
 Quadrupole moment (field-independent basis, Debye-Ang):
   XX=            -13.3756   YY=            -12.6236   ZZ=            -13.2843
   XY=              1.6680   XZ=              0.7797   YZ=              0.3966

 Normal termination of Gaussian 09 at Wed Aug 26 13:32:50 2020.
