 Gaussian 09, Revision D.01,
 Gaussian 09:  ES64L-G09RevD.01 24-Apr-2013

 --------------------
 #p B2PLYPD3/Def2QZVP
 --------------------

 --------
 methanol
 --------
 Symbolic Z-matrix:
 Charge =  0 Multiplicity = 1

                         Standard orientation:
 ---------------------------------------------------------------------
 Center     Atomic      Atomic             Coordinates (Angstroms)
 Number     Number       Type             X           Y           Z
 ---------------------------------------------------------------------
      1          6           0       -0.659256   -0.027264    0.009149
      2          8           0        0.754122    0.110259   -0.010949
      3          1           0       -0.980486   -0.505262    0.920026
      4          1           0       -1.047366   -0.579009   -0.899801
      5          1           0       -1.132818    1.024837   -0.021833
      6          1           0        1.083233   -0.659060    0.034307
 ---------------------------------------------------------------------

 SCF Done:  E(RB2PLYPD3) =  -115.532252002     A.U. after   10 cycles
 E2(B2PLYPD3) =    -0.1455798709D+00 E(B2PLYPD3) =    -0.11567783187274D+03

 The electronic state is 1-A.
 Alpha  occ. eigenvalues --  -19.71546 -10.66815  -1.19488  -0.79228  -0.60324
 Alpha  occ. eigenvalues --   -0.52173  -0.49670  -0.41042  -0.35913
 Alpha virt. eigenvalues --    0.05325   0.08682   0.12125   0.12187   0.14604
 Alpha virt. eigenvalues --    0.17458   0.18007   0.28889   0.33015   0.33232
 Alpha virt. eigenvalues --    0.36807   0.38289   0.39614   0.40871   0.43668

 Mulliken charges:
               1
     1  C    0.063692
     2  O   -0.387292
     3  H    0.055190
     4  H    0.048197
     5  H    0.065254
     6  H    0.154960
 Sum of Mulliken charges =   0.00000

 Dipole moment (field-independent basis, Debye):
    X=             -0.9381    Y=             -1.4277    Z=              0.1350  Tot=              1.7136
 Quadrupole moment (field-independent basis, Debye-Ang):
   XX=            -13.1726   YY=            -12.4358   ZZ=            -13.6444
   XY=             -2.0908   XZ=              0.1116   YZ=             -0.0909

 Normal termination of Gaussian 09 at Wed Aug 26 14:13:01 2020.
