 Gaussian 09, Revision D.01,
 Gaussian 09:  ES64L-G09RevD.01 24-Apr-2013

 --------------------
 #p B2PLYPD3/Def2QZVP
 --------------------

 --------
 methanol
 --------
 Symbolic Z-matrix:
 Charge =  0 Multiplicity = 1

                         Standard orientation:
 ---------------------------------------------------------------------
 Center     Atomic      Atomic             Coordinates (Angstroms)
 Number     Number       Type             X           Y           Z
 ---------------------------------------------------------------------
      1          6           0        0.661418    0.037236    0.012591
      2          8           0       -0.737371   -0.180635   -0.002405
      3          1           0        1.167474    0.381585    0.820084
      4          1           0        0.958612    0.694411   -0.758184
      5          1           0        1.182469   -0.829406   -0.178741
      6          1           0       -1.378097    0.975074    0.060531
 ---------------------------------------------------------------------

 SCF Done:  E(RB2PLYPD3) =  -115.470974613     A.U. after   11 cycles
 E2(B2PLYPD3) =    -0.1539863384D+00 E(B2PLYPD3) =    -0.11562496095138D+03

 The electronic state is 1-A.
 Alpha  occ. eigenvalues --  -19.75104 -10.63291  -1.11978  -0.79252  -0.54434
 Alpha  occ. eigenvalues --   -0.51737  -0.49667  -0.39139  -0.34974
 Alpha virt. eigenvalues --   -0.00028   0.07206   0.12858   0.13054   0.14808
 Alpha virt. eigenvalues --    0.17617   0.18776   0.23227   0.29492   0.33094
 Alpha virt. eigenvalues --    0.34679   0.39108   0.39485   0.42070   0.43866

 Mulliken charges:
               1
     1  C    0.088566
     2  O   -0.490773
     3  H    0.046683
     4  H    0.037556
     5  H    0.059898
     6  H    0.258070
 Sum of Mulliken charges =   0.00000

 Dipole moment (field-independent basis, Debye):
    X=              0.7220    Y=              1.6968    Z=              0.0965  Tot=              1.8465
 Quadrupole moment (field-independent basis, Debye-Ang):
   XX=            -11.9505   YY=            -12.1100   ZZ=            -14.1893
   XY=             -2.8079   XZ=             -0.0071   YZ=              0.0901

 Normal termination of Gaussian 09 at Wed Aug 26 22:05:51 2020.
