 Gaussian 09, Revision D.01,
 Gaussian 09:  ES64L-G09RevD.01 24-Apr-2013

 --------------------
 #p B2PLYPD3/Def2QZVP
 --------------------

 --------
 methanol
 --------
 Symbolic Z-matrix:
 Charge =  0 Multiplicity = 1

                         Standard orientation:
 ---------------------------------------------------------------------
 Center     Atomic      Atomic             Coordinates (Angstroms)
 Number     Number       Type             X           Y           Z
 ---------------------------------------------------------------------
      1          6           0       -0.660092    0.014268   -0.039206
      2          8           0        0.739228   -0.150058    0.010917
      3          1           0       -1.171067    0.487532   -0.717637
      4          1           0       -0.970884    0.664158    0.844940
      5          1           0       -1.065453   -0.950979    0.114560
      6          1           0        1.254130    0.914144   -0.093964
 ---------------------------------------------------------------------

 SCF Done:  E(RB2PLYPD3) =  -115.496045669     A.U. after   11 cycles
 E2(B2PLYPD3) =    -0.1516290893D+00 E(B2PLYPD3) =    -0.11564767475813D+03

 The electronic state is 1-A.
 Alpha  occ. eigenvalues --  -19.74552 -10.64210  -1.13381  -0.78906  -0.57736
 Alpha  occ. eigenvalues --   -0.50474  -0.49243  -0.40964  -0.34238
 Alpha virt. eigenvalues --    0.02423   0.07467   0.12296   0.12939   0.15075
 Alpha virt. eigenvalues --    0.17242   0.18589   0.26627   0.29844   0.32227
 Alpha virt. eigenvalues --    0.35367   0.37488   0.38562   0.40858   0.45135

 Mulliken charges:
               1
     1  C    0.077361
     2  O   -0.473534
     3  H    0.052255
     4  H    0.021629
     5  H    0.066186
     6  H    0.256103
 Sum of Mulliken charges =   0.00000

 Dipole moment (field-independent basis, Debye):
    X=             -0.7246    Y=              1.6460    Z=             -0.2958  Tot=              1.8226
 Quadrupole moment (field-independent basis, Debye-Ang):
   XX=            -12.5907   YY=            -11.8810   ZZ=            -14.3118
   XY=              2.4522   XZ=              0.0741   YZ=             -0.3241

 Normal termination of Gaussian 09 at Wed Aug 26 22:01:31 2020.
