 Gaussian 09, Revision D.01,
 Gaussian 09:  ES64L-G09RevD.01 24-Apr-2013

 --------------------
 #p B2PLYPD3/Def2QZVP
 --------------------

 --------
 methanol
 --------
 Symbolic Z-matrix:
 Charge =  0 Multiplicity = 1

                         Standard orientation:
 ---------------------------------------------------------------------
 Center     Atomic      Atomic             Coordinates (Angstroms)
 Number     Number       Type             X           Y           Z
 ---------------------------------------------------------------------
      1          6           0       -0.663564    0.001772   -0.005213
      2          8           0        0.745657   -0.134564   -0.008001
      3          1           0       -1.116288    0.527135   -0.873276
      4          1           0       -1.044767    0.542989    0.882468
      5          1           0       -1.011544   -0.895588    0.058276
      6          1           0        1.188727    0.891349    0.027819
 ---------------------------------------------------------------------

 SCF Done:  E(RB2PLYPD3) =  -115.519931884     A.U. after   11 cycles
 E2(B2PLYPD3) =    -0.1500963838D+00 E(B2PLYPD3) =    -0.11567002826784D+03

 The electronic state is 1-A.
 Alpha  occ. eigenvalues --  -19.73940 -10.64359  -1.13860  -0.78821  -0.57011
 Alpha  occ. eigenvalues --   -0.50859  -0.50388  -0.41167  -0.34844
 Alpha virt. eigenvalues --    0.03499   0.07699   0.12500   0.12816   0.15062
 Alpha virt. eigenvalues --    0.17149   0.18411   0.28487   0.29945   0.33339
 Alpha virt. eigenvalues --    0.34321   0.37939   0.40268   0.40684   0.43435

 Mulliken charges:
               1
     1  C    0.068735
     2  O   -0.482422
     3  H    0.043563
     4  H    0.036468
     5  H    0.078897
     6  H    0.254759
 Sum of Mulliken charges =   0.00000

 Dipole moment (field-independent basis, Debye):
    X=             -0.8284    Y=              1.5341    Z=              0.0796  Tot=              1.7453
 Quadrupole moment (field-independent basis, Debye-Ang):
   XX=            -12.9009   YY=            -11.9496   ZZ=            -14.0016
   XY=              2.4525   XZ=              0.1002   YZ=             -0.0126

 Normal termination of Gaussian 09 at Wed Aug 26 15:50:08 2020.
