 Gaussian 09, Revision D.01,
 Gaussian 09:  ES64L-G09RevD.01 24-Apr-2013

 --------------------
 #p B2PLYPD3/Def2QZVP
 --------------------

 --------
 methanol
 --------
 Symbolic Z-matrix:
 Charge =  0 Multiplicity = 1

                         Standard orientation:
 ---------------------------------------------------------------------
 Center     Atomic      Atomic             Coordinates (Angstroms)
 Number     Number       Type             X           Y           Z
 ---------------------------------------------------------------------
      1          6           0        0.644166    0.022926   -0.001858
      2          8           0       -0.709643   -0.193402   -0.007420
      3          1           0        1.001348    0.420904    0.792354
      4          1           0        0.911930    0.663277   -0.730636
      5          1           0        1.081743   -0.807166   -0.066979
      6          1           0       -1.182872    1.132642    0.075770
 ---------------------------------------------------------------------

 SCF Done:  E(RB2PLYPD3) =  -115.423579051     A.U. after   12 cycles
 E2(B2PLYPD3) =    -0.1547190083D+00 E(B2PLYPD3) =    -0.11557829805884D+03

 The electronic state is 1-A.
 Alpha  occ. eigenvalues --  -19.75074 -10.60568  -1.13613  -0.80244  -0.56696
 Alpha  occ. eigenvalues --   -0.53467  -0.50007  -0.39416  -0.34627
 Alpha virt. eigenvalues --   -0.01762   0.07705   0.12744   0.13128   0.14940
 Alpha virt. eigenvalues --    0.17613   0.18268   0.22274   0.29643   0.33027
 Alpha virt. eigenvalues --    0.36061   0.39124   0.40670   0.43901   0.45331

 Mulliken charges:
               1
     1  C    0.114012
     2  O   -0.469213
     3  H    0.031952
     4  H    0.029512
     5  H    0.060311
     6  H    0.233425
 Sum of Mulliken charges =   0.00000

 Dipole moment (field-independent basis, Debye):
    X=              1.0022    Y=              1.7406    Z=              0.1549  Tot=              2.0145
 Quadrupole moment (field-independent basis, Debye-Ang):
   XX=            -13.1495   YY=            -11.2450   ZZ=            -13.9816
   XY=             -2.4830   XZ=             -0.0047   YZ=              0.0885

 Normal termination of Gaussian 09 at Wed Aug 26 23:37:38 2020.
