 Gaussian 09, Revision D.01,
 Gaussian 09:  ES64L-G09RevD.01 24-Apr-2013

 --------------------
 #p B2PLYPD3/Def2QZVP
 --------------------

 --------
 methanol
 --------
 Symbolic Z-matrix:
 Charge =  0 Multiplicity = 1

                         Standard orientation:
 ---------------------------------------------------------------------
 Center     Atomic      Atomic             Coordinates (Angstroms)
 Number     Number       Type             X           Y           Z
 ---------------------------------------------------------------------
      1          6           0       -0.685226   -0.048301    0.016360
      2          8           0        0.767782    0.074728   -0.018788
      3          1           0       -0.949369   -0.412400    1.003457
      4          1           0       -1.057601   -0.649053   -0.900677
      5          1           0       -1.088374    1.178699   -0.109928
      6          1           0        1.064449   -0.425266    0.059294
 ---------------------------------------------------------------------

 SCF Done:  E(RB2PLYPD3) =  -115.161286525     A.U. after   11 cycles
 E2(B2PLYPD3) =    -0.1437024274D+00 E(B2PLYPD3) =    -0.11530498895200D+03

 The electronic state is 1-A.
 Alpha  occ. eigenvalues --  -19.68261 -10.69563  -1.28738  -0.82234  -0.62067
 Alpha  occ. eigenvalues --   -0.52909  -0.48154  -0.40189  -0.37204
 Alpha virt. eigenvalues --    0.04952   0.09490   0.10873   0.11691   0.14078
 Alpha virt. eigenvalues --    0.16739   0.17805   0.28334   0.30393   0.32742
 Alpha virt. eigenvalues --    0.33306   0.37498   0.40674   0.40782   0.42725

 Mulliken charges:
               1
     1  C    0.049660
     2  O   -0.161376
     3  H    0.075711
     4  H    0.068025
     5  H    0.063157
     6  H   -0.095177
 Sum of Mulliken charges =   0.00000

 Dipole moment (field-independent basis, Debye):
    X=             -1.1264    Y=             -1.2516    Z=              0.2462  Tot=              1.7017
 Quadrupole moment (field-independent basis, Debye-Ang):
   XX=            -13.2508   YY=            -12.6246   ZZ=            -13.1717
   XY=             -1.6270   XZ=              0.2962   YZ=             -0.0961

 Normal termination of Gaussian 09 at Wed Aug 26 21:27:15 2020.
