 Gaussian 09, Revision D.01,
 Gaussian 09:  ES64L-G09RevD.01 24-Apr-2013

 --------------------
 #p B2PLYPD3/Def2QZVP
 --------------------

 --------
 methanol
 --------
 Symbolic Z-matrix:
 Charge =  0 Multiplicity = 1

                         Standard orientation:
 ---------------------------------------------------------------------
 Center     Atomic      Atomic             Coordinates (Angstroms)
 Number     Number       Type             X           Y           Z
 ---------------------------------------------------------------------
      1          6           0        0.655287   -0.033137    0.009307
      2          8           0       -0.737556    0.093603   -0.009917
      3          1           0        0.949118   -0.734737   -0.842145
      4          1           0        1.057676   -0.383521    0.948443
      5          1           0        1.083148    1.099054   -0.177736
      6          1           0       -1.121215   -0.530796    0.094933
 ---------------------------------------------------------------------

 SCF Done:  E(RB2PLYPD3) =  -115.464179531     A.U. after   10 cycles
 E2(B2PLYPD3) =    -0.1441156398D+00 E(B2PLYPD3) =    -0.11560829517041D+03

 The electronic state is 1-A.
 Alpha  occ. eigenvalues --  -19.70147 -10.67759  -1.22910  -0.80952  -0.62020
 Alpha  occ. eigenvalues --   -0.52500  -0.49446  -0.40071  -0.35987
 Alpha virt. eigenvalues --    0.05315   0.09142   0.11612   0.12191   0.14758
 Alpha virt. eigenvalues --    0.16899   0.17817   0.28853   0.32658   0.33952
 Alpha virt. eigenvalues --    0.35462   0.38707   0.40414   0.41077   0.42446

 Mulliken charges:
               1
     1  C    0.052417
     2  O   -0.279209
     3  H    0.048737
     4  H    0.059284
     5  H    0.064072
     6  H    0.054700
 Sum of Mulliken charges =   0.00000

 Dipole moment (field-independent basis, Debye):
    X=              0.7537    Y=             -1.3224    Z=              0.2802  Tot=              1.5477
 Quadrupole moment (field-independent basis, Debye-Ang):
   XX=            -13.0214   YY=            -12.5698   ZZ=            -13.5841
   XY=              1.8888   XZ=             -0.1245   YZ=             -0.1359

 Normal termination of Gaussian 09 at Wed Aug 26 15:46:23 2020.
