 Gaussian 09, Revision D.01,
 Gaussian 09:  ES64L-G09RevD.01 24-Apr-2013

 --------------------
 #p B2PLYPD3/Def2QZVP
 --------------------

 --------
 methanol
 --------
 Symbolic Z-matrix:
 Charge =  0 Multiplicity = 1

                         Standard orientation:
 ---------------------------------------------------------------------
 Center     Atomic      Atomic             Coordinates (Angstroms)
 Number     Number       Type             X           Y           Z
 ---------------------------------------------------------------------
      1          6           0        0.672366    0.006019    0.023777
      2          8           0       -0.746682   -0.060662   -0.050821
      3          1           0        0.979631   -0.043978    1.087600
      4          1           0        1.090938    0.978922   -0.597937
      5          1           0        0.973694   -0.937256   -0.510941
      6          1           0       -1.105004    0.451493    0.285186
 ---------------------------------------------------------------------

 SCF Done:  E(RB2PLYPD3) =  -115.430539563     A.U. after   11 cycles
 E2(B2PLYPD3) =    -0.1441271234D+00 E(B2PLYPD3) =    -0.11557466668654D+03

 The electronic state is 1-A.
 Alpha  occ. eigenvalues --  -19.69604 -10.68185  -1.23417  -0.81397  -0.60986
 Alpha  occ. eigenvalues --   -0.51538  -0.50166  -0.40725  -0.35946
 Alpha virt. eigenvalues --    0.05375   0.09144   0.11592   0.12100   0.14307
 Alpha virt. eigenvalues --    0.16577   0.18057   0.28715   0.32440   0.32789
 Alpha virt. eigenvalues --    0.35701   0.38568   0.40130   0.40858   0.42773

 Mulliken charges:
               1
     1  C    0.047622
     2  O   -0.257569
     3  H    0.061102
     4  H    0.044212
     5  H    0.082679
     6  H    0.021955
 Sum of Mulliken charges =   0.00000

 Dipole moment (field-independent basis, Debye):
    X=              0.8639    Y=              0.9202    Z=              0.7563  Tot=              1.4714
 Quadrupole moment (field-independent basis, Debye-Ang):
   XX=            -13.2056   YY=            -12.8319   ZZ=            -13.1401
   XY=             -1.6373   XZ=             -0.9971   YZ=              0.3838

 Normal termination of Gaussian 09 at Wed Aug 26 15:28:15 2020.
