 Gaussian 09, Revision D.01,
 Gaussian 09:  ES64L-G09RevD.01 24-Apr-2013

 --------------------
 #p B2PLYPD3/Def2QZVP
 --------------------

 --------
 methanol
 --------
 Symbolic Z-matrix:
 Charge =  0 Multiplicity = 1

                         Standard orientation:
 ---------------------------------------------------------------------
 Center     Atomic      Atomic             Coordinates (Angstroms)
 Number     Number       Type             X           Y           Z
 ---------------------------------------------------------------------
      1          6           0       -0.661830    0.006327    0.008220
      2          8           0        0.739908   -0.075813   -0.027355
      3          1           0       -0.969696    0.997483   -0.617344
      4          1           0       -1.000346    0.067384    1.074703
      5          1           0       -1.048106   -0.962969   -0.462213
      6          1           0        1.069861    0.466649    0.174376
 ---------------------------------------------------------------------

 SCF Done:  E(RB2PLYPD3) =  -115.368119345     A.U. after   11 cycles
 E2(B2PLYPD3) =    -0.1433410573D+00 E(B2PLYPD3) =    -0.11551146040228D+03

 The electronic state is 1-A.
 Alpha  occ. eigenvalues --  -19.69116 -10.68366  -1.25869  -0.82122  -0.61656
 Alpha  occ. eigenvalues --   -0.51828  -0.50924  -0.40793  -0.35813
 Alpha virt. eigenvalues --    0.05306   0.09497   0.11562   0.12084   0.14385
 Alpha virt. eigenvalues --    0.16732   0.17547   0.28578   0.32222   0.33205
 Alpha virt. eigenvalues --    0.36476   0.38066   0.39927   0.40926   0.42897

 Mulliken charges:
               1
     1  C    0.055128
     2  O   -0.219381
     3  H    0.036430
     4  H    0.055172
     5  H    0.084119
     6  H   -0.011469
 Sum of Mulliken charges =   0.00000

 Dipole moment (field-independent basis, Debye):
    X=             -0.8731    Y=              1.0477    Z=              0.4733  Tot=              1.4436
 Quadrupole moment (field-independent basis, Debye-Ang):
   XX=            -13.2903   YY=            -12.5542   ZZ=            -13.3878
   XY=              1.8760   XZ=              0.5717   YZ=              0.3096

 Normal termination of Gaussian 09 at Wed Aug 26 11:26:41 2020.
