 Gaussian 09, Revision D.01,
 Gaussian 09:  ES64L-G09RevD.01 24-Apr-2013

 --------------------
 #p B2PLYPD3/Def2QZVP
 --------------------

 --------
 methanol
 --------
 Symbolic Z-matrix:
 Charge =  0 Multiplicity = 1

                         Standard orientation:
 ---------------------------------------------------------------------
 Center     Atomic      Atomic             Coordinates (Angstroms)
 Number     Number       Type             X           Y           Z
 ---------------------------------------------------------------------
      1          6           0       -0.672327   -0.022233    0.007070
      2          8           0        0.742713    0.091530   -0.001546
      3          1           0       -1.065723   -0.487693    0.946054
      4          1           0       -0.979801   -0.650845   -0.910593
      5          1           0       -1.070026    1.072434   -0.102230
      6          1           0        1.207806   -0.532737    0.036719
 ---------------------------------------------------------------------

 SCF Done:  E(RB2PLYPD3) =  -115.496909047     A.U. after   10 cycles
 E2(B2PLYPD3) =    -0.1448246173D+00 E(B2PLYPD3) =    -0.11564173366476D+03

 The electronic state is 1-A.
 Alpha  occ. eigenvalues --  -19.70214 -10.68071  -1.20274  -0.80571  -0.60796
 Alpha  occ. eigenvalues --   -0.51427  -0.49829  -0.39713  -0.35591
 Alpha virt. eigenvalues --    0.05399   0.08836   0.11937   0.12092   0.14581
 Alpha virt. eigenvalues --    0.16770   0.17824   0.29059   0.32480   0.33285
 Alpha virt. eigenvalues --    0.36808   0.38507   0.39757   0.39909   0.42166

 Mulliken charges:
               1
     1  C    0.059384
     2  O   -0.339420
     3  H    0.057559
     4  H    0.048627
     5  H    0.077786
     6  H    0.096065
 Sum of Mulliken charges =   0.00000

 Dipole moment (field-independent basis, Debye):
    X=             -0.7325    Y=             -1.2624    Z=              0.1059  Tot=              1.4634
 Quadrupole moment (field-independent basis, Debye-Ang):
   XX=            -12.6635   YY=            -12.6500   ZZ=            -13.6574
   XY=             -2.0429   XZ=              0.0067   YZ=             -0.0929

 Normal termination of Gaussian 09 at Wed Aug 26 13:21:39 2020.
