 Gaussian 09, Revision D.01,
 Gaussian 09:  ES64L-G09RevD.01 24-Apr-2013

 --------------------
 #p B2PLYPD3/Def2QZVP
 --------------------

 --------
 methanol
 --------
 Symbolic Z-matrix:
 Charge =  0 Multiplicity = 1

                         Standard orientation:
 ---------------------------------------------------------------------
 Center     Atomic      Atomic             Coordinates (Angstroms)
 Number     Number       Type             X           Y           Z
 ---------------------------------------------------------------------
      1          6           0       -0.676993   -0.031611    0.008078
      2          8           0        0.748464    0.137697   -0.005961
      3          1           0       -1.000062   -0.492758    0.856131
      4          1           0       -1.024782   -0.554420   -0.852032
      5          1           0       -1.065332    0.973807   -0.025662
      6          1           0        1.164422   -0.838537    0.020785
 ---------------------------------------------------------------------

 SCF Done:  E(RB2PLYPD3) =  -115.538943048     A.U. after   11 cycles
 E2(B2PLYPD3) =    -0.1490140394D+00 E(B2PLYPD3) =    -0.11568795708711D+03

 The electronic state is 1-A.
 Alpha  occ. eigenvalues --  -19.73163 -10.64303  -1.13808  -0.78891  -0.57313
 Alpha  occ. eigenvalues --   -0.52634  -0.48887  -0.41030  -0.35406
 Alpha virt. eigenvalues --    0.04259   0.07984   0.12412   0.12582   0.14895
 Alpha virt. eigenvalues --    0.17191   0.18182   0.29047   0.31519   0.33482
 Alpha virt. eigenvalues --    0.33612   0.38761   0.39829   0.42248   0.44536

 Mulliken charges:
               1
     1  C    0.080267
     2  O   -0.489998
     3  H    0.052505
     4  H    0.048602
     5  H    0.066237
     6  H    0.242387
 Sum of Mulliken charges =   0.00000

 Dipole moment (field-independent basis, Debye):
    X=             -0.9610    Y=             -1.6188    Z=              0.0787  Tot=              1.8842
 Quadrupole moment (field-independent basis, Debye-Ang):
   XX=            -13.0179   YY=            -12.0109   ZZ=            -13.7677
   XY=             -2.2893   XZ=              0.0361   YZ=             -0.0645

 Normal termination of Gaussian 09 at Wed Aug 26 23:12:57 2020.
