 Gaussian 09, Revision D.01,
 Gaussian 09:  ES64L-G09RevD.01 24-Apr-2013

 --------------------
 #p B2PLYPD3/Def2QZVP
 --------------------

 --------
 methanol
 --------
 Symbolic Z-matrix:
 Charge =  0 Multiplicity = 1

                         Standard orientation:
 ---------------------------------------------------------------------
 Center     Atomic      Atomic             Coordinates (Angstroms)
 Number     Number       Type             X           Y           Z
 ---------------------------------------------------------------------
      1          6           0       -0.673772    0.019083    0.001683
      2          8           0        0.749659   -0.141723   -0.013269
      3          1           0       -1.082523    0.574154   -0.822286
      4          1           0       -0.988667    0.479942    0.866874
      5          1           0       -1.046420   -0.934021    0.002970
      6          1           0        1.162967    0.899214    0.048494
 ---------------------------------------------------------------------

 SCF Done:  E(RB2PLYPD3) =  -115.526111160     A.U. after   11 cycles
 E2(B2PLYPD3) =    -0.1501444911D+00 E(B2PLYPD3) =    -0.11567625565156D+03

 The electronic state is 1-A.
 Alpha  occ. eigenvalues --  -19.73739 -10.63837  -1.13208  -0.78977  -0.56856
 Alpha  occ. eigenvalues --   -0.51895  -0.49316  -0.41245  -0.35200
 Alpha virt. eigenvalues --    0.03552   0.07817   0.12543   0.12690   0.14962
 Alpha virt. eigenvalues --    0.17208   0.18264   0.28506   0.29972   0.33356
 Alpha virt. eigenvalues --    0.33868   0.39072   0.40064   0.41565   0.44158

 Mulliken charges:
               1
     1  C    0.082078
     2  O   -0.492200
     3  H    0.045364
     4  H    0.046160
     5  H    0.069303
     6  H    0.249294
 Sum of Mulliken charges =   0.00000

 Dipole moment (field-independent basis, Debye):
    X=             -0.9793    Y=              1.6201    Z=              0.1487  Tot=              1.8989
 Quadrupole moment (field-independent basis, Debye-Ang):
   XX=            -13.0328   YY=            -11.8501   ZZ=            -13.8810
   XY=              2.3376   XZ=              0.1391   YZ=              0.0665

 Normal termination of Gaussian 09 at Wed Aug 26 19:51:22 2020.
