 Gaussian 09, Revision D.01,
 Gaussian 09:  ES64L-G09RevD.01 24-Apr-2013

 --------------------
 #p B2PLYPD3/Def2QZVP
 --------------------

 --------
 methanol
 --------
 Symbolic Z-matrix:
 Charge =  0 Multiplicity = 1

                         Standard orientation:
 ---------------------------------------------------------------------
 Center     Atomic      Atomic             Coordinates (Angstroms)
 Number     Number       Type             X           Y           Z
 ---------------------------------------------------------------------
      1          6           0        0.660274   -0.008980   -0.003070
      2          8           0       -0.749430    0.094352    0.003570
      3          1           0        1.037751   -0.583596   -0.914685
      4          1           0        1.056851   -0.534433    0.951564
      5          1           0        1.057887    1.028356   -0.034679
      6          1           0       -1.118697   -0.611264   -0.012340
 ---------------------------------------------------------------------

 SCF Done:  E(RB2PLYPD3) =  -115.513497117     A.U. after   10 cycles
 E2(B2PLYPD3) =    -0.1449543868D+00 E(B2PLYPD3) =    -0.11565845150394D+03

 The electronic state is 1-A.
 Alpha  occ. eigenvalues --  -19.71009 -10.67464  -1.20646  -0.79973  -0.60757
 Alpha  occ. eigenvalues --   -0.51088  -0.50554  -0.41065  -0.35591
 Alpha virt. eigenvalues --    0.05391   0.08803   0.12018   0.12233   0.14744
 Alpha virt. eigenvalues --    0.17034   0.17911   0.28910   0.32960   0.33392
 Alpha virt. eigenvalues --    0.37084   0.39134   0.39454   0.39871   0.42629

 Mulliken charges:
               1
     1  C    0.058697
     2  O   -0.347136
     3  H    0.045938
     4  H    0.044944
     5  H    0.079404
     6  H    0.118154
 Sum of Mulliken charges =   0.00000

 Dipole moment (field-independent basis, Debye):
    X=              0.8352    Y=             -1.2912    Z=             -0.0557  Tot=              1.5388
 Quadrupole moment (field-independent basis, Debye-Ang):
   XX=            -13.0388   YY=            -12.4515   ZZ=            -13.7244
   XY=              2.0851   XZ=              0.0203   YZ=              0.0276

 Normal termination of Gaussian 09 at Thu Aug 27 00:07:45 2020.
