 Gaussian 09, Revision D.01,
 Gaussian 09:  ES64L-G09RevD.01 24-Apr-2013

 --------------------
 #p B2PLYPD3/Def2QZVP
 --------------------

 --------
 methanol
 --------
 Symbolic Z-matrix:
 Charge =  0 Multiplicity = 1

                         Standard orientation:
 ---------------------------------------------------------------------
 Center     Atomic      Atomic             Coordinates (Angstroms)
 Number     Number       Type             X           Y           Z
 ---------------------------------------------------------------------
      1          6           0       -0.672744    0.033721    0.006491
      2          8           0        0.727997   -0.203225   -0.017658
      3          1           0       -0.971048    0.573994   -0.787584
      4          1           0       -0.868545    0.430805    0.815105
      5          1           0       -1.167669   -0.729055    0.007964
      6          1           0        1.219749    1.147731    0.066829
 ---------------------------------------------------------------------

 SCF Done:  E(RB2PLYPD3) =  -115.397234584     A.U. after   12 cycles
 E2(B2PLYPD3) =    -0.1558820392D+00 E(B2PLYPD3) =    -0.11555311662320D+03

 The electronic state is 1-A.
 Alpha  occ. eigenvalues --  -19.75040 -10.60149  -1.11546  -0.81491  -0.55223
 Alpha  occ. eigenvalues --   -0.54433  -0.49321  -0.38893  -0.35180
 Alpha virt. eigenvalues --   -0.02123   0.07599   0.12733   0.12951   0.14345
 Alpha virt. eigenvalues --    0.17992   0.18523   0.22119   0.29512   0.33110
 Alpha virt. eigenvalues --    0.33745   0.39720   0.40873   0.43951   0.44945

 Mulliken charges:
               1
     1  C    0.094968
     2  O   -0.486035
     3  H    0.043287
     4  H    0.052577
     5  H    0.063104
     6  H    0.232099
 Sum of Mulliken charges =   0.00000

 Dipole moment (field-independent basis, Debye):
    X=             -1.1620    Y=              1.7264    Z=              0.1800  Tot=              2.0888
 Quadrupole moment (field-independent basis, Debye-Ang):
   XX=            -12.9398   YY=            -11.4581   ZZ=            -13.7004
   XY=              2.6659   XZ=              0.1310   YZ=              0.0799

 Normal termination of Gaussian 09 at Wed Aug 26 20:32:19 2020.
