 Gaussian 09, Revision D.01,
 Gaussian 09:  ES64L-G09RevD.01 24-Apr-2013

 --------------------
 #p B2PLYPD3/Def2QZVP
 --------------------

 --------
 methanol
 --------
 Symbolic Z-matrix:
 Charge =  0 Multiplicity = 1

                         Standard orientation:
 ---------------------------------------------------------------------
 Center     Atomic      Atomic             Coordinates (Angstroms)
 Number     Number       Type             X           Y           Z
 ---------------------------------------------------------------------
      1          6           0       -0.696876   -0.008003    0.003681
      2          8           0        0.767528    0.005986    0.075132
      3          1           0       -0.996241   -0.975365   -0.637513
      4          1           0       -1.019309    1.042118   -0.567937
      5          1           0       -1.126038   -0.042935    1.017306
      6          1           0        1.182617   -0.023694   -0.434994
 ---------------------------------------------------------------------

 SCF Done:  E(RB2PLYPD3) =  -115.337890438     A.U. after   11 cycles
 E2(B2PLYPD3) =    -0.1443733816D+00 E(B2PLYPD3) =    -0.11548226381952D+03

 The electronic state is 1-A.
 Alpha  occ. eigenvalues --  -19.68494 -10.70096  -1.23913  -0.82089  -0.60674
 Alpha  occ. eigenvalues --   -0.51320  -0.49973  -0.39691  -0.35656
 Alpha virt. eigenvalues --    0.05126   0.09153   0.11122   0.12147   0.13614
 Alpha virt. eigenvalues --    0.16907   0.17417   0.28645   0.29806   0.32294
 Alpha virt. eigenvalues --    0.35383   0.36959   0.38097   0.41497   0.42354

 Mulliken charges:
               1
     1  C    0.063271
     2  O   -0.245176
     3  H    0.053611
     4  H    0.050484
     5  H    0.103952
     6  H   -0.026142
 Sum of Mulliken charges =   0.00000

 Dipole moment (field-independent basis, Debye):
    X=             -1.0328    Y=             -0.1188    Z=             -1.0105  Tot=              1.4498
 Quadrupole moment (field-independent basis, Debye-Ang):
   XX=            -12.7615   YY=            -13.4965   ZZ=            -12.7272
   XY=             -0.0414   XZ=             -2.1303   YZ=              0.0606

 Normal termination of Gaussian 09 at Wed Aug 26 23:57:08 2020.
