 Gaussian 09, Revision D.01,
 Gaussian 09:  ES64L-G09RevD.01 24-Apr-2013

 --------------------
 #p B2PLYPD3/Def2QZVP
 --------------------

 --------
 methanol
 --------
 Symbolic Z-matrix:
 Charge =  0 Multiplicity = 1

                         Standard orientation:
 ---------------------------------------------------------------------
 Center     Atomic      Atomic             Coordinates (Angstroms)
 Number     Number       Type             X           Y           Z
 ---------------------------------------------------------------------
      1          6           0        0.667388    0.017059   -0.017730
      2          8           0       -0.747281   -0.143767    0.016954
      3          1           0        1.032872    0.626832    0.830594
      4          1           0        0.962951    0.495983   -0.829401
      5          1           0        1.129159   -0.938149    0.034242
      6          1           0       -1.151067    0.863122   -0.064689
 ---------------------------------------------------------------------

 SCF Done:  E(RB2PLYPD3) =  -115.529850093     A.U. after   11 cycles
 E2(B2PLYPD3) =    -0.1493429254D+00 E(B2PLYPD3) =    -0.11567919301879D+03

 The electronic state is 1-A.
 Alpha  occ. eigenvalues --  -19.73498 -10.64159  -1.13922  -0.78939  -0.57475
 Alpha  occ. eigenvalues --   -0.51775  -0.49725  -0.41264  -0.35017
 Alpha virt. eigenvalues --    0.03858   0.07880   0.12499   0.12664   0.14934
 Alpha virt. eigenvalues --    0.17682   0.17914   0.29102   0.30451   0.33212
 Alpha virt. eigenvalues --    0.33789   0.39242   0.39730   0.41373   0.44540

 Mulliken charges:
               1
     1  C    0.087295
     2  O   -0.488149
     3  H    0.036326
     4  H    0.047251
     5  H    0.068623
     6  H    0.248653
 Sum of Mulliken charges =   0.00000

 Dipole moment (field-independent basis, Debye):
    X=              0.9425    Y=              1.6317    Z=             -0.2353  Tot=              1.8990
 Quadrupole moment (field-independent basis, Debye-Ang):
   XX=            -13.0294   YY=            -11.9021   ZZ=            -13.9277
   XY=             -2.3900   XZ=              0.1018   YZ=             -0.1870

 Normal termination of Gaussian 09 at Wed Aug 26 15:27:10 2020.
