 Gaussian 09, Revision D.01,
 Gaussian 09:  ES64L-G09RevD.01 24-Apr-2013

 --------------------
 #p B2PLYPD3/Def2QZVP
 --------------------

 --------
 methanol
 --------
 Symbolic Z-matrix:
 Charge =  0 Multiplicity = 1

                         Standard orientation:
 ---------------------------------------------------------------------
 Center     Atomic      Atomic             Coordinates (Angstroms)
 Number     Number       Type             X           Y           Z
 ---------------------------------------------------------------------
      1          6           0        0.651387    0.035097   -0.000599
      2          8           0       -0.733495   -0.156379   -0.010834
      3          1           0        1.006733    0.426713    0.867683
      4          1           0        1.026203    0.650706   -0.765218
      5          1           0        1.153246   -0.923392   -0.069105
      6          1           0       -1.226544    0.886423    0.056905
 ---------------------------------------------------------------------

 SCF Done:  E(RB2PLYPD3) =  -115.519005124     A.U. after   11 cycles
 E2(B2PLYPD3) =    -0.1502373266D+00 E(B2PLYPD3) =    -0.11566924245108D+03

 The electronic state is 1-A.
 Alpha  occ. eigenvalues --  -19.74045 -10.63773  -1.13943  -0.78595  -0.56753
 Alpha  occ. eigenvalues --   -0.52375  -0.49759  -0.40097  -0.35074
 Alpha virt. eigenvalues --    0.02984   0.07621   0.12599   0.12935   0.15024
 Alpha virt. eigenvalues --    0.17611   0.18377   0.27482   0.29632   0.33526
 Alpha virt. eigenvalues --    0.34938   0.38991   0.39784   0.42457   0.43932

 Mulliken charges:
               1
     1  C    0.083633
     2  O   -0.485418
     3  H    0.045275
     4  H    0.040986
     5  H    0.059036
     6  H    0.256489
 Sum of Mulliken charges =   0.00000

 Dipole moment (field-independent basis, Debye):
    X=              0.7669    Y=              1.6893    Z=              0.1491  Tot=              1.8612
 Quadrupole moment (field-independent basis, Debye-Ang):
   XX=            -12.6527   YY=            -12.0488   ZZ=            -13.9846
   XY=             -2.4824   XZ=             -0.1170   YZ=              0.0533

 Normal termination of Gaussian 09 at Wed Aug 26 11:04:53 2020.
