 Gaussian 09, Revision D.01,
 Gaussian 09:  ES64L-G09RevD.01 24-Apr-2013

 --------------------
 #p B2PLYPD3/Def2QZVP
 --------------------

 --------
 methanol
 --------
 Symbolic Z-matrix:
 Charge =  0 Multiplicity = 1

                         Standard orientation:
 ---------------------------------------------------------------------
 Center     Atomic      Atomic             Coordinates (Angstroms)
 Number     Number       Type             X           Y           Z
 ---------------------------------------------------------------------
      1          6           0        0.692734    0.048275    0.021559
      2          8           0       -0.756649   -0.144159   -0.032093
      3          1           0        0.988147    0.256914    0.820219
      4          1           0        1.038609    0.739911   -0.733921
      5          1           0        1.024923   -1.031947   -0.130588
      6          1           0       -1.154893    0.898743    0.171678
 ---------------------------------------------------------------------

 SCF Done:  E(RB2PLYPD3) =  -115.481006136     A.U. after   11 cycles
 E2(B2PLYPD3) =    -0.1512300914D+00 E(B2PLYPD3) =    -0.11563223622727D+03

 The electronic state is 1-A.
 Alpha  occ. eigenvalues --  -19.73826 -10.63728  -1.12239  -0.80275  -0.56527
 Alpha  occ. eigenvalues --   -0.53838  -0.46914  -0.40768  -0.35822
 Alpha virt. eigenvalues --    0.03427   0.07766   0.11740   0.12630   0.15095
 Alpha virt. eigenvalues --    0.16785   0.18478   0.27874   0.29713   0.32479
 Alpha virt. eigenvalues --    0.33925   0.36640   0.39256   0.42114   0.44570

 Mulliken charges:
               1
     1  C    0.045488
     2  O   -0.494022
     3  H    0.090785
     4  H    0.057286
     5  H    0.058946
     6  H    0.241517
 Sum of Mulliken charges =   0.00000

 Dipole moment (field-independent basis, Debye):
    X=              1.0823    Y=              1.6829    Z=              0.4667  Tot=              2.0546
 Quadrupole moment (field-independent basis, Debye-Ang):
   XX=            -13.2444   YY=            -11.7811   ZZ=            -13.7672
   XY=             -2.0836   XZ=             -0.2294   YZ=              0.2010

 Normal termination of Gaussian 09 at Wed Aug 26 21:50:13 2020.
