 Gaussian 09, Revision D.01,
 Gaussian 09:  ES64L-G09RevD.01 24-Apr-2013

 --------------------
 #p B2PLYPD3/Def2QZVP
 --------------------

 --------
 methanol
 --------
 Symbolic Z-matrix:
 Charge =  0 Multiplicity = 1

                         Standard orientation:
 ---------------------------------------------------------------------
 Center     Atomic      Atomic             Coordinates (Angstroms)
 Number     Number       Type             X           Y           Z
 ---------------------------------------------------------------------
      1          6           0        0.652371   -0.042033    0.010291
      2          8           0       -0.731732    0.085686    0.007636
      3          1           0        0.953211   -0.599822   -0.910413
      4          1           0        1.014783   -0.461273    0.939168
      5          1           0        1.009175    1.151767   -0.116331
      6          1           0       -1.037541   -0.523965   -0.035259
 ---------------------------------------------------------------------

 SCF Done:  E(RB2PLYPD3) =  -115.392006762     A.U. after   11 cycles
 E2(B2PLYPD3) =    -0.1434206326D+00 E(B2PLYPD3) =    -0.11553542739433D+03

 The electronic state is 1-A.
 Alpha  occ. eigenvalues --  -19.69439 -10.67667  -1.25917  -0.81578  -0.62443
 Alpha  occ. eigenvalues --   -0.53687  -0.49338  -0.40069  -0.36499
 Alpha virt. eigenvalues --    0.05241   0.09566   0.11284   0.12076   0.14653
 Alpha virt. eigenvalues --    0.16767   0.17799   0.28640   0.32912   0.33199
 Alpha virt. eigenvalues --    0.35162   0.39168   0.41285   0.41689   0.42777

 Mulliken charges:
               1
     1  C    0.045353
     2  O   -0.220584
     3  H    0.051824
     4  H    0.064342
     5  H    0.056324
     6  H    0.002740
 Sum of Mulliken charges =   0.00000

 Dipole moment (field-independent basis, Debye):
    X=              0.8158    Y=             -1.3580    Z=             -0.0638  Tot=              1.5854
 Quadrupole moment (field-independent basis, Debye-Ang):
   XX=            -13.4617   YY=            -12.4880   ZZ=            -13.3470
   XY=              1.6451   XZ=              0.1991   YZ=              0.0060

 Normal termination of Gaussian 09 at Wed Aug 26 22:35:12 2020.
