 Gaussian 09, Revision D.01,
 Gaussian 09:  ES64L-G09RevD.01 24-Apr-2013

 --------------------
 #p B2PLYPD3/Def2QZVP
 --------------------

 --------
 methanol
 --------
 Symbolic Z-matrix:
 Charge =  0 Multiplicity = 1

                         Standard orientation:
 ---------------------------------------------------------------------
 Center     Atomic      Atomic             Coordinates (Angstroms)
 Number     Number       Type             X           Y           Z
 ---------------------------------------------------------------------
      1          6           0        0.682693    0.005772    0.041819
      2          8           0       -0.735111   -0.148385   -0.045117
      3          1           0        0.925668    0.233625    0.853381
      4          1           0        1.118242    0.775984   -0.756531
      5          1           0        0.928838   -0.855318   -0.172395
      6          1           0       -1.188018    0.998152    0.185569
 ---------------------------------------------------------------------

 SCF Done:  E(RB2PLYPD3) =  -115.429798647     A.U. after   12 cycles
 E2(B2PLYPD3) =    -0.1528944292D+00 E(B2PLYPD3) =    -0.11558269307569D+03

 The electronic state is 1-A.
 Alpha  occ. eigenvalues --  -19.74353 -10.62075  -1.12427  -0.80622  -0.58487
 Alpha  occ. eigenvalues --   -0.51566  -0.48697  -0.40794  -0.34998
 Alpha virt. eigenvalues --    0.01603   0.07674   0.12332   0.12787   0.14967
 Alpha virt. eigenvalues --    0.16720   0.18460   0.25182   0.29345   0.32806
 Alpha virt. eigenvalues --    0.33845   0.36796   0.39893   0.41595   0.46746

 Mulliken charges:
               1
     1  C    0.041000
     2  O   -0.491726
     3  H    0.082011
     4  H    0.033861
     5  H    0.089637
     6  H    0.245217
 Sum of Mulliken charges =   0.00000

 Dipole moment (field-independent basis, Debye):
    X=              0.9827    Y=              1.5020    Z=              0.5415  Tot=              1.8748
 Quadrupole moment (field-independent basis, Debye-Ang):
   XX=            -13.2168   YY=            -11.6417   ZZ=            -13.6958
   XY=             -2.4123   XZ=             -0.2943   YZ=              0.4146

 Normal termination of Gaussian 09 at Wed Aug 26 22:03:20 2020.
