 Gaussian 09, Revision D.01,
 Gaussian 09:  ES64L-G09RevD.01 24-Apr-2013

 --------------------
 #p B2PLYPD3/Def2QZVP
 --------------------

 --------
 methanol
 --------
 Symbolic Z-matrix:
 Charge =  0 Multiplicity = 1

                         Standard orientation:
 ---------------------------------------------------------------------
 Center     Atomic      Atomic             Coordinates (Angstroms)
 Number     Number       Type             X           Y           Z
 ---------------------------------------------------------------------
      1          6           0        0.670307    0.026651    0.018611
      2          8           0       -0.753080   -0.149635   -0.011675
      3          1           0        1.042368    0.431551    0.820183
      4          1           0        1.053241    0.614610   -0.808573
      5          1           0        1.073222   -0.945103   -0.081872
      6          1           0       -1.166034    0.936118    0.051999
 ---------------------------------------------------------------------

 SCF Done:  E(RB2PLYPD3) =  -115.510700934     A.U. after   11 cycles
 E2(B2PLYPD3) =    -0.1511117932D+00 E(B2PLYPD3) =    -0.11566181272703D+03

 The electronic state is 1-A.
 Alpha  occ. eigenvalues --  -19.74253 -10.63670  -1.12804  -0.79254  -0.56626
 Alpha  occ. eigenvalues --   -0.51960  -0.48827  -0.41061  -0.35361
 Alpha virt. eigenvalues --    0.02965   0.07661   0.12431   0.12791   0.15026
 Alpha virt. eigenvalues --    0.17347   0.18358   0.27311   0.29602   0.33457
 Alpha virt. eigenvalues --    0.33968   0.38581   0.39226   0.41988   0.44920

 Mulliken charges:
               1
     1  C    0.086134
     2  O   -0.490342
     3  H    0.051138
     4  H    0.039607
     5  H    0.062767
     6  H    0.250696
 Sum of Mulliken charges =   0.00000

 Dipole moment (field-independent basis, Debye):
    X=              0.9962    Y=              1.6767    Z=              0.1802  Tot=              1.9586
 Quadrupole moment (field-independent basis, Debye-Ang):
   XX=            -13.0103   YY=            -11.8017   ZZ=            -13.9553
   XY=             -2.3161   XZ=             -0.0302   YZ=              0.1563

 Normal termination of Gaussian 09 at Wed Aug 26 10:49:21 2020.
