 Gaussian 09, Revision D.01,
 Gaussian 09:  ES64L-G09RevD.01 24-Apr-2013

 --------------------
 #p B2PLYPD3/Def2QZVP
 --------------------

 --------
 methanol
 --------
 Symbolic Z-matrix:
 Charge =  0 Multiplicity = 1

                         Standard orientation:
 ---------------------------------------------------------------------
 Center     Atomic      Atomic             Coordinates (Angstroms)
 Number     Number       Type             X           Y           Z
 ---------------------------------------------------------------------
      1          6           0       -0.660210    0.027778   -0.000783
      2          8           0        0.731150   -0.144133   -0.006552
      3          1           0       -0.959364    0.579934   -0.867914
      4          1           0       -1.061105    0.431330    0.885194
      5          1           0       -1.027325   -0.912589   -0.043737
      6          1           0        1.159854    0.887723    0.083568
 ---------------------------------------------------------------------

 SCF Done:  E(RB2PLYPD3) =  -115.525605594     A.U. after   11 cycles
 E2(B2PLYPD3) =    -0.1496989774D+00 E(B2PLYPD3) =    -0.11567530457112D+03

 The electronic state is 1-A.
 Alpha  occ. eigenvalues --  -19.73600 -10.63600  -1.14259  -0.78626  -0.56972
 Alpha  occ. eigenvalues --   -0.52875  -0.49716  -0.40595  -0.35086
 Alpha virt. eigenvalues --    0.03538   0.07962   0.12476   0.12794   0.14870
 Alpha virt. eigenvalues --    0.17161   0.18485   0.28474   0.29901   0.33268
 Alpha virt. eigenvalues --    0.34982   0.38852   0.40325   0.42464   0.43882

 Mulliken charges:
               1
     1  C    0.072628
     2  O   -0.480681
     3  H    0.046299
     4  H    0.045371
     5  H    0.066569
     6  H    0.249814
 Sum of Mulliken charges =   0.00000

 Dipole moment (field-independent basis, Debye):
    X=             -0.8629    Y=              1.5735    Z=              0.1566  Tot=              1.8013
 Quadrupole moment (field-independent basis, Debye-Ang):
   XX=            -13.0956   YY=            -11.9919   ZZ=            -13.7271
   XY=              2.4035   XZ=              0.0754   YZ=              0.0884

 Normal termination of Gaussian 09 at Wed Aug 26 13:00:42 2020.
