 Gaussian 09, Revision D.01,
 Gaussian 09:  ES64L-G09RevD.01 24-Apr-2013

 --------------------
 #p B2PLYPD3/Def2QZVP
 --------------------

 --------
 methanol
 --------
 Symbolic Z-matrix:
 Charge =  0 Multiplicity = 1

                         Standard orientation:
 ---------------------------------------------------------------------
 Center     Atomic      Atomic             Coordinates (Angstroms)
 Number     Number       Type             X           Y           Z
 ---------------------------------------------------------------------
      1          6           0       -0.670819   -0.019258    0.003255
      2          8           0        0.758436    0.101029   -0.013693
      3          1           0       -1.025547   -0.459453    0.991152
      4          1           0       -1.131649   -0.591890   -0.902072
      5          1           0       -1.066705    1.003189   -0.040355
      6          1           0        1.181325   -0.644529    0.041290
 ---------------------------------------------------------------------

 SCF Done:  E(RB2PLYPD3) =  -115.536033021     A.U. after   10 cycles
 E2(B2PLYPD3) =    -0.1462513186D+00 E(B2PLYPD3) =    -0.11568228434004D+03

 The electronic state is 1-A.
 Alpha  occ. eigenvalues --  -19.71703 -10.67423  -1.17983  -0.79275  -0.59527
 Alpha  occ. eigenvalues --   -0.50898  -0.49952  -0.40532  -0.35704
 Alpha virt. eigenvalues --    0.05356   0.08289   0.11983   0.12413   0.14547
 Alpha virt. eigenvalues --    0.16972   0.18407   0.28819   0.32563   0.33411
 Alpha virt. eigenvalues --    0.36279   0.38856   0.39325   0.39797   0.42769

 Mulliken charges:
               1
     1  C    0.058037
     2  O   -0.412073
     3  H    0.052188
     4  H    0.050179
     5  H    0.077193
     6  H    0.174476
 Sum of Mulliken charges =   0.00000

 Dipole moment (field-independent basis, Debye):
    X=             -0.8285    Y=             -1.3129    Z=              0.1313  Tot=              1.5580
 Quadrupole moment (field-independent basis, Debye-Ang):
   XX=            -12.7554   YY=            -12.6270   ZZ=            -13.7071
   XY=             -2.2147   XZ=              0.2123   YZ=             -0.0600

 Normal termination of Gaussian 09 at Wed Aug 26 12:54:58 2020.
