 Gaussian 09, Revision D.01,
 Gaussian 09:  ES64L-G09RevD.01 24-Apr-2013

 --------------------
 #p B2PLYPD3/Def2QZVP
 --------------------

 --------
 methanol
 --------
 Symbolic Z-matrix:
 Charge =  0 Multiplicity = 1

                         Standard orientation:
 ---------------------------------------------------------------------
 Center     Atomic      Atomic             Coordinates (Angstroms)
 Number     Number       Type             X           Y           Z
 ---------------------------------------------------------------------
      1          6           0        0.660423    0.035252    0.012784
      2          8           0       -0.731132   -0.164541   -0.008538
      3          1           0        0.970405    0.436571    0.850559
      4          1           0        1.011857    0.572078   -0.817103
      5          1           0        1.075565   -0.886550   -0.065967
      6          1           0       -1.171309    0.982720    0.024108
 ---------------------------------------------------------------------

 SCF Done:  E(RB2PLYPD3) =  -115.493719662     A.U. after   11 cycles
 E2(B2PLYPD3) =    -0.1516636350D+00 E(B2PLYPD3) =    -0.11564538329740D+03

 The electronic state is 1-A.
 Alpha  occ. eigenvalues --  -19.74270 -10.62501  -1.13140  -0.79173  -0.56057
 Alpha  occ. eigenvalues --   -0.53434  -0.49390  -0.40184  -0.35202
 Alpha virt. eigenvalues --    0.01934   0.07777   0.12684   0.12781   0.14841
 Alpha virt. eigenvalues --    0.17478   0.18399   0.25635   0.29425   0.33483
 Alpha virt. eigenvalues --    0.34839   0.39136   0.40346   0.43071   0.44442

 Mulliken charges:
               1
     1  C    0.092668
     2  O   -0.488403
     3  H    0.046766
     4  H    0.040822
     5  H    0.058913
     6  H    0.249234
 Sum of Mulliken charges =   0.00000

 Dipole moment (field-independent basis, Debye):
    X=              0.9618    Y=              1.6795    Z=              0.0917  Tot=              1.9376
 Quadrupole moment (field-independent basis, Debye-Ang):
   XX=            -13.0907   YY=            -11.7684   ZZ=            -13.7721
   XY=             -2.4355   XZ=             -0.0491   YZ=              0.0836

 Normal termination of Gaussian 09 at Wed Aug 26 15:46:02 2020.
