 Gaussian 09, Revision D.01,
 Gaussian 09:  ES64L-G09RevD.01 24-Apr-2013

 --------------------
 #p B2PLYPD3/Def2QZVP
 --------------------

 --------
 methanol
 --------
 Symbolic Z-matrix:
 Charge =  0 Multiplicity = 1

                         Standard orientation:
 ---------------------------------------------------------------------
 Center     Atomic      Atomic             Coordinates (Angstroms)
 Number     Number       Type             X           Y           Z
 ---------------------------------------------------------------------
      1          6           0       -0.639039   -0.021105   -0.012371
      2          8           0        0.747738   -0.069945   -0.021516
      3          1           0       -1.142260    0.958728   -0.626129
      4          1           0       -1.080907    0.127099    1.087361
      5          1           0       -0.998541   -0.964596   -0.372576
      6          1           0        1.074036    0.564965    0.157698
 ---------------------------------------------------------------------

 SCF Done:  E(RB2PLYPD3) =  -115.453204983     A.U. after   11 cycles
 E2(B2PLYPD3) =    -0.1445797303D+00 E(B2PLYPD3) =    -0.11559778471330D+03

 The electronic state is 1-A.
 Alpha  occ. eigenvalues --  -19.71045 -10.68596  -1.24071  -0.81149  -0.61644
 Alpha  occ. eigenvalues --   -0.52133  -0.50107  -0.41633  -0.34950
 Alpha virt. eigenvalues --    0.05239   0.08842   0.11467   0.12274   0.15040
 Alpha virt. eigenvalues --    0.16820   0.17914   0.28710   0.31668   0.34127
 Alpha virt. eigenvalues --    0.35057   0.37666   0.40190   0.40694   0.42552

 Mulliken charges:
               1
     1  C    0.046810
     2  O   -0.258427
     3  H    0.022413
     4  H    0.034889
     5  H    0.092928
     6  H    0.061387
 Sum of Mulliken charges =   0.00000

 Dipole moment (field-independent basis, Debye):
    X=             -0.7164    Y=              1.0560    Z=              0.3463  Tot=              1.3223
 Quadrupole moment (field-independent basis, Debye-Ang):
   XX=            -13.2287   YY=            -12.4725   ZZ=            -13.9177
   XY=              1.9204   XZ=              0.5272   YZ=              0.4046

 Normal termination of Gaussian 09 at Wed Aug 26 20:11:37 2020.
