 Gaussian 09, Revision D.01,
 Gaussian 09:  ES64L-G09RevD.01 24-Apr-2013

 --------------------
 #p B2PLYPD3/Def2QZVP
 --------------------

 --------
 methanol
 --------
 Symbolic Z-matrix:
 Charge =  0 Multiplicity = 1

                         Standard orientation:
 ---------------------------------------------------------------------
 Center     Atomic      Atomic             Coordinates (Angstroms)
 Number     Number       Type             X           Y           Z
 ---------------------------------------------------------------------
      1          6           0        0.674811    0.009459   -0.051903
      2          8           0       -0.747519   -0.174187    0.038993
      3          1           0        1.121619    0.619597    0.854748
      4          1           0        0.880749    0.433204   -0.766718
      5          1           0        1.112739   -0.792631    0.023987
      6          1           0       -1.183822    1.076568   -0.112542
 ---------------------------------------------------------------------

 SCF Done:  E(RB2PLYPD3) =  -115.399537218     A.U. after   11 cycles
 E2(B2PLYPD3) =    -0.1544963469D+00 E(B2PLYPD3) =    -0.11555403356452D+03

 The electronic state is 1-A.
 Alpha  occ. eigenvalues --  -19.75095 -10.61799  -1.11663  -0.81488  -0.58061
 Alpha  occ. eigenvalues --   -0.50566  -0.49558  -0.40592  -0.34787
 Alpha virt. eigenvalues --   -0.00093   0.07385   0.12488   0.12901   0.14624
 Alpha virt. eigenvalues --    0.17996   0.18328   0.23323   0.29493   0.32148
 Alpha virt. eigenvalues --    0.33279   0.37384   0.40724   0.41301   0.46348

 Mulliken charges:
               1
     1  C    0.040972
     2  O   -0.490783
     3  H    0.030435
     4  H    0.095657
     5  H    0.076032
     6  H    0.247687
 Sum of Mulliken charges =   0.00000

 Dipole moment (field-independent basis, Debye):
    X=              1.0541    Y=              1.6234    Z=             -0.4561  Tot=              1.9886
 Quadrupole moment (field-independent basis, Debye-Ang):
   XX=            -13.0713   YY=            -11.5392   ZZ=            -13.8956
   XY=             -2.6521   XZ=              0.1384   YZ=             -0.4003

 Normal termination of Gaussian 09 at Wed Aug 26 22:55:43 2020.
