 Gaussian 09, Revision D.01,
 Gaussian 09:  ES64L-G09RevD.01 24-Apr-2013

 --------------------
 #p B2PLYPD3/Def2QZVP
 --------------------

 --------
 methanol
 --------
 Symbolic Z-matrix:
 Charge =  0 Multiplicity = 1

                         Standard orientation:
 ---------------------------------------------------------------------
 Center     Atomic      Atomic             Coordinates (Angstroms)
 Number     Number       Type             X           Y           Z
 ---------------------------------------------------------------------
      1          6           0        0.657291    0.033173   -0.032153
      2          8           0       -0.737218   -0.196167    0.011201
      3          1           0        0.988135    0.525590    0.887090
      4          1           0        1.062707    0.485170   -0.738350
      5          1           0        1.176378   -0.761324    0.017597
      6          1           0       -1.273224    1.120863   -0.063028
 ---------------------------------------------------------------------

 SCF Done:  E(RB2PLYPD3) =  -115.417986875     A.U. after   11 cycles
 E2(B2PLYPD3) =    -0.1560950242D+00 E(B2PLYPD3) =    -0.11557408189915D+03

 The electronic state is 1-A.
 Alpha  occ. eigenvalues --  -19.75705 -10.61801  -1.11890  -0.80991  -0.54844
 Alpha  occ. eigenvalues --   -0.51683  -0.50086  -0.39170  -0.34999
 Alpha virt. eigenvalues --   -0.02021   0.07292   0.12668   0.13166   0.14521
 Alpha virt. eigenvalues --    0.18166   0.18818   0.21837   0.29580   0.32922
 Alpha virt. eigenvalues --    0.34889   0.38477   0.39776   0.42424   0.45098

 Mulliken charges:
               1
     1  C    0.093187
     2  O   -0.474263
     3  H    0.037535
     4  H    0.046039
     5  H    0.053887
     6  H    0.243614
 Sum of Mulliken charges =   0.00000

 Dipole moment (field-independent basis, Debye):
    X=              0.9658    Y=              1.7034    Z=             -0.2143  Tot=              1.9698
 Quadrupole moment (field-independent basis, Debye-Ang):
   XX=            -12.6026   YY=            -11.7173   ZZ=            -14.0016
   XY=             -2.7485   XZ=             -0.0758   YZ=             -0.2135

 Normal termination of Gaussian 09 at Wed Aug 26 20:44:50 2020.
