 Gaussian 09, Revision D.01,
 Gaussian 09:  ES64L-G09RevD.01 24-Apr-2013

 --------------------
 #p B2PLYPD3/Def2QZVP
 --------------------

 --------
 methanol
 --------
 Symbolic Z-matrix:
 Charge =  0 Multiplicity = 1

                         Standard orientation:
 ---------------------------------------------------------------------
 Center     Atomic      Atomic             Coordinates (Angstroms)
 Number     Number       Type             X           Y           Z
 ---------------------------------------------------------------------
      1          6           0        0.711747    0.007393    0.008450
      2          8           0       -0.746793   -0.198578   -0.000563
      3          1           0        1.030859    0.471253    0.827571
      4          1           0        0.941417    0.634363   -0.784569
      5          1           0        1.080783   -0.703349   -0.112880
      6          1           0       -1.349194    1.141995    0.023681
 ---------------------------------------------------------------------

 SCF Done:  E(RB2PLYPD3) =  -115.354918597     A.U. after   12 cycles
 E2(B2PLYPD3) =    -0.1575062686D+00 E(B2PLYPD3) =    -0.11551242486529D+03

 The electronic state is 1-A.
 Alpha  occ. eigenvalues --  -19.75151 -10.60937  -1.09601  -0.82338  -0.56806
 Alpha  occ. eigenvalues --   -0.51887  -0.48364  -0.39193  -0.34894
 Alpha virt. eigenvalues --   -0.02579   0.07392   0.12803   0.12943   0.14127
 Alpha virt. eigenvalues --    0.17762   0.18090   0.21757   0.29263   0.32107
 Alpha virt. eigenvalues --    0.33458   0.37678   0.41523   0.42064   0.45049

 Mulliken charges:
               1
     1  C   -0.001601
     2  O   -0.504891
     3  H    0.055825
     4  H    0.046443
     5  H    0.171579
     6  H    0.232644
 Sum of Mulliken charges =   0.00000

 Dipole moment (field-independent basis, Debye):
    X=              1.1281    Y=              1.7094    Z=              0.0236  Tot=              2.0482
 Quadrupole moment (field-independent basis, Debye-Ang):
   XX=            -12.4885   YY=            -11.3998   ZZ=            -13.9225
   XY=             -2.8189   XZ=              0.0006   YZ=              0.1056

 Normal termination of Gaussian 09 at Wed Aug 26 21:30:21 2020.
