 Gaussian 09, Revision D.01,
 Gaussian 09:  ES64L-G09RevD.01 24-Apr-2013

 --------------------
 #p B2PLYPD3/Def2QZVP
 --------------------

 --------
 methanol
 --------
 Symbolic Z-matrix:
 Charge =  0 Multiplicity = 1

                         Standard orientation:
 ---------------------------------------------------------------------
 Center     Atomic      Atomic             Coordinates (Angstroms)
 Number     Number       Type             X           Y           Z
 ---------------------------------------------------------------------
      1          6           0       -0.636072    0.025871   -0.023059
      2          8           0        0.730524   -0.200300    0.013096
      3          1           0       -0.949938    0.451450   -0.747201
      4          1           0       -1.046248    0.533283    0.777885
      5          1           0       -1.145211   -0.770807    0.028203
      6          1           0        1.113636    1.233246   -0.025303
 ---------------------------------------------------------------------

 SCF Done:  E(RB2PLYPD3) =  -115.387235281     A.U. after   13 cycles
 E2(B2PLYPD3) =    -0.1570266447D+00 E(B2PLYPD3) =    -0.11554426192546D+03

 The electronic state is 1-A.
 Alpha  occ. eigenvalues --  -19.75973 -10.60402  -1.13029  -0.81643  -0.55850
 Alpha  occ. eigenvalues --   -0.52858  -0.50344  -0.38717  -0.35311
 Alpha virt. eigenvalues --   -0.03426   0.07413   0.12863   0.13017   0.14613
 Alpha virt. eigenvalues --    0.18397   0.18522   0.21568   0.29593   0.33330
 Alpha virt. eigenvalues --    0.35446   0.38722   0.40483   0.42878   0.45354

 Mulliken charges:
               1
     1  C    0.107649
     2  O   -0.460169
     3  H    0.048677
     4  H    0.030335
     5  H    0.045607
     6  H    0.227900
 Sum of Mulliken charges =   0.00000

 Dipole moment (field-independent basis, Debye):
    X=             -1.1877    Y=              1.7625    Z=             -0.1362  Tot=              2.1297
 Quadrupole moment (field-independent basis, Debye-Ang):
   XX=            -13.3150   YY=            -11.1842   ZZ=            -13.9644
   XY=              2.3486   XZ=             -0.0177   YZ=             -0.1432

 Normal termination of Gaussian 09 at Wed Aug 26 23:27:50 2020.
