 Gaussian 09, Revision D.01,
 Gaussian 09:  ES64L-G09RevD.01 24-Apr-2013

 --------------------
 #p B2PLYPD3/Def2QZVP
 --------------------

 --------
 methanol
 --------
 Symbolic Z-matrix:
 Charge =  0 Multiplicity = 1

                         Standard orientation:
 ---------------------------------------------------------------------
 Center     Atomic      Atomic             Coordinates (Angstroms)
 Number     Number       Type             X           Y           Z
 ---------------------------------------------------------------------
      1          6           0       -0.675814   -0.036809   -0.007282
      2          8           0        0.747328    0.102501   -0.016671
      3          1           0       -0.922055   -0.467098    0.971815
      4          1           0       -0.965850   -0.662144   -0.846664
      5          1           0       -1.138762    1.078179   -0.040687
      6          1           0        1.102927   -0.548094    0.092596
 ---------------------------------------------------------------------

 SCF Done:  E(RB2PLYPD3) =  -115.474586711     A.U. after   10 cycles
 E2(B2PLYPD3) =    -0.1443417677D+00 E(B2PLYPD3) =    -0.11561892847884D+03

 The electronic state is 1-A.
 Alpha  occ. eigenvalues --  -19.69797 -10.67395  -1.21680  -0.80519  -0.60909
 Alpha  occ. eigenvalues --   -0.53027  -0.49180  -0.40499  -0.36022
 Alpha virt. eigenvalues --    0.05351   0.09150   0.11735   0.12068   0.14405
 Alpha virt. eigenvalues --    0.16976   0.17610   0.28946   0.32252   0.33026
 Alpha virt. eigenvalues --    0.35391   0.39180   0.40355   0.40973   0.43595

 Mulliken charges:
               1
     1  C    0.068063
     2  O   -0.313298
     3  H    0.053072
     4  H    0.061082
     5  H    0.068136
     6  H    0.062945
 Sum of Mulliken charges =   0.00000

 Dipole moment (field-independent basis, Debye):
    X=             -0.9570    Y=             -1.3644    Z=              0.2297  Tot=              1.6823
 Quadrupole moment (field-independent basis, Debye-Ang):
   XX=            -13.1735   YY=            -12.4503   ZZ=            -13.4652
   XY=             -1.9958   XZ=              0.3357   YZ=             -0.0323

 Normal termination of Gaussian 09 at Wed Aug 26 12:47:49 2020.
