 Gaussian 09, Revision D.01,
 Gaussian 09:  ES64L-G09RevD.01 24-Apr-2013

 --------------------
 #p B2PLYPD3/Def2QZVP
 --------------------

 --------
 methanol
 --------
 Symbolic Z-matrix:
 Charge =  0 Multiplicity = 1

                         Standard orientation:
 ---------------------------------------------------------------------
 Center     Atomic      Atomic             Coordinates (Angstroms)
 Number     Number       Type             X           Y           Z
 ---------------------------------------------------------------------
      1          6           0        0.638410    0.023209   -0.024852
      2          8           0       -0.728789   -0.041345    0.068300
      3          1           0        0.786444    1.131570   -0.436831
      4          1           0        1.113265   -0.915705   -0.704096
      5          1           0        1.219591   -0.097354    1.048831
      6          1           0       -1.119448    0.073000   -0.305196
 ---------------------------------------------------------------------

 SCF Done:  E(RB2PLYPD3) =  -115.021840712     A.U. after   11 cycles
 E2(B2PLYPD3) =    -0.1434597214D+00 E(B2PLYPD3) =    -0.11516530043290D+03

 The electronic state is 1-A.
 Alpha  occ. eigenvalues --  -19.68596 -10.70902  -1.31574  -0.86110  -0.62121
 Alpha  occ. eigenvalues --   -0.52856  -0.50884  -0.38103  -0.35893
 Alpha virt. eigenvalues --    0.04869   0.09377   0.11394   0.11791   0.13510
 Alpha virt. eigenvalues --    0.17085   0.17674   0.27935   0.31603   0.32636
 Alpha virt. eigenvalues --    0.33990   0.35960   0.38320   0.41437   0.43521

 Mulliken charges:
               1
     1  C    0.048949
     2  O   -0.072373
     3  H    0.047990
     4  H    0.043263
     5  H    0.077178
     6  H   -0.145007
 Sum of Mulliken charges =   0.00000

 Dipole moment (field-independent basis, Debye):
    X=              0.6311    Y=              0.3547    Z=             -0.8448  Tot=              1.1126
 Quadrupole moment (field-independent basis, Debye-Ang):
   XX=            -12.7817   YY=            -13.2930   ZZ=            -13.2342
   XY=             -0.7336   XZ=              1.8332   YZ=             -0.1344

 Normal termination of Gaussian 09 at Wed Aug 26 22:17:36 2020.
