 Gaussian 09, Revision D.01,
 Gaussian 09:  ES64L-G09RevD.01 24-Apr-2013

 --------------------
 #p B2PLYPD3/Def2QZVP
 --------------------

 --------
 methanol
 --------
 Symbolic Z-matrix:
 Charge =  0 Multiplicity = 1

                         Standard orientation:
 ---------------------------------------------------------------------
 Center     Atomic      Atomic             Coordinates (Angstroms)
 Number     Number       Type             X           Y           Z
 ---------------------------------------------------------------------
      1          6           0       -0.653600    0.011210    0.006710
      2          8           0        0.736378   -0.136937   -0.017063
      3          1           0       -1.103267    0.635019   -0.789134
      4          1           0       -0.964548    0.474353    0.862810
      5          1           0       -1.043407   -0.961666   -0.028676
      6          1           0        1.141800    0.880524    0.051241
 ---------------------------------------------------------------------

 SCF Done:  E(RB2PLYPD3) =  -115.530790963     A.U. after   11 cycles
 E2(B2PLYPD3) =    -0.1493684544D+00 E(B2PLYPD3) =    -0.11568015941766D+03

 The electronic state is 1-A.
 Alpha  occ. eigenvalues --  -19.73706 -10.64137  -1.14800  -0.78443  -0.58079
 Alpha  occ. eigenvalues --   -0.51521  -0.49906  -0.41262  -0.34829
 Alpha virt. eigenvalues --    0.03695   0.07924   0.12396   0.12803   0.15257
 Alpha virt. eigenvalues --    0.17267   0.18083   0.28942   0.30320   0.33192
 Alpha virt. eigenvalues --    0.35065   0.38913   0.39639   0.41008   0.44637

 Mulliken charges:
               1
     1  C    0.078500
     2  O   -0.473994
     3  H    0.034137
     4  H    0.042917
     5  H    0.068966
     6  H    0.249475
 Sum of Mulliken charges =   0.00000

 Dipole moment (field-independent basis, Debye):
    X=             -0.8370    Y=              1.6135    Z=              0.2007  Tot=              1.8287
 Quadrupole moment (field-independent basis, Debye-Ang):
   XX=            -13.1223   YY=            -11.8097   ZZ=            -14.0246
   XY=              2.2849   XZ=              0.1336   YZ=              0.1262

 Normal termination of Gaussian 09 at Wed Aug 26 13:53:07 2020.
