 Gaussian 09, Revision D.01,
 Gaussian 09:  ES64L-G09RevD.01 24-Apr-2013

 --------------------
 #p B2PLYPD3/Def2QZVP
 --------------------

 --------
 methanol
 --------
 Symbolic Z-matrix:
 Charge =  0 Multiplicity = 1

                         Standard orientation:
 ---------------------------------------------------------------------
 Center     Atomic      Atomic             Coordinates (Angstroms)
 Number     Number       Type             X           Y           Z
 ---------------------------------------------------------------------
      1          6           0       -0.668771   -0.012917   -0.004715
      2          8           0        0.749581    0.092278   -0.007823
      3          1           0       -0.963791   -0.555272    0.950479
      4          1           0       -0.981292   -0.581170   -0.930678
      5          1           0       -1.074181    1.044426    0.020283
      6          1           0        1.035244   -0.568706    0.050785
 ---------------------------------------------------------------------

 SCF Done:  E(RB2PLYPD3) =  -115.453651406     A.U. after   10 cycles
 E2(B2PLYPD3) =    -0.1439373360D+00 E(B2PLYPD3) =    -0.11559758874219D+03

 The electronic state is 1-A.
 Alpha  occ. eigenvalues --  -19.69770 -10.67480  -1.23388  -0.80597  -0.61089
 Alpha  occ. eigenvalues --   -0.52155  -0.50336  -0.41580  -0.35893
 Alpha virt. eigenvalues --    0.05395   0.09305   0.11837   0.12058   0.14444
 Alpha virt. eigenvalues --    0.17059   0.17491   0.28704   0.32519   0.32872
 Alpha virt. eigenvalues --    0.37413   0.38719   0.39559   0.40699   0.43491

 Mulliken charges:
               1
     1  C    0.062483
     2  O   -0.279557
     3  H    0.045809
     4  H    0.052278
     5  H    0.079124
     6  H    0.039861
 Sum of Mulliken charges =   0.00000

 Dipole moment (field-independent basis, Debye):
    X=             -1.0219    Y=             -1.2696    Z=              0.1170  Tot=              1.6340
 Quadrupole moment (field-independent basis, Debye-Ang):
   XX=            -13.4485   YY=            -12.3282   ZZ=            -13.4734
   XY=             -1.9772   XZ=              0.1568   YZ=             -0.0297

 Normal termination of Gaussian 09 at Wed Aug 26 13:32:24 2020.
