 Gaussian 09, Revision D.01,
 Gaussian 09:  ES64L-G09RevD.01 24-Apr-2013

 --------------------
 #p B2PLYPD3/Def2QZVP
 --------------------

 --------
 methanol
 --------
 Symbolic Z-matrix:
 Charge =  0 Multiplicity = 1

                         Standard orientation:
 ---------------------------------------------------------------------
 Center     Atomic      Atomic             Coordinates (Angstroms)
 Number     Number       Type             X           Y           Z
 ---------------------------------------------------------------------
      1          6           0       -0.666350   -0.012535    0.011237
      2          8           0        0.749891    0.105436   -0.008232
      3          1           0       -1.049380   -0.458895    0.924290
      4          1           0       -1.007178   -0.656124   -0.880754
      5          1           0       -1.060789    1.016072   -0.104507
      6          1           0        1.116326   -0.669329    0.059398
 ---------------------------------------------------------------------

 SCF Done:  E(RB2PLYPD3) =  -115.540170247     A.U. after   10 cycles
 E2(B2PLYPD3) =    -0.1457967920D+00 E(B2PLYPD3) =    -0.11568596703934D+03

 The electronic state is 1-A.
 Alpha  occ. eigenvalues --  -19.71568 -10.66624  -1.18513  -0.79296  -0.60053
 Alpha  occ. eigenvalues --   -0.51407  -0.50064  -0.41309  -0.35480
 Alpha virt. eigenvalues --    0.05287   0.08634   0.12165   0.12245   0.14820
 Alpha virt. eigenvalues --    0.17109   0.17903   0.29070   0.32842   0.33470
 Alpha virt. eigenvalues --    0.37218   0.38839   0.39458   0.40614   0.43011

 Mulliken charges:
               1
     1  C    0.065920
     2  O   -0.408071
     3  H    0.053468
     4  H    0.040939
     5  H    0.075243
     6  H    0.172501
 Sum of Mulliken charges =   0.00000

 Dipole moment (field-independent basis, Debye):
    X=             -0.8852    Y=             -1.3866    Z=              0.1804  Tot=              1.6549
 Quadrupole moment (field-independent basis, Debye-Ang):
   XX=            -13.1091   YY=            -12.3154   ZZ=            -13.7323
   XY=             -2.1338   XZ=              0.0672   YZ=             -0.1561

 Normal termination of Gaussian 09 at Thu Aug 27 00:12:45 2020.
