 Gaussian 09, Revision D.01,
 Gaussian 09:  ES64L-G09RevD.01 24-Apr-2013

 --------------------
 #p B2PLYPD3/Def2QZVP
 --------------------

 --------
 methanol
 --------
 Symbolic Z-matrix:
 Charge =  0 Multiplicity = 1

                         Standard orientation:
 ---------------------------------------------------------------------
 Center     Atomic      Atomic             Coordinates (Angstroms)
 Number     Number       Type             X           Y           Z
 ---------------------------------------------------------------------
      1          6           0        0.667506   -0.003204   -0.003005
      2          8           0       -0.762473    0.092283   -0.010414
      3          1           0        1.078111   -0.690129   -0.853270
      4          1           0        1.070661   -0.422127    0.997586
      5          1           0        1.059169    1.017075   -0.113921
      6          1           0       -1.113198   -0.623859    0.070949
 ---------------------------------------------------------------------

 SCF Done:  E(RB2PLYPD3) =  -115.514249244     A.U. after   10 cycles
 E2(B2PLYPD3) =    -0.1454108392D+00 E(B2PLYPD3) =    -0.11565966008298D+03

 The electronic state is 1-A.
 Alpha  occ. eigenvalues --  -19.71222 -10.67750  -1.20078  -0.79711  -0.60403
 Alpha  occ. eigenvalues --   -0.50603  -0.50296  -0.41473  -0.35665
 Alpha virt. eigenvalues --    0.05357   0.08635   0.11913   0.12239   0.14723
 Alpha virt. eigenvalues --    0.17056   0.17970   0.28884   0.32542   0.33012
 Alpha virt. eigenvalues --    0.36657   0.38612   0.39591   0.39703   0.42476

 Mulliken charges:
               1
     1  C    0.059504
     2  O   -0.357131
     3  H    0.045337
     4  H    0.046156
     5  H    0.082455
     6  H    0.123678
 Sum of Mulliken charges =   0.00000

 Dipole moment (field-independent basis, Debye):
    X=              0.9251    Y=             -1.2791    Z=              0.1553  Tot=              1.5862
 Quadrupole moment (field-independent basis, Debye-Ang):
   XX=            -13.0507   YY=            -12.4174   ZZ=            -13.7826
   XY=              2.0774   XZ=             -0.2259   YZ=             -0.1008

 Normal termination of Gaussian 09 at Thu Aug 27 00:08:48 2020.
