 Gaussian 09, Revision D.01,
 Gaussian 09:  ES64L-G09RevD.01 24-Apr-2013

 --------------------
 #p B2PLYPD3/Def2QZVP
 --------------------

 --------
 methanol
 --------
 Symbolic Z-matrix:
 Charge =  0 Multiplicity = 1

                         Standard orientation:
 ---------------------------------------------------------------------
 Center     Atomic      Atomic             Coordinates (Angstroms)
 Number     Number       Type             X           Y           Z
 ---------------------------------------------------------------------
      1          6           0        0.643375    0.015389   -0.007392
      2          8           0       -0.736526   -0.155480    0.009941
      3          1           0        0.994026    0.622476    0.844879
      4          1           0        1.088986    0.460410   -0.839692
      5          1           0        1.135036   -0.867800    0.049035
      6          1           0       -1.186091    0.936419   -0.089398
 ---------------------------------------------------------------------

 SCF Done:  E(RB2PLYPD3) =  -115.509601031     A.U. after   11 cycles
 E2(B2PLYPD3) =    -0.1509696841D+00 E(B2PLYPD3) =    -0.11566057071500D+03

 The electronic state is 1-A.
 Alpha  occ. eigenvalues --  -19.74523 -10.63823  -1.14154  -0.78594  -0.56444
 Alpha  occ. eigenvalues --   -0.51753  -0.50447  -0.40350  -0.34781
 Alpha virt. eigenvalues --    0.02402   0.07581   0.12689   0.12892   0.14965
 Alpha virt. eigenvalues --    0.17857   0.18458   0.26485   0.29584   0.33149
 Alpha virt. eigenvalues --    0.35282   0.38949   0.40117   0.41620   0.43676

 Mulliken charges:
               1
     1  C    0.078979
     2  O   -0.475781
     3  H    0.032979
     4  H    0.039177
     5  H    0.064100
     6  H    0.260547
 Sum of Mulliken charges =   0.00000

 Dipole moment (field-independent basis, Debye):
    X=              0.7876    Y=              1.6248    Z=             -0.2123  Tot=              1.8180
 Quadrupole moment (field-independent basis, Debye-Ang):
   XX=            -12.8302   YY=            -11.9701   ZZ=            -14.0554
   XY=             -2.5678   XZ=              0.0569   YZ=             -0.1516

 Normal termination of Gaussian 09 at Wed Aug 26 16:24:48 2020.
