 Gaussian 09, Revision D.01,
 Gaussian 09:  ES64L-G09RevD.01 24-Apr-2013

 --------------------
 #p B2PLYPD3/Def2QZVP
 --------------------

 --------
 methanol
 --------
 Symbolic Z-matrix:
 Charge =  0 Multiplicity = 1

                         Standard orientation:
 ---------------------------------------------------------------------
 Center     Atomic      Atomic             Coordinates (Angstroms)
 Number     Number       Type             X           Y           Z
 ---------------------------------------------------------------------
      1          6           0        0.657958   -0.005907   -0.008134
      2          8           0       -0.745462    0.101081   -0.009147
      3          1           0        1.040116   -0.701880   -0.834306
      4          1           0        1.046875   -0.425799    0.998646
      5          1           0        1.084800    0.987061   -0.111166
      6          1           0       -1.155841   -0.632583    0.068805
 ---------------------------------------------------------------------

 SCF Done:  E(RB2PLYPD3) =  -115.533669442     A.U. after   10 cycles
 E2(B2PLYPD3) =    -0.1455107703D+00 E(B2PLYPD3) =    -0.11567918021240D+03

 The electronic state is 1-A.
 Alpha  occ. eigenvalues --  -19.71511 -10.67125  -1.19196  -0.79622  -0.60323
 Alpha  occ. eigenvalues --   -0.51246  -0.50640  -0.40793  -0.35233
 Alpha virt. eigenvalues --    0.05333   0.08573   0.12074   0.12445   0.14771
 Alpha virt. eigenvalues --    0.17152   0.17968   0.29023   0.32873   0.33707
 Alpha virt. eigenvalues --    0.36831   0.39137   0.39283   0.40153   0.42860

 Mulliken charges:
               1
     1  C    0.064083
     2  O   -0.392616
     3  H    0.042884
     4  H    0.039421
     5  H    0.081328
     6  H    0.164901
 Sum of Mulliken charges =   0.00000

 Dipole moment (field-independent basis, Debye):
    X=              0.7585    Y=             -1.3018    Z=              0.1216  Tot=              1.5115
 Quadrupole moment (field-independent basis, Debye-Ang):
   XX=            -12.8647   YY=            -12.4659   ZZ=            -13.8301
   XY=              2.2190   XZ=             -0.2482   YZ=             -0.0625

 Normal termination of Gaussian 09 at Wed Aug 26 11:50:46 2020.
