 Gaussian 09, Revision D.01,
 Gaussian 09:  ES64L-G09RevD.01 24-Apr-2013

 --------------------
 #p B2PLYPD3/Def2QZVP
 --------------------

 --------
 methanol
 --------
 Symbolic Z-matrix:
 Charge =  0 Multiplicity = 1

                         Standard orientation:
 ---------------------------------------------------------------------
 Center     Atomic      Atomic             Coordinates (Angstroms)
 Number     Number       Type             X           Y           Z
 ---------------------------------------------------------------------
      1          6           0       -0.672145   -0.030932   -0.004657
      2          8           0        0.747016    0.141451    0.007092
      3          1           0       -1.019006   -0.560121    0.852822
      4          1           0       -1.022236   -0.504853   -0.846071
      5          1           0       -1.092367    0.963116    0.006444
      6          1           0        1.190352   -0.844157   -0.041990
 ---------------------------------------------------------------------

 SCF Done:  E(RB2PLYPD3) =  -115.536581201     A.U. after   11 cycles
 E2(B2PLYPD3) =    -0.1493169491D+00 E(B2PLYPD3) =    -0.11568589815018D+03

 The electronic state is 1-A.
 Alpha  occ. eigenvalues --  -19.73400 -10.64373  -1.13687  -0.78739  -0.57127
 Alpha  occ. eigenvalues --   -0.52276  -0.49145  -0.40818  -0.35312
 Alpha virt. eigenvalues --    0.04037   0.07845   0.12472   0.12643   0.14928
 Alpha virt. eigenvalues --    0.17296   0.18217   0.29014   0.30832   0.33465
 Alpha virt. eigenvalues --    0.33787   0.38871   0.39739   0.42019   0.44351

 Mulliken charges:
               1
     1  C    0.079903
     2  O   -0.490667
     3  H    0.048282
     4  H    0.049783
     5  H    0.065593
     6  H    0.247107
 Sum of Mulliken charges =   0.00000

 Dipole moment (field-independent basis, Debye):
    X=             -0.9044    Y=             -1.6284    Z=             -0.1156  Tot=              1.8663
 Quadrupole moment (field-independent basis, Debye-Ang):
   XX=            -12.8713   YY=            -12.0503   ZZ=            -13.8459
   XY=             -2.3587   XZ=             -0.0569   YZ=              0.0704

 Normal termination of Gaussian 09 at Wed Aug 26 09:35:38 2020.
