 Gaussian 09, Revision D.01,
 Gaussian 09:  ES64L-G09RevD.01 24-Apr-2013

 --------------------
 #p B2PLYPD3/Def2QZVP
 --------------------

 --------
 methanol
 --------
 Symbolic Z-matrix:
 Charge =  0 Multiplicity = 1

                         Standard orientation:
 ---------------------------------------------------------------------
 Center     Atomic      Atomic             Coordinates (Angstroms)
 Number     Number       Type             X           Y           Z
 ---------------------------------------------------------------------
      1          6           0        0.695496    0.026495   -0.002567
      2          8           0       -0.755250   -0.147160   -0.000991
      3          1           0        1.081750    0.404272    0.855236
      4          1           0        1.017869    0.586420   -0.786567
      5          1           0        0.933667   -0.954163   -0.082267
      6          1           0       -1.164262    0.981784    0.036928
 ---------------------------------------------------------------------

 SCF Done:  E(RB2PLYPD3) =  -115.498854723     A.U. after   11 cycles
 E2(B2PLYPD3) =    -0.1523244182D+00 E(B2PLYPD3) =    -0.11565117914139D+03

 The electronic state is 1-A.
 Alpha  occ. eigenvalues --  -19.74140 -10.63050  -1.11593  -0.79458  -0.56649
 Alpha  occ. eigenvalues --   -0.52703  -0.47315  -0.41275  -0.35434
 Alpha virt. eigenvalues --    0.02577   0.07727   0.12314   0.12780   0.14941
 Alpha virt. eigenvalues --    0.16661   0.18349   0.26542   0.29346   0.32703
 Alpha virt. eigenvalues --    0.33921   0.38993   0.39247   0.42836   0.44746

 Mulliken charges:
               1
     1  C    0.083590
     2  O   -0.500432
     3  H    0.052128
     4  H    0.049682
     5  H    0.073430
     6  H    0.241603
 Sum of Mulliken charges =   0.00000

 Dipole moment (field-independent basis, Debye):
    X=              1.1395    Y=              1.6649    Z=              0.0534  Tot=              2.0182
 Quadrupole moment (field-independent basis, Debye-Ang):
   XX=            -13.2291   YY=            -11.5771   ZZ=            -13.8508
   XY=             -2.1561   XZ=             -0.0096   YZ=              0.0284

 Normal termination of Gaussian 09 at Wed Aug 26 22:51:18 2020.
