 Gaussian 09, Revision D.01,
 Gaussian 09:  ES64L-G09RevD.01 24-Apr-2013

 --------------------
 #p B2PLYPD3/Def2QZVP
 --------------------

 --------
 methanol
 --------
 Symbolic Z-matrix:
 Charge =  0 Multiplicity = 1

                         Standard orientation:
 ---------------------------------------------------------------------
 Center     Atomic      Atomic             Coordinates (Angstroms)
 Number     Number       Type             X           Y           Z
 ---------------------------------------------------------------------
      1          6           0        0.683353    0.018816    0.004648
      2          8           0       -0.756131   -0.135945    0.002429
      3          1           0        0.978587    0.567547    0.884177
      4          1           0        1.110154    0.502477   -0.865734
      5          1           0        1.067493   -0.935397    0.005317
      6          1           0       -1.207305    0.840034   -0.071080
 ---------------------------------------------------------------------

 SCF Done:  E(RB2PLYPD3) =  -115.536435304     A.U. after   11 cycles
 E2(B2PLYPD3) =    -0.1495988533D+00 E(B2PLYPD3) =    -0.11568603415745D+03

 The electronic state is 1-A.
 Alpha  occ. eigenvalues --  -19.73360 -10.64787  -1.13108  -0.78780  -0.56667
 Alpha  occ. eigenvalues --   -0.51746  -0.49224  -0.40993  -0.35193
 Alpha virt. eigenvalues --    0.04109   0.07738   0.12461   0.12611   0.14764
 Alpha virt. eigenvalues --    0.17156   0.18299   0.28926   0.31075   0.32536
 Alpha virt. eigenvalues --    0.33905   0.38809   0.39721   0.41501   0.43631

 Mulliken charges:
               1
     1  C    0.075419
     2  O   -0.496486
     3  H    0.051787
     4  H    0.047299
     5  H    0.073973
     6  H    0.248008
 Sum of Mulliken charges =   0.00000

 Dipole moment (field-independent basis, Debye):
    X=              0.9367    Y=              1.5585    Z=             -0.1179  Tot=              1.8221
 Quadrupole moment (field-independent basis, Debye-Ang):
   XX=            -12.8038   YY=            -12.0894   ZZ=            -13.8633
   XY=             -2.4377   XZ=              0.0472   YZ=             -0.0525

 Normal termination of Gaussian 09 at Wed Aug 26 14:53:52 2020.
