 Gaussian 09, Revision D.01,
 Gaussian 09:  ES64L-G09RevD.01 24-Apr-2013

 --------------------
 #p B2PLYPD3/Def2QZVP
 --------------------

 --------
 methanol
 --------
 Symbolic Z-matrix:
 Charge =  0 Multiplicity = 1

                         Standard orientation:
 ---------------------------------------------------------------------
 Center     Atomic      Atomic             Coordinates (Angstroms)
 Number     Number       Type             X           Y           Z
 ---------------------------------------------------------------------
      1          6           0       -0.671836    0.025951    0.005078
      2          8           0        0.758550   -0.150063   -0.017119
      3          1           0       -1.152300    0.568621   -0.805794
      4          1           0       -1.002216    0.496494    0.835623
      5          1           0       -1.113760   -0.935350    0.026036
      6          1           0        1.230895    0.915032    0.050621
 ---------------------------------------------------------------------

 SCF Done:  E(RB2PLYPD3) =  -115.514373890     A.U. after   11 cycles
 E2(B2PLYPD3) =    -0.1513668619D+00 E(B2PLYPD3) =    -0.11566574075152D+03

 The electronic state is 1-A.
 Alpha  occ. eigenvalues --  -19.74386 -10.64232  -1.12447  -0.78968  -0.56079
 Alpha  occ. eigenvalues --   -0.51191  -0.49104  -0.40807  -0.35306
 Alpha virt. eigenvalues --    0.02916   0.07405   0.12481   0.12862   0.14969
 Alpha virt. eigenvalues --    0.17403   0.18454   0.27215   0.29520   0.33020
 Alpha virt. eigenvalues --    0.33981   0.38815   0.39465   0.41078   0.43907

 Mulliken charges:
               1
     1  C    0.081399
     2  O   -0.494354
     3  H    0.044551
     4  H    0.048704
     5  H    0.064528
     6  H    0.255172
 Sum of Mulliken charges =   0.00000

 Dipole moment (field-independent basis, Debye):
    X=             -0.9161    Y=              1.6676    Z=              0.1929  Tot=              1.9124
 Quadrupole moment (field-independent basis, Debye-Ang):
   XX=            -12.6336   YY=            -11.9670   ZZ=            -14.0764
   XY=              2.4434   XZ=              0.1411   YZ=              0.0981

 Normal termination of Gaussian 09 at Wed Aug 26 15:19:04 2020.
