 Gaussian 09, Revision D.01,
 Gaussian 09:  ES64L-G09RevD.01 24-Apr-2013

 --------------------
 #p B2PLYPD3/Def2QZVP
 --------------------

 --------
 methanol
 --------
 Symbolic Z-matrix:
 Charge =  0 Multiplicity = 1

                         Standard orientation:
 ---------------------------------------------------------------------
 Center     Atomic      Atomic             Coordinates (Angstroms)
 Number     Number       Type             X           Y           Z
 ---------------------------------------------------------------------
      1          6           0        0.672343    0.027203    0.012754
      2          8           0       -0.753021   -0.141278   -0.008694
      3          1           0        1.035762    0.468212    0.836916
      4          1           0        1.031435    0.595179   -0.832780
      5          1           0        1.086795   -0.964976   -0.055379
      6          1           0       -1.163884    0.868586    0.044270
 ---------------------------------------------------------------------

 SCF Done:  E(RB2PLYPD3) =  -115.531782175     A.U. after   11 cycles
 E2(B2PLYPD3) =    -0.1496831799D+00 E(B2PLYPD3) =    -0.11568146535465D+03

 The electronic state is 1-A.
 Alpha  occ. eigenvalues --  -19.73637 -10.64279  -1.13511  -0.78940  -0.57149
 Alpha  occ. eigenvalues --   -0.52048  -0.48961  -0.41162  -0.35374
 Alpha virt. eigenvalues --    0.03901   0.07815   0.12404   0.12683   0.14977
 Alpha virt. eigenvalues --    0.17346   0.18226   0.28870   0.30505   0.33336
 Alpha virt. eigenvalues --    0.33839   0.38694   0.39487   0.41932   0.44665

 Mulliken charges:
               1
     1  C    0.082166
     2  O   -0.489206
     3  H    0.051251
     4  H    0.043668
     5  H    0.064860
     6  H    0.247260
 Sum of Mulliken charges =   0.00000

 Dipole moment (field-independent basis, Debye):
    X=              0.9666    Y=              1.6440    Z=              0.1441  Tot=              1.9125
 Quadrupole moment (field-independent basis, Debye-Ang):
   XX=            -12.9794   YY=            -11.9488   ZZ=            -13.8937
   XY=             -2.3043   XZ=             -0.0346   YZ=              0.1184

 Normal termination of Gaussian 09 at Wed Aug 26 23:55:09 2020.
