 Gaussian 09, Revision D.01,
 Gaussian 09:  ES64L-G09RevD.01 24-Apr-2013

 --------------------
 #p B2PLYPD3/Def2QZVP
 --------------------

 --------
 methanol
 --------
 Symbolic Z-matrix:
 Charge =  0 Multiplicity = 1

                         Standard orientation:
 ---------------------------------------------------------------------
 Center     Atomic      Atomic             Coordinates (Angstroms)
 Number     Number       Type             X           Y           Z
 ---------------------------------------------------------------------
      1          6           0        0.670487    0.016039   -0.018004
      2          8           0       -0.740396   -0.163070    0.022779
      3          1           0        1.043214    0.585292    0.855366
      4          1           0        0.921659    0.478163   -0.833606
      5          1           0        1.111832   -0.835237   -0.012927
      6          1           0       -1.176457    0.980114   -0.083039
 ---------------------------------------------------------------------

 SCF Done:  E(RB2PLYPD3) =  -115.484098813     A.U. after   11 cycles
 E2(B2PLYPD3) =    -0.1518106309D+00 E(B2PLYPD3) =    -0.11563590944387D+03

 The electronic state is 1-A.
 Alpha  occ. eigenvalues --  -19.74226 -10.62606  -1.12512  -0.79712  -0.56140
 Alpha  occ. eigenvalues --   -0.52107  -0.50111  -0.40587  -0.34893
 Alpha virt. eigenvalues --    0.01893   0.07704   0.12562   0.12925   0.14664
 Alpha virt. eigenvalues --    0.17770   0.18199   0.25699   0.29553   0.33026
 Alpha virt. eigenvalues --    0.33857   0.38992   0.41300   0.41761   0.44334

 Mulliken charges:
               1
     1  C    0.092528
     2  O   -0.496258
     3  H    0.038840
     4  H    0.044170
     5  H    0.067358
     6  H    0.253361
 Sum of Mulliken charges =   0.00000

 Dipole moment (field-independent basis, Debye):
    X=              0.9940    Y=              1.6415    Z=             -0.2821  Tot=              1.9396
 Quadrupole moment (field-independent basis, Debye-Ang):
   XX=            -13.0264   YY=            -11.7473   ZZ=            -13.8179
   XY=             -2.5791   XZ=              0.1400   YZ=             -0.1900

 Normal termination of Gaussian 09 at Wed Aug 26 13:13:10 2020.
