 Gaussian 09, Revision D.01,
 Gaussian 09:  ES64L-G09RevD.01 24-Apr-2013

 --------------------
 #p B2PLYPD3/Def2QZVP
 --------------------

 --------
 methanol
 --------
 Symbolic Z-matrix:
 Charge =  0 Multiplicity = 1

                         Standard orientation:
 ---------------------------------------------------------------------
 Center     Atomic      Atomic             Coordinates (Angstroms)
 Number     Number       Type             X           Y           Z
 ---------------------------------------------------------------------
      1          6           0       -0.650501    0.014650    0.010040
      2          8           0        0.730319   -0.160942   -0.020466
      3          1           0       -1.044396    0.670116   -0.782546
      4          1           0       -0.956889    0.445090    0.850164
      5          1           0       -1.148790   -0.856627   -0.047285
      6          1           0        1.210527    0.941059    0.083159
 ---------------------------------------------------------------------

 SCF Done:  E(RB2PLYPD3) =  -115.499906294     A.U. after   11 cycles
 E2(B2PLYPD3) =    -0.1510196081D+00 E(B2PLYPD3) =    -0.11565092590231D+03

 The electronic state is 1-A.
 Alpha  occ. eigenvalues --  -19.74271 -10.63087  -1.13722  -0.78998  -0.56420
 Alpha  occ. eigenvalues --   -0.51771  -0.50804  -0.40310  -0.34658
 Alpha virt. eigenvalues --    0.02081   0.07654   0.12760   0.12951   0.14951
 Alpha virt. eigenvalues --    0.17861   0.18269   0.26035   0.29693   0.33151
 Alpha virt. eigenvalues --    0.35033   0.39117   0.41048   0.41517   0.43944

 Mulliken charges:
               1
     1  C    0.090878
     2  O   -0.485875
     3  H    0.030165
     4  H    0.040655
     5  H    0.064886
     6  H    0.259291
 Sum of Mulliken charges =   0.00000

 Dipole moment (field-independent basis, Debye):
    X=             -0.8001    Y=              1.6555    Z=              0.2685  Tot=              1.8582
 Quadrupole moment (field-independent basis, Debye-Ang):
   XX=            -12.7611   YY=            -11.8623   ZZ=            -14.0143
   XY=              2.6117   XZ=              0.1483   YZ=              0.1768

 Normal termination of Gaussian 09 at Wed Aug 26 13:51:07 2020.
