 Gaussian 09, Revision D.01,
 Gaussian 09:  ES64L-G09RevD.01 24-Apr-2013

 --------------------
 #p B2PLYPD3/Def2QZVP
 --------------------

 --------
 methanol
 --------
 Symbolic Z-matrix:
 Charge =  0 Multiplicity = 1

                         Standard orientation:
 ---------------------------------------------------------------------
 Center     Atomic      Atomic             Coordinates (Angstroms)
 Number     Number       Type             X           Y           Z
 ---------------------------------------------------------------------
      1          6           0        0.672130   -0.014433    0.004635
      2          8           0       -0.756679    0.099296   -0.014402
      3          1           0        1.026681   -0.761615   -0.816342
      4          1           0        1.095450   -0.305154    1.025336
      5          1           0        1.086925    0.967833   -0.235330
      6          1           0       -1.188402   -0.608834    0.113743
 ---------------------------------------------------------------------

 SCF Done:  E(RB2PLYPD3) =  -115.530110444     A.U. after   11 cycles
 E2(B2PLYPD3) =    -0.1458171417D+00 E(B2PLYPD3) =    -0.11567592758530D+03

 The electronic state is 1-A.
 Alpha  occ. eigenvalues --  -19.71347 -10.67514  -1.18431  -0.79641  -0.59795
 Alpha  occ. eigenvalues --   -0.50869  -0.50317  -0.40425  -0.35623
 Alpha virt. eigenvalues --    0.05386   0.08425   0.11963   0.12452   0.14491
 Alpha virt. eigenvalues --    0.17040   0.18216   0.28904   0.32454   0.33216
 Alpha virt. eigenvalues --    0.36495   0.38939   0.39282   0.40101   0.42719

 Mulliken charges:
               1
     1  C    0.061640
     2  O   -0.400383
     3  H    0.045611
     4  H    0.053173
     5  H    0.080600
     6  H    0.159359
 Sum of Mulliken charges =   0.00000

 Dipole moment (field-independent basis, Debye):
    X=              0.8282    Y=             -1.2660    Z=              0.2409  Tot=              1.5319
 Quadrupole moment (field-independent basis, Debye-Ang):
   XX=            -12.6995   YY=            -12.6660   ZZ=            -13.6765
   XY=              2.2221   XZ=             -0.3277   YZ=             -0.1762

 Normal termination of Gaussian 09 at Wed Aug 26 11:21:29 2020.
