 Gaussian 09, Revision D.01,
 Gaussian 09:  ES64L-G09RevD.01 24-Apr-2013

 --------------------
 #p B2PLYPD3/Def2QZVP
 --------------------

 --------
 methanol
 --------
 Symbolic Z-matrix:
 Charge =  0 Multiplicity = 1

                         Standard orientation:
 ---------------------------------------------------------------------
 Center     Atomic      Atomic             Coordinates (Angstroms)
 Number     Number       Type             X           Y           Z
 ---------------------------------------------------------------------
      1          6           0        0.678856    0.018982    0.001521
      2          8           0       -0.748336   -0.145402   -0.002965
      3          1           0        0.972345    0.482607    0.916091
      4          1           0        0.992952    0.597940   -0.843857
      5          1           0        1.139833   -0.878429   -0.062398
      6          1           0       -1.191579    0.847206    0.004757
 ---------------------------------------------------------------------

 SCF Done:  E(RB2PLYPD3) =  -115.533363799     A.U. after   11 cycles
 E2(B2PLYPD3) =    -0.1493116629D+00 E(B2PLYPD3) =    -0.11568267546167D+03

 The electronic state is 1-A.
 Alpha  occ. eigenvalues --  -19.73209 -10.64207  -1.13278  -0.79008  -0.56308
 Alpha  occ. eigenvalues --   -0.52160  -0.50404  -0.40611  -0.35045
 Alpha virt. eigenvalues --    0.03951   0.07862   0.12402   0.12875   0.14513
 Alpha virt. eigenvalues --    0.17693   0.18070   0.29099   0.30509   0.32908
 Alpha virt. eigenvalues --    0.33359   0.39354   0.41268   0.41738   0.43297

 Mulliken charges:
               1
     1  C    0.083445
     2  O   -0.498709
     3  H    0.048793
     4  H    0.044381
     5  H    0.071360
     6  H    0.250731
 Sum of Mulliken charges =   0.00000

 Dipole moment (field-independent basis, Debye):
    X=              0.9456    Y=              1.5766    Z=              0.0092  Tot=              1.8385
 Quadrupole moment (field-independent basis, Debye-Ang):
   XX=            -12.8440   YY=            -12.1083   ZZ=            -13.7614
   XY=             -2.5678   XZ=             -0.0615   YZ=              0.0158

 Normal termination of Gaussian 09 at Wed Aug 26 14:36:34 2020.
