 Gaussian 09, Revision D.01,
 Gaussian 09:  ES64L-G09RevD.01 24-Apr-2013

 --------------------
 #p B2PLYPD3/Def2QZVP
 --------------------

 --------
 methanol
 --------
 Symbolic Z-matrix:
 Charge =  0 Multiplicity = 1

                         Standard orientation:
 ---------------------------------------------------------------------
 Center     Atomic      Atomic             Coordinates (Angstroms)
 Number     Number       Type             X           Y           Z
 ---------------------------------------------------------------------
      1          6           0       -0.683859    0.016256   -0.027318
      2          8           0        0.762989   -0.196903    0.009172
      3          1           0       -1.175649    0.421869   -0.682514
      4          1           0       -0.960481    0.678105    0.755709
      5          1           0       -1.113149   -0.823259    0.112748
      6          1           0        1.248526    1.200970   -0.095411
 ---------------------------------------------------------------------

 SCF Done:  E(RB2PLYPD3) =  -115.391537118     A.U. after   12 cycles
 E2(B2PLYPD3) =    -0.1587011446D+00 E(B2PLYPD3) =    -0.11555023826249D+03

 The electronic state is 1-A.
 Alpha  occ. eigenvalues --  -19.76259 -10.61814  -1.10243  -0.81970  -0.55385
 Alpha  occ. eigenvalues --   -0.51306  -0.48012  -0.39765  -0.35115
 Alpha virt. eigenvalues --   -0.03112   0.07169   0.12358   0.13114   0.14424
 Alpha virt. eigenvalues --    0.17762   0.18566   0.21201   0.29176   0.31770
 Alpha virt. eigenvalues --    0.34534   0.37334   0.39040   0.41803   0.46087

 Mulliken charges:
               1
     1  C    0.099016
     2  O   -0.472448
     3  H    0.052777
     4  H    0.031936
     5  H    0.059716
     6  H    0.229002
 Sum of Mulliken charges =   0.00000

 Dipole moment (field-independent basis, Debye):
    X=             -1.1909    Y=              1.7751    Z=             -0.2089  Tot=              2.1478
 Quadrupole moment (field-independent basis, Debye-Ang):
   XX=            -12.7978   YY=            -11.1805   ZZ=            -14.3525
   XY=              2.4915   XZ=              0.0693   YZ=             -0.2082

 Normal termination of Gaussian 09 at Wed Aug 26 21:50:34 2020.
