 Gaussian 09, Revision D.01,
 Gaussian 09:  ES64L-G09RevD.01 24-Apr-2013

 --------------------
 #p B2PLYPD3/Def2QZVP
 --------------------

 --------
 methanol
 --------
 Symbolic Z-matrix:
 Charge =  0 Multiplicity = 1

                         Standard orientation:
 ---------------------------------------------------------------------
 Center     Atomic      Atomic             Coordinates (Angstroms)
 Number     Number       Type             X           Y           Z
 ---------------------------------------------------------------------
      1          6           0       -0.678704   -0.001492   -0.000319
      2          8           0        0.746764    0.089042   -0.011279
      3          1           0       -1.015564   -0.394094    1.040218
      4          1           0       -1.006624   -0.740489   -0.851955
      5          1           0       -1.037130    0.994611   -0.171399
      6          1           0        1.157430   -0.563407    0.075279
 ---------------------------------------------------------------------

 SCF Done:  E(RB2PLYPD3) =  -115.496010237     A.U. after   10 cycles
 E2(B2PLYPD3) =    -0.1447128296D+00 E(B2PLYPD3) =    -0.11564072306699D+03

 The electronic state is 1-A.
 Alpha  occ. eigenvalues --  -19.70152 -10.67719  -1.20375  -0.80706  -0.60121
 Alpha  occ. eigenvalues --   -0.51290  -0.50896  -0.40566  -0.35354
 Alpha virt. eigenvalues --    0.05391   0.08947   0.11760   0.12373   0.14365
 Alpha virt. eigenvalues --    0.16830   0.17683   0.28982   0.32320   0.32739
 Alpha virt. eigenvalues --    0.36931   0.38660   0.39833   0.40712   0.42686

 Mulliken charges:
               1
     1  C    0.063651
     2  O   -0.339845
     3  H    0.048227
     4  H    0.044516
     5  H    0.090093
     6  H    0.093358
 Sum of Mulliken charges =   0.00000

 Dipole moment (field-independent basis, Debye):
    X=             -0.8485    Y=             -1.1963    Z=              0.1637  Tot=              1.4758
 Quadrupole moment (field-independent basis, Debye-Ang):
   XX=            -12.9722   YY=            -12.4980   ZZ=            -13.5956
   XY=             -2.1439   XZ=              0.2747   YZ=             -0.1371

 Normal termination of Gaussian 09 at Wed Aug 26 14:08:56 2020.
