 Gaussian 09, Revision D.01,
 Gaussian 09:  ES64L-G09RevD.01 24-Apr-2013

 --------------------
 #p B2PLYPD3/Def2QZVP
 --------------------

 --------
 methanol
 --------
 Symbolic Z-matrix:
 Charge =  0 Multiplicity = 1

                         Standard orientation:
 ---------------------------------------------------------------------
 Center     Atomic      Atomic             Coordinates (Angstroms)
 Number     Number       Type             X           Y           Z
 ---------------------------------------------------------------------
      1          6           0        0.677849   -0.011476    0.008047
      2          8           0       -0.753022    0.099082   -0.017711
      3          1           0        1.033110   -0.751734   -0.810850
      4          1           0        1.006309   -0.371106    0.980115
      5          1           0        1.063090    1.019103   -0.169757
      6          1           0       -1.145422   -0.620063    0.093901
 ---------------------------------------------------------------------

 SCF Done:  E(RB2PLYPD3) =  -115.527913660     A.U. after   10 cycles
 E2(B2PLYPD3) =    -0.1454144115D+00 E(B2PLYPD3) =    -0.11567332807187D+03

 The electronic state is 1-A.
 Alpha  occ. eigenvalues --  -19.70926 -10.67046  -1.18773  -0.79770  -0.60047
 Alpha  occ. eigenvalues --   -0.51282  -0.50054  -0.41029  -0.35553
 Alpha virt. eigenvalues --    0.05368   0.08721   0.12024   0.12241   0.14696
 Alpha virt. eigenvalues --    0.16948   0.17770   0.29087   0.32483   0.33059
 Alpha virt. eigenvalues --    0.37453   0.38853   0.39448   0.40419   0.42839

 Mulliken charges:
               1
     1  C    0.068640
     2  O   -0.393453
     3  H    0.043997
     4  H    0.055931
     5  H    0.079865
     6  H    0.145019
 Sum of Mulliken charges =   0.00000

 Dipole moment (field-independent basis, Debye):
    X=              0.9093    Y=             -1.3266    Z=              0.2740  Tot=              1.6315
 Quadrupole moment (field-independent basis, Debye-Ang):
   XX=            -12.9922   YY=            -12.3728   ZZ=            -13.6769
   XY=              2.1170   XZ=             -0.2610   YZ=             -0.1796

 Normal termination of Gaussian 09 at Wed Aug 26 10:10:49 2020.
