 Gaussian 09, Revision D.01,
 Gaussian 09:  ES64L-G09RevD.01 24-Apr-2013

 --------------------
 #p B2PLYPD3/Def2QZVP
 --------------------

 --------
 methanol
 --------
 Symbolic Z-matrix:
 Charge =  0 Multiplicity = 1

                         Standard orientation:
 ---------------------------------------------------------------------
 Center     Atomic      Atomic             Coordinates (Angstroms)
 Number     Number       Type             X           Y           Z
 ---------------------------------------------------------------------
      1          6           0        0.687495    0.040834   -0.013744
      2          8           0       -0.722223   -0.175381    0.034276
      3          1           0        1.117172    0.593618    0.773378
      4          1           0        0.883938    0.484527   -0.767637
      5          1           0        1.016466   -0.908849   -0.084090
      6          1           0       -1.364760    0.988751   -0.113394
 ---------------------------------------------------------------------

 SCF Done:  E(RB2PLYPD3) =  -115.440807882     A.U. after   12 cycles
 E2(B2PLYPD3) =    -0.1540094820D+00 E(B2PLYPD3) =    -0.11559481736446D+03

 The electronic state is 1-A.
 Alpha  occ. eigenvalues --  -19.74420 -10.61728  -1.11528  -0.80107  -0.56425
 Alpha  occ. eigenvalues --   -0.52896  -0.48396  -0.39515  -0.34962
 Alpha virt. eigenvalues --    0.00186   0.07532   0.12445   0.13098   0.15100
 Alpha virt. eigenvalues --    0.16763   0.18223   0.23563   0.29481   0.33013
 Alpha virt. eigenvalues --    0.34392   0.38920   0.39549   0.41855   0.45825

 Mulliken charges:
               1
     1  C    0.068615
     2  O   -0.500218
     3  H    0.049975
     4  H    0.070514
     5  H    0.072274
     6  H    0.238840
 Sum of Mulliken charges =   0.00000

 Dipole moment (field-independent basis, Debye):
    X=              0.8758    Y=              1.6827    Z=             -0.3623  Tot=              1.9312
 Quadrupole moment (field-independent basis, Debye-Ang):
   XX=            -12.4051   YY=            -11.7051   ZZ=            -13.9357
   XY=             -2.5026   XZ=              0.2817   YZ=             -0.1548

 Normal termination of Gaussian 09 at Wed Aug 26 19:43:10 2020.
