 Gaussian 09, Revision D.01,
 Gaussian 09:  ES64L-G09RevD.01 24-Apr-2013

 --------------------
 #p B2PLYPD3/Def2QZVP
 --------------------

 --------
 methanol
 --------
 Symbolic Z-matrix:
 Charge =  0 Multiplicity = 1

                         Standard orientation:
 ---------------------------------------------------------------------
 Center     Atomic      Atomic             Coordinates (Angstroms)
 Number     Number       Type             X           Y           Z
 ---------------------------------------------------------------------
      1          6           0       -0.676198   -0.005581    0.018409
      2          8           0        0.769134    0.078365   -0.032280
      3          1           0       -1.008833   -0.287117    1.030700
      4          1           0       -1.136511   -0.794354   -0.800501
      5          1           0       -1.051743    1.037973   -0.229496
      6          1           0        1.101202   -0.549939    0.147082
 ---------------------------------------------------------------------

 SCF Done:  E(RB2PLYPD3) =  -115.457396261     A.U. after   11 cycles
 E2(B2PLYPD3) =    -0.1448044791D+00 E(B2PLYPD3) =    -0.11560220074003D+03

 The electronic state is 1-A.
 Alpha  occ. eigenvalues --  -19.70299 -10.68445  -1.22200  -0.80425  -0.60962
 Alpha  occ. eigenvalues --   -0.50777  -0.49732  -0.41439  -0.36068
 Alpha virt. eigenvalues --    0.05338   0.08812   0.11671   0.12031   0.14552
 Alpha virt. eigenvalues --    0.16896   0.17937   0.28689   0.31582   0.32716
 Alpha virt. eigenvalues --    0.35867   0.38035   0.39987   0.40190   0.42350

 Mulliken charges:
               1
     1  C    0.054038
     2  O   -0.291070
     3  H    0.061763
     4  H    0.042627
     5  H    0.082504
     6  H    0.050137
 Sum of Mulliken charges =   0.00000

 Dipole moment (field-independent basis, Debye):
    X=             -1.0071    Y=             -1.1572    Z=              0.4679  Tot=              1.6039
 Quadrupole moment (field-independent basis, Debye-Ang):
   XX=            -13.1033   YY=            -12.5695   ZZ=            -13.5484
   XY=             -1.9135   XZ=              0.4817   YZ=             -0.3061

 Normal termination of Gaussian 09 at Wed Aug 26 14:35:54 2020.
