 Gaussian 09, Revision D.01,
 Gaussian 09:  ES64L-G09RevD.01 24-Apr-2013

 --------------------
 #p B2PLYPD3/Def2QZVP
 --------------------

 --------
 methanol
 --------
 Symbolic Z-matrix:
 Charge =  0 Multiplicity = 1

                         Standard orientation:
 ---------------------------------------------------------------------
 Center     Atomic      Atomic             Coordinates (Angstroms)
 Number     Number       Type             X           Y           Z
 ---------------------------------------------------------------------
      1          6           0       -0.675698    0.002295    0.011640
      2          8           0        0.742791   -0.066045   -0.031517
      3          1           0       -0.895970    1.100588   -0.520168
      4          1           0       -0.903261   -0.003503    1.177155
      5          1           0       -1.187441   -0.885655   -0.591940
      6          1           0        1.098531    0.303160    0.117253
 ---------------------------------------------------------------------

 SCF Done:  E(RB2PLYPD3) =  -114.944794679     A.U. after   11 cycles
 E2(B2PLYPD3) =    -0.1433782005D+00 E(B2PLYPD3) =    -0.11508817287925D+03

 The electronic state is 1-A.
 Alpha  occ. eigenvalues --  -19.67628 -10.70825  -1.31086  -0.84889  -0.61485
 Alpha  occ. eigenvalues --   -0.51825  -0.51095  -0.39119  -0.35798
 Alpha virt. eigenvalues --    0.04843   0.09797   0.11049   0.11803   0.13433
 Alpha virt. eigenvalues --    0.16791   0.16928   0.28221   0.30980   0.31847
 Alpha virt. eigenvalues --    0.34707   0.36060   0.37710   0.41385   0.43762

 Mulliken charges:
               1
     1  C    0.065070
     2  O   -0.090069
     3  H    0.039648
     4  H    0.059343
     5  H    0.095127
     6  H   -0.169119
 Sum of Mulliken charges =   0.00000

 Dipole moment (field-independent basis, Debye):
    X=             -0.9589    Y=              0.8380    Z=              0.3736  Tot=              1.3271
 Quadrupole moment (field-independent basis, Debye-Ang):
   XX=            -13.0626   YY=            -12.8435   ZZ=            -13.1479
   XY=              1.8828   XZ=              0.8160   YZ=              0.2735

 Normal termination of Gaussian 09 at Wed Aug 26 19:08:43 2020.
