 Gaussian 09, Revision D.01,
 Gaussian 09:  ES64L-G09RevD.01 24-Apr-2013

 --------------------
 #p B2PLYPD3/Def2QZVP
 --------------------

 --------
 methanol
 --------
 Symbolic Z-matrix:
 Charge =  0 Multiplicity = 1

                         Standard orientation:
 ---------------------------------------------------------------------
 Center     Atomic      Atomic             Coordinates (Angstroms)
 Number     Number       Type             X           Y           Z
 ---------------------------------------------------------------------
      1          6           0       -0.663394   -0.018142   -0.008186
      2          8           0        0.740227    0.129144    0.006033
      3          1           0       -1.049169   -0.535195    0.874619
      4          1           0       -0.965450   -0.544498   -0.866748
      5          1           0       -1.050332    0.965463   -0.009385
      6          1           0        1.123502   -0.810069    0.002363
 ---------------------------------------------------------------------

 SCF Done:  E(RB2PLYPD3) =  -115.547638325     A.U. after   10 cycles
 E2(B2PLYPD3) =    -0.1479142244D+00 E(B2PLYPD3) =    -0.11569555254936D+03

 The electronic state is 1-A.
 Alpha  occ. eigenvalues --  -19.72860 -10.64619  -1.15443  -0.78664  -0.58332
 Alpha  occ. eigenvalues --   -0.52201  -0.49835  -0.41279  -0.35154
 Alpha virt. eigenvalues --    0.04572   0.08227   0.12483   0.12508   0.14965
 Alpha virt. eigenvalues --    0.17256   0.18035   0.29177   0.32831   0.33311
 Alpha virt. eigenvalues --    0.34466   0.39097   0.40146   0.41460   0.44330

 Mulliken charges:
               1
     1  C    0.075025
     2  O   -0.470606
     3  H    0.042125
     4  H    0.046879
     5  H    0.070294
     6  H    0.236283
 Sum of Mulliken charges =   0.00000

 Dipole moment (field-independent basis, Debye):
    X=             -0.8943    Y=             -1.5528    Z=             -0.0452  Tot=              1.7925
 Quadrupole moment (field-independent basis, Debye-Ang):
   XX=            -13.1736   YY=            -12.0130   ZZ=            -13.7920
   XY=             -2.2678   XZ=             -0.0321   YZ=              0.0424

 Normal termination of Gaussian 09 at Wed Aug 26 10:05:41 2020.
