 Gaussian 09, Revision D.01,
 Gaussian 09:  ES64L-G09RevD.01 24-Apr-2013

 --------------------
 #p B2PLYPD3/Def2QZVP
 --------------------

 --------
 methanol
 --------
 Symbolic Z-matrix:
 Charge =  0 Multiplicity = 1

                         Standard orientation:
 ---------------------------------------------------------------------
 Center     Atomic      Atomic             Coordinates (Angstroms)
 Number     Number       Type             X           Y           Z
 ---------------------------------------------------------------------
      1          6           0        0.677731   -0.008702    0.002390
      2          8           0       -0.757267    0.102207   -0.005764
      3          1           0        1.050398   -0.623913   -0.879564
      4          1           0        1.040113   -0.456434    0.960592
      5          1           0        1.011925    1.005566   -0.082245
      6          1           0       -1.110685   -0.690663    0.032989
 ---------------------------------------------------------------------

 SCF Done:  E(RB2PLYPD3) =  -115.542306204     A.U. after   10 cycles
 E2(B2PLYPD3) =    -0.1461661264D+00 E(B2PLYPD3) =    -0.11568847233069D+03

 The electronic state is 1-A.
 Alpha  occ. eigenvalues --  -19.71581 -10.66541  -1.17721  -0.79302  -0.59357
 Alpha  occ. eigenvalues --   -0.51185  -0.49962  -0.41623  -0.35570
 Alpha virt. eigenvalues --    0.05292   0.08550   0.12064   0.12351   0.14721
 Alpha virt. eigenvalues --    0.16926   0.18004   0.29009   0.32527   0.33250
 Alpha virt. eigenvalues --    0.37148   0.38854   0.39792   0.40275   0.43249

 Mulliken charges:
               1
     1  C    0.064905
     2  O   -0.421324
     3  H    0.047337
     4  H    0.052049
     5  H    0.079640
     6  H    0.177394
 Sum of Mulliken charges =   0.00000

 Dipole moment (field-independent basis, Debye):
    X=              0.9669    Y=             -1.3790    Z=              0.0820  Tot=              1.6862
 Quadrupole moment (field-independent basis, Debye-Ang):
   XX=            -13.1894   YY=            -12.2493   ZZ=            -13.6851
   XY=              2.1112   XZ=             -0.0959   YZ=             -0.0686

 Normal termination of Gaussian 09 at Wed Aug 26 23:58:36 2020.
