 Gaussian 09, Revision D.01,
 Gaussian 09:  ES64L-G09RevD.01 24-Apr-2013

 --------------------
 #p B2PLYPD3/Def2QZVP
 --------------------

 --------
 methanol
 --------
 Symbolic Z-matrix:
 Charge =  0 Multiplicity = 1

                         Standard orientation:
 ---------------------------------------------------------------------
 Center     Atomic      Atomic             Coordinates (Angstroms)
 Number     Number       Type             X           Y           Z
 ---------------------------------------------------------------------
      1          6           0       -0.665892   -0.020446    0.012753
      2          8           0        0.758348    0.095397   -0.021757
      3          1           0       -1.031652   -0.361664    0.965903
      4          1           0       -1.078027   -0.725859   -0.825304
      5          1           0       -1.073746    1.058285   -0.154458
      6          1           0        1.111994   -0.611259    0.111398
 ---------------------------------------------------------------------

 SCF Done:  E(RB2PLYPD3) =  -115.513035145     A.U. after   10 cycles
 E2(B2PLYPD3) =    -0.1453171489D+00 E(B2PLYPD3) =    -0.11565835229380D+03

 The electronic state is 1-A.
 Alpha  occ. eigenvalues --  -19.71149 -10.67515  -1.20200  -0.79676  -0.60839
 Alpha  occ. eigenvalues --   -0.51375  -0.49412  -0.41098  -0.35975
 Alpha virt. eigenvalues --    0.05345   0.08717   0.11862   0.12164   0.14802
 Alpha virt. eigenvalues --    0.17028   0.18025   0.28903   0.32656   0.33213
 Alpha virt. eigenvalues --    0.36699   0.37920   0.39629   0.40810   0.42473

 Mulliken charges:
               1
     1  C    0.058482
     2  O   -0.355294
     3  H    0.059809
     4  H    0.045899
     5  H    0.070047
     6  H    0.121057
 Sum of Mulliken charges =   0.00000

 Dipole moment (field-independent basis, Debye):
    X=             -0.9095    Y=             -1.3356    Z=              0.3458  Tot=              1.6525
 Quadrupole moment (field-independent basis, Debye-Ang):
   XX=            -13.0598   YY=            -12.4713   ZZ=            -13.6783
   XY=             -1.9756   XZ=              0.2806   YZ=             -0.1983

 Normal termination of Gaussian 09 at Wed Aug 26 10:22:29 2020.
