 Gaussian 09, Revision D.01,
 Gaussian 09:  ES64L-G09RevD.01 24-Apr-2013

 --------------------
 #p B2PLYPD3/Def2QZVP
 --------------------

 --------
 methanol
 --------
 Symbolic Z-matrix:
 Charge =  0 Multiplicity = 1

                         Standard orientation:
 ---------------------------------------------------------------------
 Center     Atomic      Atomic             Coordinates (Angstroms)
 Number     Number       Type             X           Y           Z
 ---------------------------------------------------------------------
      1          6           0        0.665479   -0.021627   -0.004546
      2          8           0       -0.751853    0.076400   -0.001166
      3          1           0        1.024653   -0.644490   -0.880850
      4          1           0        1.107135   -0.476838    0.945855
      5          1           0        0.999420    1.159015   -0.078241
      6          1           0       -1.109257   -0.519127    0.049842
 ---------------------------------------------------------------------

 SCF Done:  E(RB2PLYPD3) =  -115.411096812     A.U. after   11 cycles
 E2(B2PLYPD3) =    -0.1441649347D+00 E(B2PLYPD3) =    -0.11555526174668D+03

 The electronic state is 1-A.
 Alpha  occ. eigenvalues --  -19.69753 -10.68699  -1.24182  -0.81227  -0.62062
 Alpha  occ. eigenvalues --   -0.51479  -0.49048  -0.40584  -0.36206
 Alpha virt. eigenvalues --    0.05243   0.09140   0.11305   0.12100   0.14900
 Alpha virt. eigenvalues --    0.16595   0.17773   0.28817   0.32338   0.33318
 Alpha virt. eigenvalues --    0.35476   0.38422   0.39278   0.40621   0.41681

 Mulliken charges:
               1
     1  C    0.045178
     2  O   -0.240693
     3  H    0.056775
     4  H    0.054602
     5  H    0.072139
     6  H    0.011998
 Sum of Mulliken charges =   0.00000

 Dipole moment (field-independent basis, Debye):
    X=              0.8519    Y=             -1.2854    Z=              0.1034  Tot=              1.5455
 Quadrupole moment (field-independent basis, Debye-Ang):
   XX=            -13.0865   YY=            -12.4352   ZZ=            -13.6771
   XY=              1.7015   XZ=             -0.0727   YZ=             -0.0310

 Normal termination of Gaussian 09 at Wed Aug 26 15:57:39 2020.
