 Gaussian 09, Revision D.01,
 Gaussian 09:  ES64L-G09RevD.01 24-Apr-2013

 --------------------
 #p B2PLYPD3/Def2QZVP
 --------------------

 --------
 methanol
 --------
 Symbolic Z-matrix:
 Charge =  0 Multiplicity = 1

                         Standard orientation:
 ---------------------------------------------------------------------
 Center     Atomic      Atomic             Coordinates (Angstroms)
 Number     Number       Type             X           Y           Z
 ---------------------------------------------------------------------
      1          6           0        0.638365    0.016314   -0.025121
      2          8           0       -0.739670   -0.150058    0.011605
      3          1           0        1.043818    0.543340    0.923764
      4          1           0        1.108488    0.482351   -0.822466
      5          1           0        1.109600   -0.858864    0.026851
      6          1           0       -1.174735    0.935754   -0.070264
 ---------------------------------------------------------------------

 SCF Done:  E(RB2PLYPD3) =  -115.505908667     A.U. after   11 cycles
 E2(B2PLYPD3) =    -0.1510429473D+00 E(B2PLYPD3) =    -0.11565695161423D+03

 The electronic state is 1-A.
 Alpha  occ. eigenvalues --  -19.74746 -10.64144  -1.14516  -0.78702  -0.56713
 Alpha  occ. eigenvalues --   -0.51145  -0.50849  -0.40406  -0.34761
 Alpha virt. eigenvalues --    0.02585   0.07495   0.12475   0.13016   0.14948
 Alpha virt. eigenvalues --    0.17729   0.18781   0.26672   0.29489   0.33014
 Alpha virt. eigenvalues --    0.35538   0.37990   0.40156   0.41273   0.44017

 Mulliken charges:
               1
     1  C    0.069841
     2  O   -0.466878
     3  H    0.026849
     4  H    0.044812
     5  H    0.063545
     6  H    0.261831
 Sum of Mulliken charges =   0.00000

 Dipole moment (field-independent basis, Debye):
    X=              0.7555    Y=              1.5616    Z=             -0.2547  Tot=              1.7534
 Quadrupole moment (field-independent basis, Debye-Ang):
   XX=            -12.8610   YY=            -12.0914   ZZ=            -14.0392
   XY=             -2.5779   XZ=             -0.0458   YZ=             -0.2283

 Normal termination of Gaussian 09 at Wed Aug 26 21:57:50 2020.
