 Gaussian 09, Revision D.01,
 Gaussian 09:  ES64L-G09RevD.01 24-Apr-2013

 --------------------
 #p B2PLYPD3/Def2QZVP
 --------------------

 --------
 methanol
 --------
 Symbolic Z-matrix:
 Charge =  0 Multiplicity = 1

                         Standard orientation:
 ---------------------------------------------------------------------
 Center     Atomic      Atomic             Coordinates (Angstroms)
 Number     Number       Type             X           Y           Z
 ---------------------------------------------------------------------
      1          6           0        0.683315   -0.005636   -0.000670
      2          8           0       -0.757339    0.092820   -0.008833
      3          1           0        1.053201   -0.635062   -0.879057
      4          1           0        0.993227   -0.438529    1.006255
      5          1           0        0.991209    1.006501   -0.087459
      6          1           0       -1.078816   -0.641654    0.034941
 ---------------------------------------------------------------------

 SCF Done:  E(RB2PLYPD3) =  -115.516375613     A.U. after   10 cycles
 E2(B2PLYPD3) =    -0.1452048138D+00 E(B2PLYPD3) =    -0.11566158042681D+03

 The electronic state is 1-A.
 Alpha  occ. eigenvalues --  -19.70658 -10.66853  -1.19590  -0.80025  -0.59764
 Alpha  occ. eigenvalues --   -0.51394  -0.50283  -0.41794  -0.35686
 Alpha virt. eigenvalues --    0.05401   0.08856   0.11843   0.12372   0.14477
 Alpha virt. eigenvalues --    0.16823   0.17880   0.28958   0.31941   0.33172
 Alpha virt. eigenvalues --    0.37057   0.39289   0.39729   0.40804   0.43479

 Mulliken charges:
               1
     1  C    0.062966
     2  O   -0.368740
     3  H    0.050570
     4  H    0.051457
     5  H    0.083797
     6  H    0.119949
 Sum of Mulliken charges =   0.00000

 Dipole moment (field-independent basis, Debye):
    X=              1.0319    Y=             -1.3037    Z=              0.0779  Tot=              1.6645
 Quadrupole moment (field-independent basis, Debye-Ang):
   XX=            -13.3427   YY=            -12.2696   ZZ=            -13.5294
   XY=              2.0314   XZ=             -0.1869   YZ=             -0.0487

 Normal termination of Gaussian 09 at Wed Aug 26 10:56:17 2020.
