 Gaussian 09, Revision D.01,
 Gaussian 09:  ES64L-G09RevD.01 24-Apr-2013

 --------------------
 #p B2PLYPD3/Def2QZVP
 --------------------

 --------
 methanol
 --------
 Symbolic Z-matrix:
 Charge =  0 Multiplicity = 1

                         Standard orientation:
 ---------------------------------------------------------------------
 Center     Atomic      Atomic             Coordinates (Angstroms)
 Number     Number       Type             X           Y           Z
 ---------------------------------------------------------------------
      1          6           0        0.679217   -0.025370    0.009313
      2          8           0       -0.751604    0.115169   -0.008831
      3          1           0        1.021368   -0.622899   -0.867435
      4          1           0        1.036238   -0.447035    0.912372
      5          1           0        1.049522    1.012626   -0.083725
      6          1           0       -1.169598   -0.711828    0.053561
 ---------------------------------------------------------------------

 SCF Done:  E(RB2PLYPD3) =  -115.550669127     A.U. after   10 cycles
 E2(B2PLYPD3) =    -0.1469092110D+00 E(B2PLYPD3) =    -0.11569757833777D+03

 The electronic state is 1-A.
 Alpha  occ. eigenvalues --  -19.72006 -10.65899  -1.16025  -0.79043  -0.58864
 Alpha  occ. eigenvalues --   -0.51892  -0.49276  -0.40941  -0.35549
 Alpha virt. eigenvalues --    0.05157   0.08320   0.12257   0.12351   0.14808
 Alpha virt. eigenvalues --    0.16971   0.18109   0.29094   0.32786   0.33502
 Alpha virt. eigenvalues --    0.36383   0.38388   0.39502   0.41260   0.43515

 Mulliken charges:
               1
     1  C    0.069876
     2  O   -0.458583
     3  H    0.049405
     4  H    0.057431
     5  H    0.071998
     6  H    0.209873
 Sum of Mulliken charges =   0.00000

 Dipole moment (field-independent basis, Debye):
    X=              0.8984    Y=             -1.4726    Z=              0.1562  Tot=              1.7321
 Quadrupole moment (field-independent basis, Debye-Ang):
   XX=            -12.9228   YY=            -12.2954   ZZ=            -13.7000
   XY=              2.1971   XZ=             -0.0870   YZ=             -0.1108

 Normal termination of Gaussian 09 at Thu Aug 27 00:07:14 2020.
