 Gaussian 09, Revision D.01,
 Gaussian 09:  ES64L-G09RevD.01 24-Apr-2013

 --------------------
 #p B2PLYPD3/Def2QZVP
 --------------------

 --------
 methanol
 --------
 Symbolic Z-matrix:
 Charge =  0 Multiplicity = 1

                         Standard orientation:
 ---------------------------------------------------------------------
 Center     Atomic      Atomic             Coordinates (Angstroms)
 Number     Number       Type             X           Y           Z
 ---------------------------------------------------------------------
      1          6           0       -0.672266   -0.020348    0.011786
      2          8           0        0.754874    0.106799   -0.016211
      3          1           0       -0.988002   -0.428470    0.956816
      4          1           0       -1.063705   -0.629488   -0.876872
      5          1           0       -1.060692    1.005885   -0.083620
      6          1           0        1.107006   -0.680227    0.062643
 ---------------------------------------------------------------------

 SCF Done:  E(RB2PLYPD3) =  -115.541724578     A.U. after   10 cycles
 E2(B2PLYPD3) =    -0.1460128021D+00 E(B2PLYPD3) =    -0.11568773737974D+03

 The electronic state is 1-A.
 Alpha  occ. eigenvalues --  -19.71582 -10.66437  -1.18045  -0.79289  -0.59515
 Alpha  occ. eigenvalues --   -0.51884  -0.49712  -0.41260  -0.35743
 Alpha virt. eigenvalues --    0.05319   0.08587   0.12082   0.12340   0.14608
 Alpha virt. eigenvalues --    0.17122   0.18101   0.28967   0.32683   0.33270
 Alpha virt. eigenvalues --    0.37125   0.38635   0.39749   0.40745   0.43652

 Mulliken charges:
               1
     1  C    0.065427
     2  O   -0.417290
     3  H    0.056755
     4  H    0.047152
     5  H    0.072730
     6  H    0.175226
 Sum of Mulliken charges =   0.00000

 Dipole moment (field-independent basis, Debye):
    X=             -0.9566    Y=             -1.3925    Z=              0.2044  Tot=              1.7017
 Quadrupole moment (field-independent basis, Debye-Ang):
   XX=            -13.1583   YY=            -12.3649   ZZ=            -13.6003
   XY=             -2.1292   XZ=              0.1970   YZ=             -0.1351

 Normal termination of Gaussian 09 at Wed Aug 26 23:07:30 2020.
