 Gaussian 09, Revision D.01,
 Gaussian 09:  ES64L-G09RevD.01 24-Apr-2013

 --------------------
 #p B2PLYPD3/Def2QZVP
 --------------------

 --------
 methanol
 --------
 Symbolic Z-matrix:
 Charge =  0 Multiplicity = 1

                         Standard orientation:
 ---------------------------------------------------------------------
 Center     Atomic      Atomic             Coordinates (Angstroms)
 Number     Number       Type             X           Y           Z
 ---------------------------------------------------------------------
      1          6           0        0.660666   -0.020109    0.011484
      2          8           0       -0.747546    0.132156   -0.015667
      3          1           0        1.064329   -0.624208   -0.835823
      4          1           0        0.987582   -0.462023    0.883793
      5          1           0        1.108573    0.959701   -0.050056
      6          1           0       -1.144108   -0.810064    0.058522
 ---------------------------------------------------------------------

 SCF Done:  E(RB2PLYPD3) =  -115.545228705     A.U. after   10 cycles
 E2(B2PLYPD3) =    -0.1482941820D+00 E(B2PLYPD3) =    -0.11569352288742D+03

 The electronic state is 1-A.
 Alpha  occ. eigenvalues --  -19.73198 -10.64953  -1.15147  -0.78618  -0.58099
 Alpha  occ. eigenvalues --   -0.51786  -0.49825  -0.41082  -0.35267
 Alpha virt. eigenvalues --    0.04490   0.07996   0.12459   0.12571   0.14936
 Alpha virt. eigenvalues --    0.17497   0.18144   0.29157   0.32337   0.33358
 Alpha virt. eigenvalues --    0.34126   0.38892   0.39722   0.41224   0.44476

 Mulliken charges:
               1
     1  C    0.075488
     2  O   -0.472736
     3  H    0.039628
     4  H    0.049419
     5  H    0.067282
     6  H    0.240918
 Sum of Mulliken charges =   0.00000

 Dipole moment (field-independent basis, Debye):
    X=              0.8821    Y=             -1.5636    Z=              0.2044  Tot=              1.8068
 Quadrupole moment (field-independent basis, Debye-Ang):
   XX=            -13.0040   YY=            -12.1177   ZZ=            -13.8670
   XY=              2.3207   XZ=             -0.1336   YZ=             -0.1402

 Normal termination of Gaussian 09 at Wed Aug 26 22:29:53 2020.
