 Gaussian 09, Revision D.01,
 Gaussian 09:  ES64L-G09RevD.01 24-Apr-2013

 --------------------
 #p B2PLYPD3/Def2QZVP
 --------------------

 --------
 methanol
 --------
 Symbolic Z-matrix:
 Charge =  0 Multiplicity = 1

                         Standard orientation:
 ---------------------------------------------------------------------
 Center     Atomic      Atomic             Coordinates (Angstroms)
 Number     Number       Type             X           Y           Z
 ---------------------------------------------------------------------
      1          6           0       -0.669325    0.008848   -0.002172
      2          8           0        0.742012   -0.138856   -0.007425
      3          1           0       -1.054981    0.552417   -0.849029
      4          1           0       -1.012318    0.523944    0.864231
      5          1           0       -1.013478   -0.917422    0.023874
      6          1           0        1.160630    0.898819    0.033354
 ---------------------------------------------------------------------

 SCF Done:  E(RB2PLYPD3) =  -115.524604379     A.U. after   11 cycles
 E2(B2PLYPD3) =    -0.1498960268D+00 E(B2PLYPD3) =    -0.11567450040547D+03

 The electronic state is 1-A.
 Alpha  occ. eigenvalues --  -19.73649 -10.63773  -1.13667  -0.78873  -0.57261
 Alpha  occ. eigenvalues --   -0.51550  -0.49907  -0.41308  -0.34921
 Alpha virt. eigenvalues --    0.03524   0.07902   0.12593   0.12694   0.15027
 Alpha virt. eigenvalues --    0.17147   0.18173   0.28620   0.30027   0.33393
 Alpha virt. eigenvalues --    0.34201   0.38684   0.40665   0.41281   0.43902

 Mulliken charges:
               1
     1  C    0.078998
     2  O   -0.488171
     3  H    0.043750
     4  H    0.040901
     5  H    0.074398
     6  H    0.250124
 Sum of Mulliken charges =   0.00000

 Dipole moment (field-independent basis, Debye):
    X=             -0.9208    Y=              1.5892    Z=              0.0878  Tot=              1.8388
 Quadrupole moment (field-independent basis, Debye-Ang):
   XX=            -13.0802   YY=            -11.8081   ZZ=            -13.9033
   XY=              2.3638   XZ=              0.0877   YZ=              0.0237

 Normal termination of Gaussian 09 at Wed Aug 26 14:52:34 2020.
