 Gaussian 09, Revision D.01,
 Gaussian 09:  ES64L-G09RevD.01 24-Apr-2013

 --------------------
 #p B2PLYPD3/Def2QZVP
 --------------------

 --------
 methanol
 --------
 Symbolic Z-matrix:
 Charge =  0 Multiplicity = 1

                         Standard orientation:
 ---------------------------------------------------------------------
 Center     Atomic      Atomic             Coordinates (Angstroms)
 Number     Number       Type             X           Y           Z
 ---------------------------------------------------------------------
      1          6           0       -0.665030    0.013933   -0.005086
      2          8           0        0.746383   -0.134961    0.000722
      3          1           0       -1.087763    0.518784   -0.836908
      4          1           0       -1.015927    0.570018    0.856932
      5          1           0       -1.047542   -0.952871    0.031516
      6          1           0        1.170352    0.860164   -0.026804
 ---------------------------------------------------------------------

 SCF Done:  E(RB2PLYPD3) =  -115.536754368     A.U. after   11 cycles
 E2(B2PLYPD3) =    -0.1493393895D+00 E(B2PLYPD3) =    -0.11568609375723D+03

 The electronic state is 1-A.
 Alpha  occ. eigenvalues --  -19.73593 -10.64459  -1.14147  -0.78621  -0.57623
 Alpha  occ. eigenvalues --   -0.51307  -0.49726  -0.41282  -0.35041
 Alpha virt. eigenvalues --    0.03956   0.07858   0.12501   0.12686   0.15115
 Alpha virt. eigenvalues --    0.17226   0.18198   0.29038   0.30835   0.33317
 Alpha virt. eigenvalues --    0.34308   0.38894   0.39654   0.41273   0.44027

 Mulliken charges:
               1
     1  C    0.076166
     2  O   -0.481746
     3  H    0.044977
     4  H    0.041082
     5  H    0.071082
     6  H    0.248440
 Sum of Mulliken charges =   0.00000

 Dipole moment (field-independent basis, Debye):
    X=             -0.8769    Y=              1.5929    Z=             -0.0607  Tot=              1.8194
 Quadrupole moment (field-independent basis, Debye-Ang):
   XX=            -12.9471   YY=            -11.9349   ZZ=            -13.9832
   XY=              2.3311   XZ=              0.0194   YZ=             -0.0633

 Normal termination of Gaussian 09 at Wed Aug 26 15:26:11 2020.
