 Gaussian 09, Revision D.01,
 Gaussian 09:  ES64L-G09RevD.01 24-Apr-2013

 --------------------
 #p B2PLYPD3/Def2QZVP
 --------------------

 --------
 methanol
 --------
 Symbolic Z-matrix:
 Charge =  0 Multiplicity = 1

                         Standard orientation:
 ---------------------------------------------------------------------
 Center     Atomic      Atomic             Coordinates (Angstroms)
 Number     Number       Type             X           Y           Z
 ---------------------------------------------------------------------
      1          6           0       -0.684322   -0.021679    0.019005
      2          8           0        0.766549    0.074957   -0.023280
      3          1           0       -0.979405   -0.371484    0.986215
      4          1           0       -1.091351   -0.726532   -0.844002
      5          1           0       -1.027610    1.133135   -0.162246
      6          1           0        1.071904   -0.504704    0.092240
 ---------------------------------------------------------------------

 SCF Done:  E(RB2PLYPD3) =  -115.361392146     A.U. after   11 cycles
 E2(B2PLYPD3) =    -0.1440488948D+00 E(B2PLYPD3) =    -0.11550544104057D+03

 The electronic state is 1-A.
 Alpha  occ. eigenvalues --  -19.69124 -10.68657  -1.24936  -0.81224  -0.61705
 Alpha  occ. eigenvalues --   -0.51725  -0.48694  -0.41297  -0.36545
 Alpha virt. eigenvalues --    0.05232   0.09201   0.11348   0.11869   0.14580
 Alpha virt. eigenvalues --    0.16662   0.17677   0.28677   0.30976   0.33063
 Alpha virt. eigenvalues --    0.35281   0.37066   0.40745   0.41040   0.42171

 Mulliken charges:
               1
     1  C    0.052933
     2  O   -0.236420
     3  H    0.068959
     4  H    0.053297
     5  H    0.075341
     6  H   -0.014111
 Sum of Mulliken charges =   0.00000

 Dipole moment (field-independent basis, Debye):
    X=             -1.0833    Y=             -1.2359    Z=              0.3492  Tot=              1.6802
 Quadrupole moment (field-independent basis, Debye-Ang):
   XX=            -13.2713   YY=            -12.4124   ZZ=            -13.4322
   XY=             -1.7122   XZ=              0.3121   YZ=             -0.1998

 Normal termination of Gaussian 09 at Wed Aug 26 12:29:15 2020.
