 Gaussian 09, Revision D.01,
 Gaussian 09:  ES64L-G09RevD.01 24-Apr-2013

 --------------------
 #p B2PLYPD3/Def2QZVP
 --------------------

 --------
 methanol
 --------
 Symbolic Z-matrix:
 Charge =  0 Multiplicity = 1

                         Standard orientation:
 ---------------------------------------------------------------------
 Center     Atomic      Atomic             Coordinates (Angstroms)
 Number     Number       Type             X           Y           Z
 ---------------------------------------------------------------------
      1          6           0        0.678981    0.011262   -0.027502
      2          8           0       -0.730123   -0.159237    0.031954
      3          1           0        1.153245    0.588710    0.829406
      4          1           0        0.915212    0.571879   -0.757641
      5          1           0        1.025002   -0.900596   -0.076469
      6          1           0       -1.326365    0.946334   -0.085916
 ---------------------------------------------------------------------

 SCF Done:  E(RB2PLYPD3) =  -115.471640448     A.U. after   11 cycles
 E2(B2PLYPD3) =    -0.1525983580D+00 E(B2PLYPD3) =    -0.11562423880570D+03

 The electronic state is 1-A.
 Alpha  occ. eigenvalues --  -19.74243 -10.62987  -1.12157  -0.79298  -0.57471
 Alpha  occ. eigenvalues --   -0.50481  -0.49659  -0.40443  -0.34320
 Alpha virt. eigenvalues --    0.01343   0.07479   0.12510   0.13039   0.15075
 Alpha virt. eigenvalues --    0.17124   0.17984   0.24990   0.29586   0.32589
 Alpha virt. eigenvalues --    0.34428   0.38684   0.39294   0.40659   0.45910

 Mulliken charges:
               1
     1  C    0.086372
     2  O   -0.501003
     3  H    0.033779
     4  H    0.048745
     5  H    0.079581
     6  H    0.252525
 Sum of Mulliken charges =   0.00000

 Dipole moment (field-independent basis, Debye):
    X=              0.7552    Y=              1.6400    Z=             -0.3741  Tot=              1.8439
 Quadrupole moment (field-independent basis, Debye-Ang):
   XX=            -12.4707   YY=            -11.7067   ZZ=            -14.1723
   XY=             -2.5984   XZ=              0.1670   YZ=             -0.2281

 Normal termination of Gaussian 09 at Wed Aug 26 22:52:33 2020.
