 Gaussian 09, Revision D.01,
 Gaussian 09:  ES64L-G09RevD.01 24-Apr-2013

 --------------------
 #p B2PLYPD3/Def2QZVP
 --------------------

 --------
 methanol
 --------
 Symbolic Z-matrix:
 Charge =  0 Multiplicity = 1

                         Standard orientation:
 ---------------------------------------------------------------------
 Center     Atomic      Atomic             Coordinates (Angstroms)
 Number     Number       Type             X           Y           Z
 ---------------------------------------------------------------------
      1          6           0        0.658945    0.024097    0.005855
      2          8           0       -0.739433   -0.147985   -0.006793
      3          1           0        0.994779    0.485613    0.881765
      4          1           0        1.053811    0.581957   -0.834287
      5          1           0        1.116948   -0.905358   -0.041078
      6          1           0       -1.203744    0.877083    0.012819
 ---------------------------------------------------------------------

 SCF Done:  E(RB2PLYPD3) =  -115.528048737     A.U. after   11 cycles
 E2(B2PLYPD3) =    -0.1498457608D+00 E(B2PLYPD3) =    -0.11567789449755D+03

 The electronic state is 1-A.
 Alpha  occ. eigenvalues --  -19.73812 -10.64082  -1.13878  -0.78572  -0.56703
 Alpha  occ. eigenvalues --   -0.51995  -0.50114  -0.40449  -0.35060
 Alpha virt. eigenvalues --    0.03434   0.07730   0.12626   0.12798   0.14887
 Alpha virt. eigenvalues --    0.17560   0.18337   0.28363   0.29758   0.33400
 Alpha virt. eigenvalues --    0.34488   0.39164   0.40350   0.41765   0.43583

 Mulliken charges:
               1
     1  C    0.078445
     2  O   -0.486950
     3  H    0.046557
     4  H    0.040660
     5  H    0.066044
     6  H    0.255244
 Sum of Mulliken charges =   0.00000

 Dipole moment (field-independent basis, Debye):
    X=              0.8202    Y=              1.6111    Z=              0.0622  Tot=              1.8090
 Quadrupole moment (field-independent basis, Debye-Ang):
   XX=            -12.7747   YY=            -12.0779   ZZ=            -13.9038
   XY=             -2.5124   XZ=             -0.0617   YZ=              0.0503

 Normal termination of Gaussian 09 at Thu Aug 27 00:14:58 2020.
