 Gaussian 09, Revision D.01,
 Gaussian 09:  ES64L-G09RevD.01 24-Apr-2013

 --------------------
 #p B2PLYPD3/Def2QZVP
 --------------------

 --------
 methanol
 --------
 Symbolic Z-matrix:
 Charge =  0 Multiplicity = 1

                         Standard orientation:
 ---------------------------------------------------------------------
 Center     Atomic      Atomic             Coordinates (Angstroms)
 Number     Number       Type             X           Y           Z
 ---------------------------------------------------------------------
      1          6           0       -0.669546    0.024731    0.000135
      2          8           0        0.726489   -0.179064   -0.026121
      3          1           0       -1.132922    0.565896   -0.731704
      4          1           0       -0.878069    0.453230    0.788328
      5          1           0       -0.963108   -0.871188    0.076139
      6          1           0        1.179467    1.136184    0.075399
 ---------------------------------------------------------------------

 SCF Done:  E(RB2PLYPD3) =  -115.418628713     A.U. after   12 cycles
 E2(B2PLYPD3) =    -0.1554261121D+00 E(B2PLYPD3) =    -0.11557405482472D+03

 The electronic state is 1-A.
 Alpha  occ. eigenvalues --  -19.75133 -10.60747  -1.12396  -0.80532  -0.57054
 Alpha  occ. eigenvalues --   -0.53420  -0.48445  -0.39784  -0.35144
 Alpha virt. eigenvalues --   -0.01096   0.07657   0.12501   0.13065   0.14990
 Alpha virt. eigenvalues --    0.16885   0.18394   0.22478   0.29607   0.32909
 Alpha virt. eigenvalues --    0.35111   0.38980   0.39902   0.42692   0.45655

 Mulliken charges:
               1
     1  C    0.084196
     2  O   -0.474368
     3  H    0.041974
     4  H    0.051638
     5  H    0.070836
     6  H    0.225724
 Sum of Mulliken charges =   0.00000

 Dipole moment (field-independent basis, Debye):
    X=             -1.1367    Y=              1.7095    Z=              0.2565  Tot=              2.0688
 Quadrupole moment (field-independent basis, Debye-Ang):
   XX=            -13.2661   YY=            -11.2053   ZZ=            -13.9240
   XY=              2.2109   XZ=              0.1968   YZ=              0.0776

 Normal termination of Gaussian 09 at Wed Aug 26 19:49:04 2020.
