 Gaussian 09, Revision D.01,
 Gaussian 09:  ES64L-G09RevD.01 24-Apr-2013

 --------------------
 #p B2PLYPD3/Def2QZVP
 --------------------

 --------
 methanol
 --------
 Symbolic Z-matrix:
 Charge =  0 Multiplicity = 1

                         Standard orientation:
 ---------------------------------------------------------------------
 Center     Atomic      Atomic             Coordinates (Angstroms)
 Number     Number       Type             X           Y           Z
 ---------------------------------------------------------------------
      1          6           0       -0.643097   -0.008438    0.010966
      2          8           0        0.728849   -0.055860   -0.040781
      3          1           0       -0.877987    1.227917   -0.268646
      4          1           0       -1.092153   -0.319772    1.021373
      5          1           0       -1.050380   -0.692090   -0.798489
      6          1           0        1.048315    0.281453    0.306217
 ---------------------------------------------------------------------

 SCF Done:  E(RB2PLYPD3) =  -115.141379439     A.U. after   11 cycles
 E2(B2PLYPD3) =    -0.1427956744D+00 E(B2PLYPD3) =    -0.11528417511376D+03

 The electronic state is 1-A.
 Alpha  occ. eigenvalues --  -19.68791 -10.69434  -1.30883  -0.84724  -0.62598
 Alpha  occ. eigenvalues --   -0.52270  -0.51744  -0.40470  -0.35396
 Alpha virt. eigenvalues --    0.05090   0.09629   0.11173   0.12082   0.14180
 Alpha virt. eigenvalues --    0.16793   0.17584   0.27996   0.31031   0.33911
 Alpha virt. eigenvalues --    0.35745   0.38048   0.38833   0.41590   0.42981

 Mulliken charges:
               1
     1  C    0.041824
     2  O   -0.108077
     3  H    0.021467
     4  H    0.053693
     5  H    0.090194
     6  H   -0.099102
 Sum of Mulliken charges =   0.00000

 Dipole moment (field-independent basis, Debye):
    X=             -0.7426    Y=              0.5399    Z=              0.7919  Tot=              1.2124
 Quadrupole moment (field-independent basis, Debye-Ang):
   XX=            -13.2504   YY=            -13.1480   ZZ=            -12.9893
   XY=              1.6510   XZ=              1.1074   YZ=              0.4071

 Normal termination of Gaussian 09 at Wed Aug 26 23:11:40 2020.
