 Gaussian 09, Revision D.01,
 Gaussian 09:  ES64L-G09RevD.01 24-Apr-2013

 --------------------
 #p B2PLYPD3/Def2QZVP
 --------------------

 --------
 methanol
 --------
 Symbolic Z-matrix:
 Charge =  0 Multiplicity = 1

                         Standard orientation:
 ---------------------------------------------------------------------
 Center     Atomic      Atomic             Coordinates (Angstroms)
 Number     Number       Type             X           Y           Z
 ---------------------------------------------------------------------
      1          6           0       -0.668654   -0.031738   -0.007469
      2          8           0        0.744671    0.138857   -0.005190
      3          1           0       -0.992333   -0.472970    0.906064
      4          1           0       -0.985477   -0.592591   -0.832207
      5          1           0       -1.128425    0.950700   -0.028597
      6          1           0        1.160790   -0.805561    0.041074
 ---------------------------------------------------------------------

 SCF Done:  E(RB2PLYPD3) =  -115.545264484     A.U. after   10 cycles
 E2(B2PLYPD3) =    -0.1483256276D+00 E(B2PLYPD3) =    -0.11569359011200D+03

 The electronic state is 1-A.
 Alpha  occ. eigenvalues --  -19.72949 -10.64654  -1.14621  -0.78688  -0.57523
 Alpha  occ. eigenvalues --   -0.52697  -0.49546  -0.40715  -0.35317
 Alpha virt. eigenvalues --    0.04482   0.08035   0.12429   0.12618   0.14705
 Alpha virt. eigenvalues --    0.17484   0.18159   0.29155   0.32182   0.33381
 Alpha virt. eigenvalues --    0.33724   0.39145   0.40103   0.42058   0.44103

 Mulliken charges:
               1
     1  C    0.078831
     2  O   -0.482993
     3  H    0.047539
     4  H    0.050390
     5  H    0.065173
     6  H    0.241061
 Sum of Mulliken charges =   0.00000

 Dipole moment (field-independent basis, Debye):
    X=             -0.9087    Y=             -1.5933    Z=              0.0714  Tot=              1.8356
 Quadrupole moment (field-independent basis, Debye-Ang):
   XX=            -12.9681   YY=            -12.1583   ZZ=            -13.7458
   XY=             -2.3744   XZ=              0.1109   YZ=              0.0045

 Normal termination of Gaussian 09 at Thu Aug 27 00:07:50 2020.
