 Gaussian 09, Revision D.01,
 Gaussian 09:  ES64L-G09RevD.01 24-Apr-2013

 --------------------
 #p B2PLYPD3/Def2QZVP
 --------------------

 --------
 methanol
 --------
 Symbolic Z-matrix:
 Charge =  0 Multiplicity = 1

                         Standard orientation:
 ---------------------------------------------------------------------
 Center     Atomic      Atomic             Coordinates (Angstroms)
 Number     Number       Type             X           Y           Z
 ---------------------------------------------------------------------
      1          6           0        0.662471   -0.024771    0.003980
      2          8           0       -0.742662    0.106001   -0.005689
      3          1           0        0.962569   -0.664464   -0.878805
      4          1           0        1.040783   -0.431609    0.961391
      5          1           0        1.093782    1.018488   -0.122831
      6          1           0       -1.130660   -0.621799    0.061872
 ---------------------------------------------------------------------

 SCF Done:  E(RB2PLYPD3) =  -115.529266034     A.U. after   10 cycles
 E2(B2PLYPD3) =    -0.1451925200D+00 E(B2PLYPD3) =    -0.11567445855445D+03

 The electronic state is 1-A.
 Alpha  occ. eigenvalues --  -19.71084 -10.66921  -1.19597  -0.79612  -0.60345
 Alpha  occ. eigenvalues --   -0.52102  -0.50042  -0.40554  -0.35640
 Alpha virt. eigenvalues --    0.05373   0.08780   0.12101   0.12256   0.14570
 Alpha virt. eigenvalues --    0.17141   0.17949   0.28948   0.32918   0.33612
 Alpha virt. eigenvalues --    0.37212   0.38769   0.39858   0.40465   0.43147

 Mulliken charges:
               1
     1  C    0.062513
     2  O   -0.381207
     3  H    0.047670
     4  H    0.053028
     5  H    0.071337
     6  H    0.146659
 Sum of Mulliken charges =   0.00000

 Dipole moment (field-independent basis, Debye):
    X=              0.8217    Y=             -1.3602    Z=              0.1446  Tot=              1.5957
 Quadrupole moment (field-independent basis, Debye-Ang):
   XX=            -13.0247   YY=            -12.5041   ZZ=            -13.6086
   XY=              2.1478   XZ=             -0.0992   YZ=             -0.0935

 Normal termination of Gaussian 09 at Thu Aug 27 00:02:02 2020.
