 Gaussian 09, Revision D.01,
 Gaussian 09:  ES64L-G09RevD.01 24-Apr-2013

 --------------------
 #p B2PLYPD3/Def2QZVP
 --------------------

 --------
 methanol
 --------
 Symbolic Z-matrix:
 Charge =  0 Multiplicity = 1

                         Standard orientation:
 ---------------------------------------------------------------------
 Center     Atomic      Atomic             Coordinates (Angstroms)
 Number     Number       Type             X           Y           Z
 ---------------------------------------------------------------------
      1          6           0        0.657683    0.022829    0.007294
      2          8           0       -0.742807   -0.145625   -0.014908
      3          1           0        1.008064    0.400111    0.888203
      4          1           0        1.048241    0.641008   -0.801650
      5          1           0        1.089273   -0.913907   -0.082698
      6          1           0       -1.149218    0.900812    0.071645
 ---------------------------------------------------------------------

 SCF Done:  E(RB2PLYPD3) =  -115.525503892     A.U. after   11 cycles
 E2(B2PLYPD3) =    -0.1499761085D+00 E(B2PLYPD3) =    -0.11567548000014D+03

 The electronic state is 1-A.
 Alpha  occ. eigenvalues --  -19.73926 -10.63846  -1.13993  -0.78760  -0.56861
 Alpha  occ. eigenvalues --   -0.52161  -0.49848  -0.40829  -0.35200
 Alpha virt. eigenvalues --    0.03420   0.07810   0.12551   0.12772   0.14939
 Alpha virt. eigenvalues --    0.17502   0.18380   0.28285   0.29757   0.33495
 Alpha virt. eigenvalues --    0.34508   0.38930   0.40231   0.41873   0.44009

 Mulliken charges:
               1
     1  C    0.080646
     2  O   -0.482821
     3  H    0.046817
     4  H    0.039188
     5  H    0.063700
     6  H    0.252470
 Sum of Mulliken charges =   0.00000

 Dipole moment (field-independent basis, Debye):
    X=              0.9119    Y=              1.6156    Z=              0.1971  Tot=              1.8656
 Quadrupole moment (field-independent basis, Debye-Ang):
   XX=            -13.0434   YY=            -11.9434   ZZ=            -13.8706
   XY=             -2.3883   XZ=             -0.1409   YZ=              0.1239

 Normal termination of Gaussian 09 at Wed Aug 26 09:52:18 2020.
