 Gaussian 09, Revision D.01,
 Gaussian 09:  ES64L-G09RevD.01 24-Apr-2013

 --------------------
 #p B2PLYPD3/Def2QZVP
 --------------------

 --------
 methanol
 --------
 Symbolic Z-matrix:
 Charge =  0 Multiplicity = 1

                         Standard orientation:
 ---------------------------------------------------------------------
 Center     Atomic      Atomic             Coordinates (Angstroms)
 Number     Number       Type             X           Y           Z
 ---------------------------------------------------------------------
      1          6           0        0.670359    0.024867    0.014186
      2          8           0       -0.752580   -0.140164   -0.009128
      3          1           0        1.014150    0.471697    0.870930
      4          1           0        1.052443    0.561074   -0.869357
      5          1           0        1.091938   -0.925025   -0.042706
      6          1           0       -1.160042    0.864362    0.029042
 ---------------------------------------------------------------------

 SCF Done:  E(RB2PLYPD3) =  -115.534382010     A.U. after   11 cycles
 E2(B2PLYPD3) =    -0.1495211439D+00 E(B2PLYPD3) =    -0.11568390315359D+03

 The electronic state is 1-A.
 Alpha  occ. eigenvalues --  -19.73585 -10.64349  -1.13690  -0.78887  -0.56861
 Alpha  occ. eigenvalues --   -0.52062  -0.49542  -0.40983  -0.35362
 Alpha virt. eigenvalues --    0.03992   0.07820   0.12475   0.12685   0.14772
 Alpha virt. eigenvalues --    0.17423   0.18405   0.28853   0.30626   0.33471
 Alpha virt. eigenvalues --    0.33619   0.38762   0.40281   0.41668   0.44006

 Mulliken charges:
               1
     1  C    0.078142
     2  O   -0.488353
     3  H    0.051862
     4  H    0.043408
     5  H    0.066335
     6  H    0.248607
 Sum of Mulliken charges =   0.00000

 Dipole moment (field-independent basis, Debye):
    X=              0.9593    Y=              1.5860    Z=              0.1205  Tot=              1.8575
 Quadrupole moment (field-independent basis, Debye-Ang):
   XX=            -12.9757   YY=            -12.0693   ZZ=            -13.7998
   XY=             -2.3967   XZ=             -0.0438   YZ=              0.1114

 Normal termination of Gaussian 09 at Wed Aug 26 10:18:27 2020.
