 Gaussian 09, Revision D.01,
 Gaussian 09:  ES64L-G09RevD.01 24-Apr-2013

 --------------------
 #p B2PLYPD3/Def2QZVP
 --------------------

 --------
 methanol
 --------
 Symbolic Z-matrix:
 Charge =  0 Multiplicity = 1

                         Standard orientation:
 ---------------------------------------------------------------------
 Center     Atomic      Atomic             Coordinates (Angstroms)
 Number     Number       Type             X           Y           Z
 ---------------------------------------------------------------------
      1          6           0       -0.661602    0.021277   -0.005158
      2          8           0        0.741362   -0.147821   -0.006581
      3          1           0       -1.063519    0.556248   -0.818283
      4          1           0       -1.033541    0.535749    0.832604
      5          1           0       -1.086394   -0.932097    0.032850
      6          1           0        1.222169    0.895005    0.036421
 ---------------------------------------------------------------------

 SCF Done:  E(RB2PLYPD3) =  -115.522183371     A.U. after   11 cycles
 E2(B2PLYPD3) =    -0.1503911126D+00 E(B2PLYPD3) =    -0.11567257448358D+03

 The electronic state is 1-A.
 Alpha  occ. eigenvalues --  -19.74024 -10.63916  -1.13469  -0.78701  -0.56907
 Alpha  occ. eigenvalues --   -0.51497  -0.49726  -0.40714  -0.34985
 Alpha virt. eigenvalues --    0.03121   0.07655   0.12571   0.12881   0.15136
 Alpha virt. eigenvalues --    0.17355   0.18277   0.27834   0.29716   0.33603
 Alpha virt. eigenvalues --    0.34469   0.39095   0.39491   0.41755   0.44103

 Mulliken charges:
               1
     1  C    0.082189
     2  O   -0.488829
     3  H    0.044266
     4  H    0.040202
     5  H    0.067283
     6  H    0.254890
 Sum of Mulliken charges =   0.00000

 Dipole moment (field-independent basis, Debye):
    X=             -0.8236    Y=              1.6507    Z=              0.0861  Tot=              1.8467
 Quadrupole moment (field-independent basis, Debye-Ang):
   XX=            -12.7047   YY=            -11.9310   ZZ=            -14.0433
   XY=              2.4401   XZ=              0.0871   YZ=              0.0127

 Normal termination of Gaussian 09 at Wed Aug 26 15:38:26 2020.
