 Gaussian 09, Revision D.01,
 Gaussian 09:  ES64L-G09RevD.01 24-Apr-2013

 --------------------
 #p B2PLYPD3/Def2QZVP
 --------------------

 --------
 methanol
 --------
 Symbolic Z-matrix:
 Charge =  0 Multiplicity = 1

                         Standard orientation:
 ---------------------------------------------------------------------
 Center     Atomic      Atomic             Coordinates (Angstroms)
 Number     Number       Type             X           Y           Z
 ---------------------------------------------------------------------
      1          6           0        0.643393    0.031242    0.006267
      2          8           0       -0.729388   -0.163981   -0.014570
      3          1           0        0.977834    0.383931    0.906050
      4          1           0        1.041269    0.641930   -0.782717
      5          1           0        1.163649   -0.844244   -0.098566
      6          1           0       -1.208008    0.942779    0.054188
 ---------------------------------------------------------------------

 SCF Done:  E(RB2PLYPD3) =  -115.504343788     A.U. after   11 cycles
 E2(B2PLYPD3) =    -0.1511062561D+00 E(B2PLYPD3) =    -0.11565545004432D+03

 The electronic state is 1-A.
 Alpha  occ. eigenvalues --  -19.74407 -10.63264  -1.13976  -0.78701  -0.55769
 Alpha  occ. eigenvalues --   -0.52685  -0.50596  -0.39628  -0.35043
 Alpha virt. eigenvalues --    0.02101   0.07601   0.12631   0.13089   0.14770
 Alpha virt. eigenvalues --    0.17956   0.18568   0.25887   0.29407   0.33385
 Alpha virt. eigenvalues --    0.35274   0.39395   0.40980   0.42465   0.43042

 Mulliken charges:
               1
     1  C    0.080762
     2  O   -0.481159
     3  H    0.045641
     4  H    0.037494
     5  H    0.057387
     6  H    0.259875
 Sum of Mulliken charges =   0.00000

 Dipole moment (field-independent basis, Debye):
    X=              0.7889    Y=              1.6508    Z=              0.1427  Tot=              1.8352
 Quadrupole moment (field-independent basis, Debye-Ang):
   XX=            -12.7491   YY=            -12.0613   ZZ=            -13.8878
   XY=             -2.6143   XZ=             -0.1696   YZ=              0.0797

 Normal termination of Gaussian 09 at Wed Aug 26 13:10:39 2020.
