 Gaussian 09, Revision D.01,
 Gaussian 09:  ES64L-G09RevD.01 24-Apr-2013

 --------------------
 #p B2PLYPD3/Def2QZVP
 --------------------

 --------
 methanol
 --------
 Symbolic Z-matrix:
 Charge =  0 Multiplicity = 1

                         Standard orientation:
 ---------------------------------------------------------------------
 Center     Atomic      Atomic             Coordinates (Angstroms)
 Number     Number       Type             X           Y           Z
 ---------------------------------------------------------------------
      1          6           0        0.672135   -0.012573    0.004602
      2          8           0       -0.754188    0.096327   -0.012241
      3          1           0        1.054374   -0.677692   -0.847305
      4          1           0        0.998433   -0.439701    0.966604
      5          1           0        1.046806    1.048332   -0.101575
      6          1           0       -1.098918   -0.626114    0.052595
 ---------------------------------------------------------------------

 SCF Done:  E(RB2PLYPD3) =  -115.517764087     A.U. after   10 cycles
 E2(B2PLYPD3) =    -0.1451291632D+00 E(B2PLYPD3) =    -0.11566289325029D+03

 The electronic state is 1-A.
 Alpha  occ. eigenvalues --  -19.70854 -10.67170  -1.19968  -0.79751  -0.60471
 Alpha  occ. eigenvalues --   -0.51445  -0.49796  -0.41438  -0.35728
 Alpha virt. eigenvalues --    0.05367   0.08854   0.11977   0.12155   0.14763
 Alpha virt. eigenvalues --    0.16950   0.17767   0.29009   0.32594   0.33137
 Alpha virt. eigenvalues --    0.37603   0.38633   0.39651   0.40251   0.42724

 Mulliken charges:
               1
     1  C    0.063969
     2  O   -0.362971
     3  H    0.046651
     4  H    0.053796
     5  H    0.076954
     6  H    0.121601
 Sum of Mulliken charges =   0.00000

 Dipole moment (field-independent basis, Debye):
    X=              0.9468    Y=             -1.3479    Z=              0.1641  Tot=              1.6554
 Quadrupole moment (field-independent basis, Debye-Ang):
   XX=            -13.1929   YY=            -12.3010   ZZ=            -13.6752
   XY=              2.0131   XZ=             -0.1767   YZ=             -0.1016

 Normal termination of Gaussian 09 at Thu Aug 27 00:11:51 2020.
