 Gaussian 09, Revision D.01,
 Gaussian 09:  ES64L-G09RevD.01 24-Apr-2013

 --------------------
 #p B2PLYPD3/Def2QZVP
 --------------------

 --------
 methanol
 --------
 Symbolic Z-matrix:
 Charge =  0 Multiplicity = 1

                         Standard orientation:
 ---------------------------------------------------------------------
 Center     Atomic      Atomic             Coordinates (Angstroms)
 Number     Number       Type             X           Y           Z
 ---------------------------------------------------------------------
      1          6           0        0.664900   -0.026736    0.010730
      2          8           0       -0.732888    0.139631   -0.007461
      3          1           0        0.998187   -0.608206   -0.813904
      4          1           0        0.993220   -0.476333    0.832720
      5          1           0        1.031732    0.986884   -0.058782
      6          1           0       -1.149430   -0.858979    0.035278
 ---------------------------------------------------------------------

 SCF Done:  E(RB2PLYPD3) =  -115.531312705     A.U. after   11 cycles
 E2(B2PLYPD3) =    -0.1489724853D+00 E(B2PLYPD3) =    -0.11568028519005D+03

 The electronic state is 1-A.
 Alpha  occ. eigenvalues --  -19.73245 -10.63718  -1.14482  -0.78803  -0.58120
 Alpha  occ. eigenvalues --   -0.52709  -0.49081  -0.41055  -0.35101
 Alpha virt. eigenvalues --    0.03949   0.08108   0.12292   0.12775   0.15208
 Alpha virt. eigenvalues --    0.17126   0.17963   0.29121   0.30849   0.33427
 Alpha virt. eigenvalues --    0.34663   0.38673   0.39517   0.42496   0.45345

 Mulliken charges:
               1
     1  C    0.083845
     2  O   -0.481645
     3  H    0.040464
     4  H    0.047211
     5  H    0.066469
     6  H    0.243657
 Sum of Mulliken charges =   0.00000

 Dipole moment (field-independent basis, Debye):
    X=              0.8834    Y=             -1.6501    Z=              0.1235  Tot=              1.8758
 Quadrupole moment (field-independent basis, Debye-Ang):
   XX=            -13.1397   YY=            -11.8253   ZZ=            -13.8497
   XY=              2.2266   XZ=             -0.0240   YZ=             -0.1028

 Normal termination of Gaussian 09 at Wed Aug 26 13:29:04 2020.
