 Gaussian 09, Revision D.01,
 Gaussian 09:  ES64L-G09RevD.01 24-Apr-2013

 --------------------
 #p B2PLYPD3/Def2QZVP
 --------------------

 --------
 methanol
 --------
 Symbolic Z-matrix:
 Charge =  0 Multiplicity = 1

                         Standard orientation:
 ---------------------------------------------------------------------
 Center     Atomic      Atomic             Coordinates (Angstroms)
 Number     Number       Type             X           Y           Z
 ---------------------------------------------------------------------
      1          6           0       -0.643366    0.024444    0.016920
      2          8           0        0.730600   -0.194919   -0.018587
      3          1           0       -1.150921    0.555471   -0.746754
      4          1           0       -0.928857    0.482209    0.755188
      5          1           0       -1.120471   -0.798309    0.013330
      6          1           0        1.215648    1.173319    0.025414
 ---------------------------------------------------------------------

 SCF Done:  E(RB2PLYPD3) =  -115.405265098     A.U. after   11 cycles
 E2(B2PLYPD3) =    -0.1564206696D+00 E(B2PLYPD3) =    -0.11556168576765D+03

 The electronic state is 1-A.
 Alpha  occ. eigenvalues --  -19.75887 -10.61007  -1.12796  -0.81121  -0.55853
 Alpha  occ. eigenvalues --   -0.52014  -0.50130  -0.39252  -0.35044
 Alpha virt. eigenvalues --   -0.02683   0.07350   0.12766   0.13227   0.14901
 Alpha virt. eigenvalues --    0.17999   0.18508   0.21547   0.29765   0.33090
 Alpha virt. eigenvalues --    0.35447   0.38589   0.40011   0.42303   0.45135

 Mulliken charges:
               1
     1  C    0.098376
     2  O   -0.465530
     3  H    0.029387
     4  H    0.047805
     5  H    0.055279
     6  H    0.234682
 Sum of Mulliken charges =   0.00000

 Dipole moment (field-independent basis, Debye):
    X=             -1.0225    Y=              1.7519    Z=              0.1888  Tot=              2.0372
 Quadrupole moment (field-independent basis, Debye-Ang):
   XX=            -12.8815   YY=            -11.3267   ZZ=            -14.1431
   XY=              2.5132   XZ=              0.0500   YZ=              0.1457

 Normal termination of Gaussian 09 at Wed Aug 26 19:09:54 2020.
