 Gaussian 09, Revision D.01,
 Gaussian 09:  ES64L-G09RevD.01 24-Apr-2013

 --------------------
 #p B2PLYPD3/Def2QZVP
 --------------------

 --------
 methanol
 --------
 Symbolic Z-matrix:
 Charge =  0 Multiplicity = 1

                         Standard orientation:
 ---------------------------------------------------------------------
 Center     Atomic      Atomic             Coordinates (Angstroms)
 Number     Number       Type             X           Y           Z
 ---------------------------------------------------------------------
      1          6           0       -0.657582   -0.026978    0.030744
      2          8           0        0.755734    0.079477   -0.023222
      3          1           0       -1.020343   -0.395809    0.961986
      4          1           0       -1.121903   -0.678669   -0.892692
      5          1           0       -1.056220    1.119451   -0.146863
      6          1           0        1.098085   -0.518925    0.078881
 ---------------------------------------------------------------------

 SCF Done:  E(RB2PLYPD3) =  -115.407897182     A.U. after   11 cycles
 E2(B2PLYPD3) =    -0.1442794766D+00 E(B2PLYPD3) =    -0.11555217665856D+03

 The electronic state is 1-A.
 Alpha  occ. eigenvalues --  -19.70109 -10.68713  -1.24566  -0.81181  -0.62360
 Alpha  occ. eigenvalues --   -0.51573  -0.49346  -0.40568  -0.36278
 Alpha virt. eigenvalues --    0.05250   0.09034   0.11413   0.11928   0.14738
 Alpha virt. eigenvalues --    0.16837   0.18123   0.28611   0.32623   0.32826
 Alpha virt. eigenvalues --    0.35184   0.36709   0.40545   0.41455   0.41882

 Mulliken charges:
               1
     1  C    0.043639
     2  O   -0.238115
     3  H    0.069816
     4  H    0.042170
     5  H    0.066567
     6  H    0.015924
 Sum of Mulliken charges =   0.00000

 Dipole moment (field-independent basis, Debye):
    X=             -0.8499    Y=             -1.2366    Z=              0.3630  Tot=              1.5438
 Quadrupole moment (field-independent basis, Debye-Ang):
   XX=            -13.0658   YY=            -12.6875   ZZ=            -13.5417
   XY=             -1.7890   XZ=              0.2019   YZ=             -0.2536

 Normal termination of Gaussian 09 at Wed Aug 26 13:45:51 2020.
