 Gaussian 09, Revision D.01,
 Gaussian 09:  ES64L-G09RevD.01 24-Apr-2013

 --------------------
 #p B2PLYPD3/Def2QZVP
 --------------------

 --------
 methanol
 --------
 Symbolic Z-matrix:
 Charge =  0 Multiplicity = 1

                         Standard orientation:
 ---------------------------------------------------------------------
 Center     Atomic      Atomic             Coordinates (Angstroms)
 Number     Number       Type             X           Y           Z
 ---------------------------------------------------------------------
      1          6           0        0.669502   -0.023179   -0.004952
      2          8           0       -0.748278    0.096300    0.002451
      3          1           0        0.981574   -0.552074   -0.922600
      4          1           0        0.929860   -0.570044    0.956193
      5          1           0        1.100251    1.051550    0.012390
      6          1           0       -1.042480   -0.560754   -0.035884
 ---------------------------------------------------------------------

 SCF Done:  E(RB2PLYPD3) =  -115.450715474     A.U. after   10 cycles
 E2(B2PLYPD3) =    -0.1439160899D+00 E(B2PLYPD3) =    -0.11559463156345D+03

 The electronic state is 1-A.
 Alpha  occ. eigenvalues --  -19.69674 -10.67444  -1.23389  -0.80620  -0.61131
 Alpha  occ. eigenvalues --   -0.52566  -0.50008  -0.41325  -0.35970
 Alpha virt. eigenvalues --    0.05396   0.09322   0.11857   0.11999   0.14333
 Alpha virt. eigenvalues --    0.17134   0.17512   0.28689   0.32327   0.33079
 Alpha virt. eigenvalues --    0.36970   0.38554   0.40128   0.40665   0.43655

 Mulliken charges:
               1
     1  C    0.062464
     2  O   -0.279283
     3  H    0.054077
     4  H    0.051085
     5  H    0.074227
     6  H    0.037430
 Sum of Mulliken charges =   0.00000

 Dipole moment (field-independent basis, Debye):
    X=              1.0157    Y=             -1.2988    Z=             -0.1040  Tot=              1.6521
 Quadrupole moment (field-independent basis, Debye-Ang):
   XX=            -13.4104   YY=            -12.3910   ZZ=            -13.4167
   XY=              1.9915   XZ=              0.0051   YZ=              0.0850

 Normal termination of Gaussian 09 at Wed Aug 26 16:58:59 2020.
