 Gaussian 09, Revision D.01,
 Gaussian 09:  ES64L-G09RevD.01 24-Apr-2013

 --------------------
 #p B2PLYPD3/Def2QZVP
 --------------------

 --------
 methanol
 --------
 Symbolic Z-matrix:
 Charge =  0 Multiplicity = 1

                         Standard orientation:
 ---------------------------------------------------------------------
 Center     Atomic      Atomic             Coordinates (Angstroms)
 Number     Number       Type             X           Y           Z
 ---------------------------------------------------------------------
      1          6           0        0.665186    0.030508   -0.002413
      2          8           0       -0.744456   -0.150142   -0.009446
      3          1           0        0.979953    0.436431    0.907009
      4          1           0        1.017834    0.598800   -0.815015
      5          1           0        1.140275   -0.896025   -0.046756
      6          1           0       -1.173534    0.878882    0.044812
 ---------------------------------------------------------------------

 SCF Done:  E(RB2PLYPD3) =  -115.528808712     A.U. after   11 cycles
 E2(B2PLYPD3) =    -0.1497654337D+00 E(B2PLYPD3) =    -0.11567857414533D+03

 The electronic state is 1-A.
 Alpha  occ. eigenvalues --  -19.73660 -10.63873  -1.13599  -0.78854  -0.56350
 Alpha  occ. eigenvalues --   -0.52679  -0.49860  -0.40509  -0.35252
 Alpha virt. eigenvalues --    0.03602   0.07798   0.12494   0.12860   0.14655
 Alpha virt. eigenvalues --    0.17689   0.18369   0.28571   0.29822   0.33401
 Alpha virt. eigenvalues --    0.33906   0.39512   0.40573   0.42202   0.43392

 Mulliken charges:
               1
     1  C    0.082228
     2  O   -0.491079
     3  H    0.047337
     4  H    0.046339
     5  H    0.062589
     6  H    0.252586
 Sum of Mulliken charges =   0.00000

 Dipole moment (field-independent basis, Debye):
    X=              0.9279    Y=              1.6249    Z=              0.0984  Tot=              1.8737
 Quadrupole moment (field-independent basis, Debye-Ang):
   XX=            -12.9058   YY=            -12.0745   ZZ=            -13.7800
   XY=             -2.4820   XZ=             -0.1449   YZ=              0.0251

 Normal termination of Gaussian 09 at Thu Aug 27 00:01:12 2020.
