 Gaussian 09, Revision D.01,
 Gaussian 09:  ES64L-G09RevD.01 24-Apr-2013

 --------------------
 #p B2PLYPD3/Def2QZVP
 --------------------

 --------
 methanol
 --------
 Symbolic Z-matrix:
 Charge =  0 Multiplicity = 1

                         Standard orientation:
 ---------------------------------------------------------------------
 Center     Atomic      Atomic             Coordinates (Angstroms)
 Number     Number       Type             X           Y           Z
 ---------------------------------------------------------------------
      1          6           0       -0.667542    0.001568   -0.001302
      2          8           0        0.755189   -0.160531   -0.015165
      3          1           0       -1.146545    0.546968   -0.828687
      4          1           0       -1.010578    0.449606    0.887303
      5          1           0       -1.020751   -0.804647    0.021981
      6          1           0        1.141618    1.082915    0.048529
 ---------------------------------------------------------------------

 SCF Done:  E(RB2PLYPD3) =  -115.445911467     A.U. after   11 cycles
 E2(B2PLYPD3) =    -0.1541568968D+00 E(B2PLYPD3) =    -0.11560006836423D+03

 The electronic state is 1-A.
 Alpha  occ. eigenvalues --  -19.75196 -10.62650  -1.12015  -0.80348  -0.55520
 Alpha  occ. eigenvalues --   -0.51146  -0.49737  -0.40769  -0.35106
 Alpha virt. eigenvalues --    0.00498   0.07422   0.12496   0.13013   0.14722
 Alpha virt. eigenvalues --    0.17470   0.18683   0.23865   0.29381   0.33096
 Alpha virt. eigenvalues --    0.34122   0.37553   0.40577   0.41762   0.43145

 Mulliken charges:
               1
     1  C    0.048629
     2  O   -0.485841
     3  H    0.043307
     4  H    0.041817
     5  H    0.100852
     6  H    0.251236
 Sum of Mulliken charges =   0.00000

 Dipole moment (field-independent basis, Debye):
    X=             -1.0908    Y=              1.6112    Z=              0.1517  Tot=              1.9516
 Quadrupole moment (field-independent basis, Debye-Ang):
   XX=            -13.2088   YY=            -11.5135   ZZ=            -13.9660
   XY=              2.4673   XZ=              0.1328   YZ=              0.0524

 Normal termination of Gaussian 09 at Wed Aug 26 21:33:31 2020.
