 Gaussian 09, Revision D.01,
 Gaussian 09:  ES64L-G09RevD.01 24-Apr-2013

 --------------------
 #p B2PLYPD3/Def2QZVP
 --------------------

 --------
 methanol
 --------
 Symbolic Z-matrix:
 Charge =  0 Multiplicity = 1

                         Standard orientation:
 ---------------------------------------------------------------------
 Center     Atomic      Atomic             Coordinates (Angstroms)
 Number     Number       Type             X           Y           Z
 ---------------------------------------------------------------------
      1          6           0       -0.644679    0.010252   -0.013548
      2          8           0        0.722276   -0.182114    0.003312
      3          1           0       -1.015401    0.475610   -0.829389
      4          1           0       -0.903863    0.555857    0.880940
      5          1           0       -1.158387   -0.710437    0.052128
      6          1           0        1.167515    1.074369   -0.048883
 ---------------------------------------------------------------------

 SCF Done:  E(RB2PLYPD3) =  -115.433784745     A.U. after   11 cycles
 E2(B2PLYPD3) =    -0.1533899985D+00 E(B2PLYPD3) =    -0.11558717474349D+03

 The electronic state is 1-A.
 Alpha  occ. eigenvalues --  -19.74859 -10.61496  -1.13457  -0.80529  -0.55116
 Alpha  occ. eigenvalues --   -0.52940  -0.51456  -0.39285  -0.34593
 Alpha virt. eigenvalues --   -0.00386   0.07640   0.12479   0.13281   0.14536
 Alpha virt. eigenvalues --    0.18398   0.18680   0.23405   0.29455   0.32831
 Alpha virt. eigenvalues --    0.34845   0.38902   0.41002   0.43105   0.45025

 Mulliken charges:
               1
     1  C    0.067143
     2  O   -0.472954
     3  H    0.036332
     4  H    0.033685
     5  H    0.079407
     6  H    0.256387
 Sum of Mulliken charges =   0.00000

 Dipole moment (field-independent basis, Debye):
    X=             -0.9277    Y=              1.6508    Z=             -0.1181  Tot=              1.8973
 Quadrupole moment (field-independent basis, Debye-Ang):
   XX=            -13.0054   YY=            -11.6834   ZZ=            -13.8149
   XY=              2.7541   XZ=              0.0530   YZ=             -0.1401

 Normal termination of Gaussian 09 at Wed Aug 26 21:03:40 2020.
