 Gaussian 09, Revision D.01,
 Gaussian 09:  ES64L-G09RevD.01 24-Apr-2013

 --------------------
 #p B2PLYPD3/Def2QZVP
 --------------------

 --------
 methanol
 --------
 Symbolic Z-matrix:
 Charge =  0 Multiplicity = 1

                         Standard orientation:
 ---------------------------------------------------------------------
 Center     Atomic      Atomic             Coordinates (Angstroms)
 Number     Number       Type             X           Y           Z
 ---------------------------------------------------------------------
      1          6           0       -0.669682    0.021073    0.008980
      2          8           0        0.746936   -0.138253   -0.008058
      3          1           0       -1.048331    0.576093   -0.837273
      4          1           0       -0.993419    0.487933    0.861220
      5          1           0       -1.061064   -0.950009   -0.035057
      6          1           0        1.145423    0.865568    0.021694
 ---------------------------------------------------------------------

 SCF Done:  E(RB2PLYPD3) =  -115.535821008     A.U. after   11 cycles
 E2(B2PLYPD3) =    -0.1492575411D+00 E(B2PLYPD3) =    -0.11568507854885D+03

 The electronic state is 1-A.
 Alpha  occ. eigenvalues --  -19.73425 -10.64107  -1.13964  -0.78844  -0.57387
 Alpha  occ. eigenvalues --   -0.52146  -0.49393  -0.41257  -0.35231
 Alpha virt. eigenvalues --    0.04007   0.07961   0.12517   0.12618   0.14971
 Alpha virt. eigenvalues --    0.17302   0.18148   0.29017   0.30833   0.33482
 Alpha virt. eigenvalues --    0.33912   0.39054   0.39943   0.41820   0.44371

 Mulliken charges:
               1
     1  C    0.081242
     2  O   -0.486529
     3  H    0.042455
     4  H    0.048586
     5  H    0.068265
     6  H    0.245981
 Sum of Mulliken charges =   0.00000

 Dipole moment (field-independent basis, Debye):
    X=             -0.9567    Y=              1.6113    Z=              0.0941  Tot=              1.8763
 Quadrupole moment (field-independent basis, Debye-Ang):
   XX=            -13.0866   YY=            -11.9150   ZZ=            -13.8435
   XY=              2.3080   XZ=              0.0537   YZ=              0.0780

 Normal termination of Gaussian 09 at Wed Aug 26 10:12:33 2020.
