 Gaussian 09, Revision D.01,
 Gaussian 09:  ES64L-G09RevD.01 24-Apr-2013

 --------------------
 #p B2PLYPD3/Def2QZVP
 --------------------

 --------
 methanol
 --------
 Symbolic Z-matrix:
 Charge =  0 Multiplicity = 1

                         Standard orientation:
 ---------------------------------------------------------------------
 Center     Atomic      Atomic             Coordinates (Angstroms)
 Number     Number       Type             X           Y           Z
 ---------------------------------------------------------------------
      1          6           0        0.649026    0.053385    0.016276
      2          8           0       -0.732554   -0.159344   -0.020978
      3          1           0        1.069552    0.317993    0.832228
      4          1           0        1.105434    0.661891   -0.753314
      5          1           0        1.054293   -0.969074   -0.109929
      6          1           0       -1.263000    0.943637    0.101187
 ---------------------------------------------------------------------

 SCF Done:  E(RB2PLYPD3) =  -115.488458254     A.U. after   11 cycles
 E2(B2PLYPD3) =    -0.1522629127D+00 E(B2PLYPD3) =    -0.11564072116713D+03

 The electronic state is 1-A.
 Alpha  occ. eigenvalues --  -19.74921 -10.63661  -1.13520  -0.78919  -0.56330
 Alpha  occ. eigenvalues --   -0.52462  -0.48967  -0.39300  -0.35513
 Alpha virt. eigenvalues --    0.01878   0.07395   0.12216   0.13031   0.15392
 Alpha virt. eigenvalues --    0.16985   0.18918   0.25424   0.29235   0.34262
 Alpha virt. eigenvalues --    0.35104   0.37112   0.38963   0.42320   0.45373

 Mulliken charges:
               1
     1  C    0.069611
     2  O   -0.470614
     3  H    0.056777
     4  H    0.043762
     5  H    0.049555
     6  H    0.250909
 Sum of Mulliken charges =   0.00000

 Dipole moment (field-independent basis, Debye):
    X=              0.7453    Y=              1.6862    Z=              0.2993  Tot=              1.8677
 Quadrupole moment (field-independent basis, Debye-Ang):
   XX=            -12.6209   YY=            -12.0421   ZZ=            -14.0383
   XY=             -2.3516   XZ=             -0.1194   YZ=              0.1369

 Normal termination of Gaussian 09 at Wed Aug 26 22:08:21 2020.
