 Gaussian 09, Revision D.01,
 Gaussian 09:  ES64L-G09RevD.01 24-Apr-2013

 --------------------
 #p B2PLYPD3/Def2QZVP
 --------------------

 --------
 methanol
 --------
 Symbolic Z-matrix:
 Charge =  0 Multiplicity = 1

                         Standard orientation:
 ---------------------------------------------------------------------
 Center     Atomic      Atomic             Coordinates (Angstroms)
 Number     Number       Type             X           Y           Z
 ---------------------------------------------------------------------
      1          6           0       -0.683649    0.010302    0.007391
      2          8           0        0.758165   -0.084351   -0.045312
      3          1           0       -1.007170    0.916433   -0.635326
      4          1           0       -0.911497    0.051298    1.121290
      5          1           0       -1.079104   -0.894536   -0.407343
      6          1           0        1.034343    0.539799    0.239528
 ---------------------------------------------------------------------

 SCF Done:  E(RB2PLYPD3) =  -115.468341144     A.U. after   11 cycles
 E2(B2PLYPD3) =    -0.1444008714D+00 E(B2PLYPD3) =    -0.11561274201556D+03

 The electronic state is 1-A.
 Alpha  occ. eigenvalues --  -19.69794 -10.67267  -1.22046  -0.80506  -0.59989
 Alpha  occ. eigenvalues --   -0.52143  -0.50798  -0.41537  -0.35875
 Alpha virt. eigenvalues --    0.05418   0.09135   0.11565   0.12454   0.13883
 Alpha virt. eigenvalues --    0.17171   0.17715   0.28634   0.31353   0.32949
 Alpha virt. eigenvalues --    0.36591   0.39185   0.40228   0.40660   0.44152

 Mulliken charges:
               1
     1  C    0.063414
     2  O   -0.306821
     3  H    0.050783
     4  H    0.053890
     5  H    0.083323
     6  H    0.055410
 Sum of Mulliken charges =   0.00000

 Dipole moment (field-independent basis, Debye):
    X=             -1.1312    Y=              1.1190    Z=              0.5313  Tot=              1.6775
 Quadrupole moment (field-independent basis, Debye-Ang):
   XX=            -13.4830   YY=            -12.5388   ZZ=            -13.1905
   XY=              1.8845   XZ=              0.9537   YZ=              0.3112

 Normal termination of Gaussian 09 at Wed Aug 26 21:41:05 2020.
