 Gaussian 09, Revision D.01,
 Gaussian 09:  ES64L-G09RevD.01 24-Apr-2013

 --------------------
 #p B2PLYPD3/Def2QZVP
 --------------------

 --------
 methanol
 --------
 Symbolic Z-matrix:
 Charge =  0 Multiplicity = 1

                         Standard orientation:
 ---------------------------------------------------------------------
 Center     Atomic      Atomic             Coordinates (Angstroms)
 Number     Number       Type             X           Y           Z
 ---------------------------------------------------------------------
      1          6           0        0.654649   -0.038398   -0.000666
      2          8           0       -0.754620    0.137948   -0.002885
      3          1           0        1.031562   -0.529897   -0.840286
      4          1           0        1.053755   -0.486431    0.844975
      5          1           0        1.108351    1.002324   -0.006433
      6          1           0       -1.084601   -0.859192    0.028823
 ---------------------------------------------------------------------

 SCF Done:  E(RB2PLYPD3) =  -115.537475325     A.U. after   11 cycles
 E2(B2PLYPD3) =    -0.1491595200D+00 E(B2PLYPD3) =    -0.11568663484514D+03

 The electronic state is 1-A.
 Alpha  occ. eigenvalues --  -19.73764 -10.64799  -1.15016  -0.78576  -0.57726
 Alpha  occ. eigenvalues --   -0.52719  -0.48894  -0.40842  -0.35800
 Alpha virt. eigenvalues --    0.04224   0.07921   0.12230   0.12594   0.14940
 Alpha virt. eigenvalues --    0.17590   0.18423   0.28870   0.31066   0.33814
 Alpha virt. eigenvalues --    0.34409   0.37285   0.40258   0.42254   0.44465

 Mulliken charges:
               1
     1  C    0.073484
     2  O   -0.467663
     3  H    0.050436
     4  H    0.049992
     5  H    0.051592
     6  H    0.242159
 Sum of Mulliken charges =   0.00000

 Dipole moment (field-independent basis, Debye):
    X=              0.9825    Y=             -1.6775    Z=              0.0617  Tot=              1.9450
 Quadrupole moment (field-independent basis, Debye-Ang):
   XX=            -13.2674   YY=            -12.0404   ZZ=            -13.8516
   XY=              2.1050   XZ=             -0.0295   YZ=             -0.0253

 Normal termination of Gaussian 09 at Wed Aug 26 13:43:27 2020.
