 Gaussian 09, Revision D.01,
 Gaussian 09:  ES64L-G09RevD.01 24-Apr-2013

 --------------------
 #p B2PLYPD3/Def2QZVP
 --------------------

 --------
 methanol
 --------
 Symbolic Z-matrix:
 Charge =  0 Multiplicity = 1

                         Standard orientation:
 ---------------------------------------------------------------------
 Center     Atomic      Atomic             Coordinates (Angstroms)
 Number     Number       Type             X           Y           Z
 ---------------------------------------------------------------------
      1          6           0       -0.656327   -0.021994    0.002096
      2          8           0        0.744604    0.106160   -0.012383
      3          1           0       -0.972124   -0.505793    0.947181
      4          1           0       -1.050163   -0.610725   -0.883822
      5          1           0       -1.124145    1.022410   -0.021565
      6          1           0        1.127567   -0.623207    0.044694
 ---------------------------------------------------------------------

 SCF Done:  E(RB2PLYPD3) =  -115.528241157     A.U. after   10 cycles
 E2(B2PLYPD3) =    -0.1451839866D+00 E(B2PLYPD3) =    -0.11567342514327D+03

 The electronic state is 1-A.
 Alpha  occ. eigenvalues --  -19.71260 -10.67042  -1.19899  -0.79567  -0.60648
 Alpha  occ. eigenvalues --   -0.51854  -0.50187  -0.40599  -0.35638
 Alpha virt. eigenvalues --    0.05365   0.08720   0.12146   0.12260   0.14657
 Alpha virt. eigenvalues --    0.17291   0.17919   0.28951   0.33016   0.33691
 Alpha virt. eigenvalues --    0.36944   0.38772   0.39706   0.40202   0.43277

 Mulliken charges:
               1
     1  C    0.062645
     2  O   -0.376002
     3  H    0.048778
     4  H    0.047323
     5  H    0.070719
     6  H    0.146537
 Sum of Mulliken charges =   0.00000

 Dipole moment (field-independent basis, Debye):
    X=             -0.8109    Y=             -1.3683    Z=              0.1397  Tot=              1.5967
 Quadrupole moment (field-independent basis, Debye-Ang):
   XX=            -12.9778   YY=            -12.5086   ZZ=            -13.6917
   XY=             -2.1429   XZ=              0.1842   YZ=             -0.0588

 Normal termination of Gaussian 09 at Thu Aug 27 00:14:53 2020.
