 Gaussian 09, Revision D.01,
 Gaussian 09:  ES64L-G09RevD.01 24-Apr-2013

 --------------------
 #p B2PLYPD3/Def2QZVP
 --------------------

 --------
 methanol
 --------
 Symbolic Z-matrix:
 Charge =  0 Multiplicity = 1

                         Standard orientation:
 ---------------------------------------------------------------------
 Center     Atomic      Atomic             Coordinates (Angstroms)
 Number     Number       Type             X           Y           Z
 ---------------------------------------------------------------------
      1          6           0        0.667047   -0.008630    0.000304
      2          8           0       -0.750878    0.108185   -0.011480
      3          1           0        1.060006   -0.654231   -0.858286
      4          1           0        1.045133   -0.463457    0.947260
      5          1           0        1.068846    0.990893   -0.066657
      6          1           0       -1.169248   -0.686904    0.067697
 ---------------------------------------------------------------------

 SCF Done:  E(RB2PLYPD3) =  -115.547974234     A.U. after   10 cycles
 E2(B2PLYPD3) =    -0.1464798872D+00 E(B2PLYPD3) =    -0.11569445412081D+03

 The electronic state is 1-A.
 Alpha  occ. eigenvalues --  -19.72030 -10.66562  -1.17189  -0.79061  -0.59422
 Alpha  occ. eigenvalues --   -0.50869  -0.50388  -0.41003  -0.35286
 Alpha virt. eigenvalues --    0.05210   0.08317   0.12221   0.12426   0.14862
 Alpha virt. eigenvalues --    0.17117   0.18030   0.29115   0.33143   0.33356
 Alpha virt. eigenvalues --    0.36410   0.38921   0.39528   0.39980   0.43074

 Mulliken charges:
               1
     1  C    0.067571
     2  O   -0.437619
     3  H    0.043505
     4  H    0.046269
     5  H    0.078818
     6  H    0.201455
 Sum of Mulliken charges =   0.00000

 Dipole moment (field-independent basis, Debye):
    X=              0.8166    Y=             -1.3852    Z=              0.1706  Tot=              1.6170
 Quadrupole moment (field-independent basis, Debye-Ang):
   XX=            -12.8506   YY=            -12.3568   ZZ=            -13.8475
   XY=              2.2474   XZ=             -0.1848   YZ=             -0.0981

 Normal termination of Gaussian 09 at Wed Aug 26 10:12:14 2020.
