 Gaussian 09, Revision D.01,
 Gaussian 09:  ES64L-G09RevD.01 24-Apr-2013

 --------------------
 #p B2PLYPD3/Def2QZVP
 --------------------

 --------
 methanol
 --------
 Symbolic Z-matrix:
 Charge =  0 Multiplicity = 1

                         Standard orientation:
 ---------------------------------------------------------------------
 Center     Atomic      Atomic             Coordinates (Angstroms)
 Number     Number       Type             X           Y           Z
 ---------------------------------------------------------------------
      1          6           0        0.657292   -0.022828    0.021935
      2          8           0       -0.755591    0.098810   -0.011052
      3          1           0        1.005054   -0.749335   -0.846039
      4          1           0        1.063770   -0.393758    0.941970
      5          1           0        1.151943    1.059776   -0.202856
      6          1           0       -1.119786   -0.570194    0.063725
 ---------------------------------------------------------------------

 SCF Done:  E(RB2PLYPD3) =  -115.484138168     A.U. after   10 cycles
 E2(B2PLYPD3) =    -0.1448963152D+00 E(B2PLYPD3) =    -0.11562903448365D+03

 The electronic state is 1-A.
 Alpha  occ. eigenvalues --  -19.70860 -10.68157  -1.21777  -0.80098  -0.61684
 Alpha  occ. eigenvalues --   -0.51522  -0.49527  -0.40542  -0.35970
 Alpha virt. eigenvalues --    0.05277   0.08813   0.11691   0.12128   0.14672
 Alpha virt. eigenvalues --    0.17273   0.17889   0.28869   0.32518   0.33326
 Alpha virt. eigenvalues --    0.35228   0.37607   0.39694   0.41179   0.42387

 Mulliken charges:
               1
     1  C    0.056680
     2  O   -0.311551
     3  H    0.038761
     4  H    0.063754
     5  H    0.066617
     6  H    0.085740
 Sum of Mulliken charges =   0.00000

 Dipole moment (field-independent basis, Debye):
    X=              0.8525    Y=             -1.3311    Z=              0.2516  Tot=              1.6007
 Quadrupole moment (field-independent basis, Debye-Ang):
   XX=            -12.9492   YY=            -12.6156   ZZ=            -13.7180
   XY=              2.0237   XZ=             -0.0571   YZ=             -0.1948

 Normal termination of Gaussian 09 at Wed Aug 26 11:10:32 2020.
