 Gaussian 09, Revision D.01,
 Gaussian 09:  ES64L-G09RevD.01 24-Apr-2013

 --------------------
 #p B2PLYPD3/Def2QZVP
 --------------------

 --------
 methanol
 --------
 Symbolic Z-matrix:
 Charge =  0 Multiplicity = 1

                         Standard orientation:
 ---------------------------------------------------------------------
 Center     Atomic      Atomic             Coordinates (Angstroms)
 Number     Number       Type             X           Y           Z
 ---------------------------------------------------------------------
      1          6           0        0.663475   -0.018238    0.009112
      2          8           0       -0.745317    0.099789   -0.011874
      3          1           0        1.021746   -0.666524   -0.867889
      4          1           0        0.992636   -0.473107    0.940048
      5          1           0        1.083967    1.054957   -0.085879
      6          1           0       -1.116667   -0.604208    0.054039
 ---------------------------------------------------------------------

 SCF Done:  E(RB2PLYPD3) =  -115.514156757     A.U. after   10 cycles
 E2(B2PLYPD3) =    -0.1448510579D+00 E(B2PLYPD3) =    -0.11565900781541D+03

 The electronic state is 1-A.
 Alpha  occ. eigenvalues --  -19.70787 -10.67196  -1.20479  -0.79921  -0.60926
 Alpha  occ. eigenvalues --   -0.51760  -0.49915  -0.40925  -0.35648
 Alpha virt. eigenvalues --    0.05364   0.08914   0.11972   0.12183   0.14781
 Alpha virt. eigenvalues --    0.17061   0.17697   0.29005   0.32992   0.33315
 Alpha virt. eigenvalues --    0.37184   0.38466   0.39805   0.40588   0.42826

 Mulliken charges:
               1
     1  C    0.064154
     2  O   -0.353563
     3  H    0.044124
     4  H    0.053879
     5  H    0.073295
     6  H    0.118110
 Sum of Mulliken charges =   0.00000

 Dipole moment (field-independent basis, Debye):
    X=              0.8499    Y=             -1.3529    Z=              0.1856  Tot=              1.6084
 Quadrupole moment (field-independent basis, Debye-Ang):
   XX=            -13.0875   YY=            -12.3920   ZZ=            -13.6808
   XY=              2.0492   XZ=             -0.1375   YZ=             -0.1239

 Normal termination of Gaussian 09 at Thu Aug 27 00:02:40 2020.
