 Gaussian 09, Revision D.01,
 Gaussian 09:  ES64L-G09RevD.01 24-Apr-2013

 --------------------
 #p B2PLYPD3/Def2QZVP
 --------------------

 --------
 methanol
 --------
 Symbolic Z-matrix:
 Charge =  0 Multiplicity = 1

                         Standard orientation:
 ---------------------------------------------------------------------
 Center     Atomic      Atomic             Coordinates (Angstroms)
 Number     Number       Type             X           Y           Z
 ---------------------------------------------------------------------
      1          6           0       -0.679621   -0.037870    0.005260
      2          8           0        0.749110    0.140813   -0.001703
      3          1           0       -1.001032   -0.482413    0.869337
      4          1           0       -1.016758   -0.558835   -0.837299
      5          1           0       -1.090903    0.971288   -0.048244
      6          1           0        1.193537   -0.829325   -0.001736
 ---------------------------------------------------------------------

 SCF Done:  E(RB2PLYPD3) =  -115.537802788     A.U. after   11 cycles
 E2(B2PLYPD3) =    -0.1491174249D+00 E(B2PLYPD3) =    -0.11568692021275D+03

 The electronic state is 1-A.
 Alpha  occ. eigenvalues --  -19.73151 -10.64338  -1.13495  -0.78930  -0.56983
 Alpha  occ. eigenvalues --   -0.52891  -0.48773  -0.40714  -0.35465
 Alpha virt. eigenvalues --    0.04242   0.07896   0.12421   0.12603   0.14830
 Alpha virt. eigenvalues --    0.17224   0.18232   0.29028   0.31361   0.33228
 Alpha virt. eigenvalues --    0.33684   0.38557   0.39933   0.42607   0.44303

 Mulliken charges:
               1
     1  C    0.081194
     2  O   -0.495031
     3  H    0.054831
     4  H    0.050693
     5  H    0.064411
     6  H    0.243903
 Sum of Mulliken charges =   0.00000

 Dipole moment (field-independent basis, Debye):
    X=             -0.9423    Y=             -1.6310    Z=              0.0123  Tot=              1.8837
 Quadrupole moment (field-independent basis, Debye-Ang):
   XX=            -12.8678   YY=            -12.0958   ZZ=            -13.7527
   XY=             -2.3389   XZ=              0.0052   YZ=             -0.0193

 Normal termination of Gaussian 09 at Wed Aug 26 10:11:52 2020.
