 Gaussian 09, Revision D.01,
 Gaussian 09:  ES64L-G09RevD.01 24-Apr-2013

 --------------------
 #p B2PLYPD3/Def2QZVP
 --------------------

 --------
 methanol
 --------
 Symbolic Z-matrix:
 Charge =  0 Multiplicity = 1

                         Standard orientation:
 ---------------------------------------------------------------------
 Center     Atomic      Atomic             Coordinates (Angstroms)
 Number     Number       Type             X           Y           Z
 ---------------------------------------------------------------------
      1          6           0       -0.656081   -0.026889    0.006844
      2          8           0        0.739945    0.090373   -0.014119
      3          1           0       -0.962225   -0.501226    0.941682
      4          1           0       -1.043979   -0.625589   -0.883913
      5          1           0       -1.053225    1.119718   -0.036927
      6          1           0        1.076353   -0.554553    0.051052
 ---------------------------------------------------------------------

 SCF Done:  E(RB2PLYPD3) =  -115.456394031     A.U. after   10 cycles
 E2(B2PLYPD3) =    -0.1440278490D+00 E(B2PLYPD3) =    -0.11560042188022D+03

 The electronic state is 1-A.
 Alpha  occ. eigenvalues --  -19.70073 -10.67739  -1.23514  -0.80730  -0.61923
 Alpha  occ. eigenvalues --   -0.52362  -0.49545  -0.40695  -0.36010
 Alpha virt. eigenvalues --    0.05306   0.09255   0.11564   0.12130   0.14807
 Alpha virt. eigenvalues --    0.16874   0.17659   0.28801   0.32987   0.33402
 Alpha virt. eigenvalues --    0.35838   0.38793   0.40331   0.40793   0.42635

 Mulliken charges:
               1
     1  C    0.053496
     2  O   -0.270385
     3  H    0.054927
     4  H    0.049855
     5  H    0.066491
     6  H    0.045617
 Sum of Mulliken charges =   0.00000

 Dipole moment (field-independent basis, Debye):
    X=             -0.8259    Y=             -1.3382    Z=              0.1838  Tot=              1.5833
 Quadrupole moment (field-independent basis, Debye-Ang):
   XX=            -13.2774   YY=            -12.4109   ZZ=            -13.5823
   XY=             -1.8286   XZ=              0.1888   YZ=             -0.0934

 Normal termination of Gaussian 09 at Wed Aug 26 12:23:20 2020.
