 Gaussian 09, Revision D.01,
 Gaussian 09:  ES64L-G09RevD.01 24-Apr-2013

 --------------------
 #p B2PLYPD3/Def2QZVP
 --------------------

 --------
 methanol
 --------
 Symbolic Z-matrix:
 Charge =  0 Multiplicity = 1

                         Standard orientation:
 ---------------------------------------------------------------------
 Center     Atomic      Atomic             Coordinates (Angstroms)
 Number     Number       Type             X           Y           Z
 ---------------------------------------------------------------------
      1          6           0        0.668402   -0.017580    0.001591
      2          8           0       -0.751571    0.102732   -0.007746
      3          1           0        0.997122   -0.660192   -0.870590
      4          1           0        1.042020   -0.420027    0.969221
      5          1           0        1.052625    1.017910   -0.114442
      6          1           0       -1.089613   -0.654066    0.068237
 ---------------------------------------------------------------------

 SCF Done:  E(RB2PLYPD3) =  -115.532130955     A.U. after   10 cycles
 E2(B2PLYPD3) =    -0.1454620520D+00 E(B2PLYPD3) =    -0.11567759300665D+03

 The electronic state is 1-A.
 Alpha  occ. eigenvalues --  -19.71232 -10.66781  -1.19292  -0.79429  -0.60029
 Alpha  occ. eigenvalues --   -0.51811  -0.49906  -0.41334  -0.35718
 Alpha virt. eigenvalues --    0.05350   0.08776   0.12040   0.12255   0.14625
 Alpha virt. eigenvalues --    0.17078   0.17960   0.28948   0.32801   0.33271
 Alpha virt. eigenvalues --    0.37423   0.38811   0.39975   0.40305   0.43155

 Mulliken charges:
               1
     1  C    0.063098
     2  O   -0.387067
     3  H    0.048561
     4  H    0.052085
     5  H    0.074139
     6  H    0.149184
 Sum of Mulliken charges =   0.00000

 Dipole moment (field-independent basis, Debye):
    X=              0.9397    Y=             -1.3651    Z=              0.1529  Tot=              1.6643
 Quadrupole moment (field-independent basis, Debye-Ang):
   XX=            -13.2403   YY=            -12.3484   ZZ=            -13.6107
   XY=              2.0809   XZ=             -0.1417   YZ=             -0.0969

 Normal termination of Gaussian 09 at Thu Aug 27 01:13:47 2020.
