 Gaussian 09, Revision D.01,
 Gaussian 09:  ES64L-G09RevD.01 24-Apr-2013

 --------------------
 #p B2PLYPD3/Def2QZVP
 --------------------

 --------
 methanol
 --------
 Symbolic Z-matrix:
 Charge =  0 Multiplicity = 1

                         Standard orientation:
 ---------------------------------------------------------------------
 Center     Atomic      Atomic             Coordinates (Angstroms)
 Number     Number       Type             X           Y           Z
 ---------------------------------------------------------------------
      1          6           0       -0.667908    0.024026    0.012475
      2          8           0        0.742272   -0.146594   -0.017320
      3          1           0       -1.034544    0.616731   -0.824264
      4          1           0       -0.966946    0.449286    0.855906
      5          1           0       -1.088281   -0.926715   -0.040291
      6          1           0        1.159039    0.889295    0.072364
 ---------------------------------------------------------------------

 SCF Done:  E(RB2PLYPD3) =  -115.523976426     A.U. after   11 cycles
 E2(B2PLYPD3) =    -0.1498209706D+00 E(B2PLYPD3) =    -0.11567379739646D+03

 The electronic state is 1-A.
 Alpha  occ. eigenvalues --  -19.73626 -10.63643  -1.13600  -0.78985  -0.56984
 Alpha  occ. eigenvalues --   -0.52396  -0.49544  -0.40969  -0.35141
 Alpha virt. eigenvalues --    0.03539   0.07884   0.12584   0.12660   0.14911
 Alpha virt. eigenvalues --    0.17439   0.18155   0.28572   0.29899   0.33363
 Alpha virt. eigenvalues --    0.34053   0.39252   0.40062   0.41844   0.44497

 Mulliken charges:
               1
     1  C    0.086108
     2  O   -0.490717
     3  H    0.041141
     4  H    0.047658
     5  H    0.065975
     6  H    0.249835
 Sum of Mulliken charges =   0.00000

 Dipole moment (field-independent basis, Debye):
    X=             -0.9445    Y=              1.6300    Z=              0.2274  Tot=              1.8976
 Quadrupole moment (field-independent basis, Debye-Ang):
   XX=            -13.0474   YY=            -11.8969   ZZ=            -13.8228
   XY=              2.3870   XZ=              0.1360   YZ=              0.1510

 Normal termination of Gaussian 09 at Wed Aug 26 09:49:57 2020.
