 Gaussian 09, Revision D.01,
 Gaussian 09:  ES64L-G09RevD.01 24-Apr-2013

 --------------------
 #p B2PLYPD3/Def2QZVP
 --------------------

 --------
 methanol
 --------
 Symbolic Z-matrix:
 Charge =  0 Multiplicity = 1

                         Standard orientation:
 ---------------------------------------------------------------------
 Center     Atomic      Atomic             Coordinates (Angstroms)
 Number     Number       Type             X           Y           Z
 ---------------------------------------------------------------------
      1          6           0        0.646074    0.015713    0.024167
      2          8           0       -0.742088   -0.047600   -0.064821
      3          1           0        0.910749   -0.290540    1.063373
      4          1           0        1.049686    1.081430   -0.374063
      5          1           0        1.058506   -0.841559   -0.672730
      6          1           0       -0.958680    0.337187    0.356988
 ---------------------------------------------------------------------

 SCF Done:  E(RB2PLYPD3) =  -115.243582141     A.U. after   11 cycles
 E2(B2PLYPD3) =    -0.1430010266D+00 E(B2PLYPD3) =    -0.11538658316771D+03

 The electronic state is 1-A.
 Alpha  occ. eigenvalues --  -19.69023 -10.68398  -1.30021  -0.81977  -0.62347
 Alpha  occ. eigenvalues --   -0.52951  -0.50671  -0.41177  -0.36540
 Alpha virt. eigenvalues --    0.05303   0.09635   0.11458   0.11885   0.14044
 Alpha virt. eigenvalues --    0.17048   0.17932   0.27790   0.32664   0.33365
 Alpha virt. eigenvalues --    0.35463   0.37290   0.40045   0.41694   0.44153

 Mulliken charges:
               1
     1  C    0.047610
     2  O   -0.163054
     3  H    0.055347
     4  H    0.047234
     5  H    0.067296
     6  H   -0.054432
 Sum of Mulliken charges =   0.00000

 Dipole moment (field-independent basis, Debye):
    X=              0.9880    Y=              0.7122    Z=              0.9286  Tot=              1.5316
 Quadrupole moment (field-independent basis, Debye-Ang):
   XX=            -13.6650   YY=            -12.8427   ZZ=            -12.9109
   XY=             -1.2082   XZ=             -1.2947   YZ=              0.3026

 Normal termination of Gaussian 09 at Wed Aug 26 21:20:57 2020.
