 Gaussian 09, Revision D.01,
 Gaussian 09:  ES64L-G09RevD.01 24-Apr-2013

 --------------------
 #p B2PLYPD3/Def2QZVP
 --------------------

 --------
 methanol
 --------
 Symbolic Z-matrix:
 Charge =  0 Multiplicity = 1

                         Standard orientation:
 ---------------------------------------------------------------------
 Center     Atomic      Atomic             Coordinates (Angstroms)
 Number     Number       Type             X           Y           Z
 ---------------------------------------------------------------------
      1          6           0        0.665640    0.027823   -0.000705
      2          8           0       -0.747933   -0.152921   -0.005805
      3          1           0        1.040978    0.454078    0.868542
      4          1           0        1.115379    0.606604   -0.769086
      5          1           0        1.089728   -0.929483   -0.059468
      6          1           0       -1.256460    0.925231    0.010684
 ---------------------------------------------------------------------

 SCF Done:  E(RB2PLYPD3) =  -115.511123289     A.U. after   11 cycles
 E2(B2PLYPD3) =    -0.1515609956D+00 E(B2PLYPD3) =    -0.11566268428460D+03

 The electronic state is 1-A.
 Alpha  occ. eigenvalues --  -19.74461 -10.63998  -1.12685  -0.78750  -0.56135
 Alpha  occ. eigenvalues --   -0.51279  -0.49309  -0.40503  -0.35142
 Alpha virt. eigenvalues --    0.02521   0.07444   0.12509   0.12952   0.15087
 Alpha virt. eigenvalues --    0.17278   0.18493   0.26565   0.29524   0.33512
 Alpha virt. eigenvalues --    0.34405   0.38755   0.39241   0.41656   0.43975

 Mulliken charges:
               1
     1  C    0.079389
     2  O   -0.491165
     3  H    0.047833
     4  H    0.043190
     5  H    0.064878
     6  H    0.255875
 Sum of Mulliken charges =   0.00000

 Dipole moment (field-independent basis, Debye):
    X=              0.8360    Y=              1.6667    Z=              0.0484  Tot=              1.8652
 Quadrupole moment (field-independent basis, Debye-Ang):
   XX=            -12.5561   YY=            -11.9566   ZZ=            -14.1011
   XY=             -2.4753   XZ=             -0.0642   YZ=              0.0222

 Normal termination of Gaussian 09 at Wed Aug 26 13:44:03 2020.
