 Gaussian 09, Revision D.01,
 Gaussian 09:  ES64L-G09RevD.01 24-Apr-2013

 --------------------
 #p B2PLYPD3/Def2QZVP
 --------------------

 --------
 methanol
 --------
 Symbolic Z-matrix:
 Charge =  0 Multiplicity = 1

                         Standard orientation:
 ---------------------------------------------------------------------
 Center     Atomic      Atomic             Coordinates (Angstroms)
 Number     Number       Type             X           Y           Z
 ---------------------------------------------------------------------
      1          6           0        0.685213    0.031538   -0.013241
      2          8           0       -0.750862   -0.165588    0.004184
      3          1           0        1.037114    0.465512    0.882581
      4          1           0        1.050216    0.545869   -0.773920
      5          1           0        1.059665   -0.876274   -0.043889
      6          1           0       -1.251377    1.000372   -0.018798
 ---------------------------------------------------------------------

 SCF Done:  E(RB2PLYPD3) =  -115.481081333     A.U. after   11 cycles
 E2(B2PLYPD3) =    -0.1531626068D+00 E(B2PLYPD3) =    -0.11563424394023D+03

 The electronic state is 1-A.
 Alpha  occ. eigenvalues --  -19.74595 -10.62734  -1.11248  -0.79826  -0.55499
 Alpha  occ. eigenvalues --   -0.52127  -0.48740  -0.40516  -0.35242
 Alpha virt. eigenvalues --    0.01386   0.07509   0.12631   0.12883   0.14768
 Alpha virt. eigenvalues --    0.17168   0.18530   0.24819   0.29330   0.33086
 Alpha virt. eigenvalues --    0.33911   0.38968   0.40060   0.42068   0.44531

 Mulliken charges:
               1
     1  C    0.091706
     2  O   -0.502824
     3  H    0.047898
     4  H    0.048194
     5  H    0.066638
     6  H    0.248388
 Sum of Mulliken charges =   0.00000

 Dipole moment (field-independent basis, Debye):
    X=              1.0275    Y=              1.6721    Z=             -0.0845  Tot=              1.9643
 Quadrupole moment (field-independent basis, Debye-Ang):
   XX=            -12.7316   YY=            -11.7543   ZZ=            -13.9048
   XY=             -2.5193   XZ=             -0.0402   YZ=             -0.0835

 Normal termination of Gaussian 09 at Wed Aug 26 16:33:05 2020.
