 Gaussian 09, Revision D.01,
 Gaussian 09:  ES64L-G09RevD.01 24-Apr-2013

 --------------------
 #p B2PLYPD3/Def2QZVP
 --------------------

 --------
 methanol
 --------
 Symbolic Z-matrix:
 Charge =  0 Multiplicity = 1

                         Standard orientation:
 ---------------------------------------------------------------------
 Center     Atomic      Atomic             Coordinates (Angstroms)
 Number     Number       Type             X           Y           Z
 ---------------------------------------------------------------------
      1          6           0        0.668965   -0.035614    0.009081
      2          8           0       -0.738223    0.143641   -0.015833
      3          1           0        1.058395   -0.596538   -0.834507
      4          1           0        1.022669   -0.459292    0.852980
      5          1           0        1.065029    0.967309   -0.022284
      6          1           0       -1.254100   -0.846925    0.075990
 ---------------------------------------------------------------------

 SCF Done:  E(RB2PLYPD3) =  -115.527181550     A.U. after   11 cycles
 E2(B2PLYPD3) =    -0.1499118025D+00 E(B2PLYPD3) =    -0.11567709335233D+03

 The electronic state is 1-A.
 Alpha  occ. eigenvalues --  -19.73638 -10.64247  -1.13444  -0.78590  -0.57020
 Alpha  occ. eigenvalues --   -0.52081  -0.49141  -0.40280  -0.35201
 Alpha virt. eigenvalues --    0.03612   0.07686   0.12465   0.12751   0.15102
 Alpha virt. eigenvalues --    0.17050   0.18404   0.28653   0.29879   0.33635
 Alpha virt. eigenvalues --    0.34250   0.38633   0.39359   0.41778   0.44744

 Mulliken charges:
               1
     1  C    0.075532
     2  O   -0.491552
     3  H    0.047207
     4  H    0.051732
     5  H    0.065409
     6  H    0.251673
 Sum of Mulliken charges =   0.00000

 Dipole moment (field-independent basis, Debye):
    X=              0.7774    Y=             -1.6166    Z=              0.2234  Tot=              1.8077
 Quadrupole moment (field-independent basis, Debye-Ang):
   XX=            -12.6120   YY=            -12.1266   ZZ=            -13.8946
   XY=              2.4076   XZ=             -0.1396   YZ=             -0.1228

 Normal termination of Gaussian 09 at Wed Aug 26 16:36:48 2020.
