 Gaussian 09, Revision D.01,
 Gaussian 09:  ES64L-G09RevD.01 24-Apr-2013

 --------------------
 #p B2PLYPD3/Def2QZVP
 --------------------

 --------
 methanol
 --------
 Symbolic Z-matrix:
 Charge =  0 Multiplicity = 1

                         Standard orientation:
 ---------------------------------------------------------------------
 Center     Atomic      Atomic             Coordinates (Angstroms)
 Number     Number       Type             X           Y           Z
 ---------------------------------------------------------------------
      1          6           0        0.662686    0.027180   -0.002926
      2          8           0       -0.749002   -0.145183    0.002395
      3          1           0        1.050191    0.503008    0.866539
      4          1           0        0.982348    0.566317   -0.842488
      5          1           0        1.149527   -0.926424   -0.037290
      6          1           0       -1.166168    0.855479    0.011633
 ---------------------------------------------------------------------

 SCF Done:  E(RB2PLYPD3) =  -115.536724192     A.U. after   11 cycles
 E2(B2PLYPD3) =    -0.1493334159D+00 E(B2PLYPD3) =    -0.11568605760818D+03

 The electronic state is 1-A.
 Alpha  occ. eigenvalues --  -19.73616 -10.64445  -1.14044  -0.78656  -0.56962
 Alpha  occ. eigenvalues --   -0.52185  -0.49695  -0.40740  -0.35300
 Alpha virt. eigenvalues --    0.03944   0.07785   0.12583   0.12667   0.14778
 Alpha virt. eigenvalues --    0.17728   0.18249   0.28973   0.30465   0.33375
 Alpha virt. eigenvalues --    0.33880   0.39297   0.40047   0.41766   0.43666

 Mulliken charges:
               1
     1  C    0.079765
     2  O   -0.485498
     3  H    0.045676
     4  H    0.046103
     5  H    0.063659
     6  H    0.250295
 Sum of Mulliken charges =   0.00000

 Dipole moment (field-independent basis, Debye):
    X=              0.9117    Y=              1.6308    Z=             -0.0022  Tot=              1.8683
 Quadrupole moment (field-independent basis, Debye-Ang):
   XX=            -12.8960   YY=            -12.0943   ZZ=            -13.8746
   XY=             -2.4234   XZ=              0.0108   YZ=             -0.0075

 Normal termination of Gaussian 09 at Wed Aug 26 10:48:20 2020.
