 Gaussian 09, Revision D.01,
 Gaussian 09:  ES64L-G09RevD.01 24-Apr-2013

 --------------------
 #p B2PLYPD3/Def2QZVP
 --------------------

 --------
 methanol
 --------
 Symbolic Z-matrix:
 Charge =  0 Multiplicity = 1

                         Standard orientation:
 ---------------------------------------------------------------------
 Center     Atomic      Atomic             Coordinates (Angstroms)
 Number     Number       Type             X           Y           Z
 ---------------------------------------------------------------------
      1          6           0        0.672000   -0.017708    0.014955
      2          8           0       -0.744064    0.081265   -0.020176
      3          1           0        1.105840   -0.665462   -0.882897
      4          1           0        0.985822   -0.457486    0.973934
      5          1           0        1.019419    1.100213   -0.084718
      6          1           0       -1.190565   -0.521139    0.065358
 ---------------------------------------------------------------------

 SCF Done:  E(RB2PLYPD3) =  -115.475884800     A.U. after   10 cycles
 E2(B2PLYPD3) =    -0.1446309417D+00 E(B2PLYPD3) =    -0.11562051574119D+03

 The electronic state is 1-A.
 Alpha  occ. eigenvalues --  -19.70012 -10.68314  -1.21231  -0.80951  -0.61107
 Alpha  occ. eigenvalues --   -0.51277  -0.49671  -0.39931  -0.35693
 Alpha virt. eigenvalues --    0.05377   0.08921   0.11759   0.12061   0.14697
 Alpha virt. eigenvalues --    0.16604   0.17830   0.28994   0.32721   0.32929
 Alpha virt. eigenvalues --    0.36671   0.37616   0.39862   0.40372   0.42184

 Mulliken charges:
               1
     1  C    0.054485
     2  O   -0.307095
     3  H    0.046927
     4  H    0.059154
     5  H    0.079437
     6  H    0.067091
 Sum of Mulliken charges =   0.00000

 Dipole moment (field-independent basis, Debye):
    X=              0.7397    Y=             -1.2191    Z=              0.2672  Tot=              1.4508
 Quadrupole moment (field-independent basis, Debye-Ang):
   XX=            -12.7702   YY=            -12.6103   ZZ=            -13.6414
   XY=              1.9094   XZ=             -0.2555   YZ=             -0.1576

 Normal termination of Gaussian 09 at Wed Aug 26 14:51:06 2020.
