 Gaussian 09, Revision D.01,
 Gaussian 09:  ES64L-G09RevD.01 24-Apr-2013

 --------------------
 #p B2PLYPD3/Def2QZVP
 --------------------

 --------
 methanol
 --------
 Symbolic Z-matrix:
 Charge =  0 Multiplicity = 1

                         Standard orientation:
 ---------------------------------------------------------------------
 Center     Atomic      Atomic             Coordinates (Angstroms)
 Number     Number       Type             X           Y           Z
 ---------------------------------------------------------------------
      1          6           0       -0.633615   -0.013019    0.026381
      2          8           0        0.738795    0.090045   -0.046288
      3          1           0       -1.010969   -0.148120    0.999067
      4          1           0       -1.073181   -0.865731   -0.735428
      5          1           0       -1.065105    0.972228   -0.307912
      6          1           0        1.040583   -0.600623    0.256293
 ---------------------------------------------------------------------

 SCF Done:  E(RB2PLYPD3) =  -115.514207558     A.U. after   11 cycles
 E2(B2PLYPD3) =    -0.1450110380D+00 E(B2PLYPD3) =    -0.11565921859641D+03

 The electronic state is 1-A.
 Alpha  occ. eigenvalues --  -19.71714 -10.66843  -1.21965  -0.79698  -0.61693
 Alpha  occ. eigenvalues --   -0.51944  -0.50850  -0.41045  -0.35617
 Alpha virt. eigenvalues --    0.05318   0.08823   0.11850   0.12362   0.14804
 Alpha virt. eigenvalues --    0.17317   0.18292   0.28557   0.32549   0.34687
 Alpha virt. eigenvalues --    0.36254   0.38219   0.40349   0.41489   0.43853

 Mulliken charges:
               1
     1  C    0.052221
     2  O   -0.336027
     3  H    0.056043
     4  H    0.028670
     5  H    0.064794
     6  H    0.134299
 Sum of Mulliken charges =   0.00000

 Dipole moment (field-independent basis, Debye):
    X=             -0.7710    Y=             -1.1472    Z=              0.7158  Tot=              1.5566
 Quadrupole moment (field-independent basis, Debye-Ang):
   XX=            -13.3460   YY=            -12.6831   ZZ=            -13.4717
   XY=             -1.9390   XZ=              0.6058   YZ=             -0.4177

 Normal termination of Gaussian 09 at Wed Aug 26 19:15:25 2020.
