 Gaussian 09, Revision D.01,
 Gaussian 09:  ES64L-G09RevD.01 24-Apr-2013

 --------------------
 #p B2PLYPD3/Def2QZVP
 --------------------

 --------
 methanol
 --------
 Symbolic Z-matrix:
 Charge =  0 Multiplicity = 1

                         Standard orientation:
 ---------------------------------------------------------------------
 Center     Atomic      Atomic             Coordinates (Angstroms)
 Number     Number       Type             X           Y           Z
 ---------------------------------------------------------------------
      1          6           0        0.670893   -0.010366   -0.003633
      2          8           0       -0.757777    0.110340   -0.005695
      3          1           0        1.054605   -0.623665   -0.855988
      4          1           0        0.976933   -0.455153    0.994278
      5          1           0        1.092854    0.960336   -0.075976
      6          1           0       -1.087536   -0.702046    0.005040
 ---------------------------------------------------------------------

 SCF Done:  E(RB2PLYPD3) =  -115.543719598     A.U. after   10 cycles
 E2(B2PLYPD3) =    -0.1461768742D+00 E(B2PLYPD3) =    -0.11568989647185D+03

 The electronic state is 1-A.
 Alpha  occ. eigenvalues --  -19.71774 -10.66341  -1.17837  -0.79254  -0.59191
 Alpha  occ. eigenvalues --   -0.51510  -0.50469  -0.41545  -0.35511
 Alpha virt. eigenvalues --    0.05260   0.08548   0.11979   0.12574   0.14498
 Alpha virt. eigenvalues --    0.17386   0.18005   0.29019   0.32318   0.33389
 Alpha virt. eigenvalues --    0.36541   0.39055   0.39852   0.40663   0.44059

 Mulliken charges:
               1
     1  C    0.067179
     2  O   -0.422752
     3  H    0.047326
     4  H    0.047211
     5  H    0.077020
     6  H    0.184017
 Sum of Mulliken charges =   0.00000

 Dipole moment (field-independent basis, Debye):
    X=              1.0001    Y=             -1.3865    Z=             -0.0040  Tot=              1.7095
 Quadrupole moment (field-independent basis, Debye-Ang):
   XX=            -13.2133   YY=            -12.3075   ZZ=            -13.6600
   XY=              2.2180   XZ=             -0.1528   YZ=              0.0136

 Normal termination of Gaussian 09 at Wed Aug 26 10:45:43 2020.
