 Gaussian 09, Revision D.01,
 Gaussian 09:  ES64L-G09RevD.01 24-Apr-2013

 --------------------
 #p B2PLYPD3/Def2QZVP
 --------------------

 --------
 methanol
 --------
 Symbolic Z-matrix:
 Charge =  0 Multiplicity = 1

                         Standard orientation:
 ---------------------------------------------------------------------
 Center     Atomic      Atomic             Coordinates (Angstroms)
 Number     Number       Type             X           Y           Z
 ---------------------------------------------------------------------
      1          6           0        0.661920   -0.003963   -0.014214
      2          8           0       -0.752479   -0.088152   -0.054307
      3          1           0        1.001810   -0.095279    1.088320
      4          1           0        0.956947    1.081848   -0.452298
      5          1           0        1.155820   -0.778273   -0.473396
      6          1           0       -1.066259    0.520698    0.357109
 ---------------------------------------------------------------------

 SCF Done:  E(RB2PLYPD3) =  -115.504308549     A.U. after   11 cycles
 E2(B2PLYPD3) =    -0.1450773252D+00 E(B2PLYPD3) =    -0.11564938587371D+03

 The electronic state is 1-A.
 Alpha  occ. eigenvalues --  -19.71060 -10.67333  -1.20742  -0.80187  -0.60302
 Alpha  occ. eigenvalues --   -0.52624  -0.50688  -0.41127  -0.35192
 Alpha virt. eigenvalues --    0.05242   0.08845   0.11502   0.12775   0.14206
 Alpha virt. eigenvalues --    0.17248   0.18214   0.28715   0.32127   0.32718
 Alpha virt. eigenvalues --    0.35753   0.38133   0.39464   0.42290   0.44319

 Mulliken charges:
               1
     1  C    0.064961
     2  O   -0.348265
     3  H    0.036300
     4  H    0.034020
     5  H    0.088873
     6  H    0.124110
 Sum of Mulliken charges =   0.00000

 Dipole moment (field-independent basis, Debye):
    X=              0.9519    Y=              0.9816    Z=              0.7238  Tot=              1.5471
 Quadrupole moment (field-independent basis, Debye-Ang):
   XX=            -13.2482   YY=            -12.6904   ZZ=            -13.4635
   XY=             -2.0220   XZ=             -1.1975   YZ=              0.4998

 Normal termination of Gaussian 09 at Wed Aug 26 22:06:42 2020.
