 Gaussian 09, Revision D.01,
 Gaussian 09:  ES64L-G09RevD.01 24-Apr-2013

 --------------------
 #p B2PLYPD3/Def2QZVP
 --------------------

 --------
 methanol
 --------
 Symbolic Z-matrix:
 Charge =  0 Multiplicity = 1

                         Standard orientation:
 ---------------------------------------------------------------------
 Center     Atomic      Atomic             Coordinates (Angstroms)
 Number     Number       Type             X           Y           Z
 ---------------------------------------------------------------------
      1          6           0       -0.676927   -0.022862    0.005919
      2          8           0        0.754924    0.100795   -0.005712
      3          1           0       -0.983584   -0.525580    0.948509
      4          1           0       -1.047402   -0.555118   -0.931555
      5          1           0       -1.079822    1.024134   -0.010590
      6          1           0        1.132980   -0.612625    0.003822
 ---------------------------------------------------------------------

 SCF Done:  E(RB2PLYPD3) =  -115.519920652     A.U. after   10 cycles
 E2(B2PLYPD3) =    -0.1452070384D+00 E(B2PLYPD3) =    -0.11566512769072D+03

 The electronic state is 1-A.
 Alpha  occ. eigenvalues --  -19.70754 -10.67204  -1.19424  -0.79853  -0.59985
 Alpha  occ. eigenvalues --   -0.51835  -0.49822  -0.40793  -0.35844
 Alpha virt. eigenvalues --    0.05424   0.08775   0.11984   0.12252   0.14404
 Alpha virt. eigenvalues --    0.17034   0.17987   0.28930   0.32291   0.33218
 Alpha virt. eigenvalues --    0.37217   0.39133   0.39627   0.40151   0.43040

 Mulliken charges:
               1
     1  C    0.063585
     2  O   -0.374121
     3  H    0.056474
     4  H    0.052058
     5  H    0.075981
     6  H    0.126024
 Sum of Mulliken charges =   0.00000

 Dipole moment (field-independent basis, Debye):
    X=             -0.9386    Y=             -1.3341    Z=              0.0449  Tot=              1.6318
 Quadrupole moment (field-independent basis, Debye-Ang):
   XX=            -13.0160   YY=            -12.5043   ZZ=            -13.5446
   XY=             -2.1285   XZ=              0.0581   YZ=             -0.0343

 Normal termination of Gaussian 09 at Wed Aug 26 12:57:54 2020.
