 Gaussian 09, Revision D.01,
 Gaussian 09:  ES64L-G09RevD.01 24-Apr-2013

 --------------------
 #p B2PLYPD3/Def2QZVP
 --------------------

 --------
 methanol
 --------
 Symbolic Z-matrix:
 Charge =  0 Multiplicity = 1

                         Standard orientation:
 ---------------------------------------------------------------------
 Center     Atomic      Atomic             Coordinates (Angstroms)
 Number     Number       Type             X           Y           Z
 ---------------------------------------------------------------------
      1          6           0        0.674382   -0.008115   -0.000070
      2          8           0       -0.754213    0.092921   -0.009104
      3          1           0        1.029860   -0.700255   -0.852326
      4          1           0        1.045519   -0.402808    0.999668
      5          1           0        1.026880    1.023050   -0.142240
      6          1           0       -1.114846   -0.614661    0.068150
 ---------------------------------------------------------------------

 SCF Done:  E(RB2PLYPD3) =  -115.514318546     A.U. after   10 cycles
 E2(B2PLYPD3) =    -0.1451006341D+00 E(B2PLYPD3) =    -0.11565941918007D+03

 The electronic state is 1-A.
 Alpha  occ. eigenvalues --  -19.70760 -10.67360  -1.19972  -0.79949  -0.60238
 Alpha  occ. eigenvalues --   -0.51119  -0.50261  -0.41302  -0.35650
 Alpha virt. eigenvalues --    0.05389   0.08826   0.11937   0.12228   0.14635
 Alpha virt. eigenvalues --    0.16873   0.17859   0.28956   0.32540   0.33056
 Alpha virt. eigenvalues --    0.37215   0.39174   0.39591   0.40048   0.42636

 Mulliken charges:
               1
     1  C    0.061628
     2  O   -0.358832
     3  H    0.047122
     4  H    0.050920
     5  H    0.082084
     6  H    0.117078
 Sum of Mulliken charges =   0.00000

 Dipole moment (field-independent basis, Debye):
    X=              0.9246    Y=             -1.2917    Z=              0.1528  Tot=              1.5959
 Quadrupole moment (field-independent basis, Debye-Ang):
   XX=            -13.1328   YY=            -12.3729   ZZ=            -13.6458
   XY=              2.0560   XZ=             -0.1950   YZ=             -0.1090

 Normal termination of Gaussian 09 at Wed Aug 26 23:04:18 2020.
