 Gaussian 09, Revision D.01,
 Gaussian 09:  ES64L-G09RevD.01 24-Apr-2013

 --------------------
 #p B2PLYPD3/Def2QZVP
 --------------------

 --------
 methanol
 --------
 Symbolic Z-matrix:
 Charge =  0 Multiplicity = 1

                         Standard orientation:
 ---------------------------------------------------------------------
 Center     Atomic      Atomic             Coordinates (Angstroms)
 Number     Number       Type             X           Y           Z
 ---------------------------------------------------------------------
      1          6           0       -0.668856   -0.014490    0.021701
      2          8           0        0.747139    0.091206   -0.038691
      3          1           0       -0.954055   -0.233939    1.002933
      4          1           0       -1.090582   -0.816243   -0.761923
      5          1           0       -1.019585    1.021304   -0.241593
      6          1           0        1.100248   -0.613832    0.179905
 ---------------------------------------------------------------------

 SCF Done:  E(RB2PLYPD3) =  -115.519690572     A.U. after   11 cycles
 E2(B2PLYPD3) =    -0.1452899833D+00 E(B2PLYPD3) =    -0.11566498055479D+03

 The electronic state is 1-A.
 Alpha  occ. eigenvalues --  -19.71011 -10.66851  -1.19759  -0.79835  -0.60490
 Alpha  occ. eigenvalues --   -0.51788  -0.49756  -0.41160  -0.35725
 Alpha virt. eigenvalues --    0.05350   0.08817   0.11874   0.12213   0.14723
 Alpha virt. eigenvalues --    0.16851   0.18006   0.28936   0.32849   0.33020
 Alpha virt. eigenvalues --    0.36764   0.38303   0.39948   0.40965   0.43875

 Mulliken charges:
               1
     1  C    0.061313
     2  O   -0.372095
     3  H    0.060337
     4  H    0.040884
     5  H    0.073769
     6  H    0.135793
 Sum of Mulliken charges =   0.00000

 Dipole moment (field-independent basis, Debye):
    X=             -0.8822    Y=             -1.2549    Z=              0.5430  Tot=              1.6273
 Quadrupole moment (field-independent basis, Debye-Ang):
   XX=            -13.2415   YY=            -12.4457   ZZ=            -13.5030
   XY=             -1.9629   XZ=              0.5279   YZ=             -0.3099

 Normal termination of Gaussian 09 at Wed Aug 26 12:04:41 2020.
