 Gaussian 09, Revision D.01,
 Gaussian 09:  ES64L-G09RevD.01 24-Apr-2013

 --------------------
 #p B2PLYPD3/Def2QZVP
 --------------------

 --------
 methanol
 --------
 Symbolic Z-matrix:
 Charge =  0 Multiplicity = 1

                         Standard orientation:
 ---------------------------------------------------------------------
 Center     Atomic      Atomic             Coordinates (Angstroms)
 Number     Number       Type             X           Y           Z
 ---------------------------------------------------------------------
      1          6           0        0.670519    0.058292   -0.023729
      2          8           0       -0.746642   -0.184391    0.014458
      3          1           0        0.992520    0.505387    0.849730
      4          1           0        1.049752    0.460489   -0.707436
      5          1           0        1.116456   -0.915260   -0.025211
      6          1           0       -1.208709    1.074754   -0.090369
 ---------------------------------------------------------------------

 SCF Done:  E(RB2PLYPD3) =  -115.432396169     A.U. after   11 cycles
 E2(B2PLYPD3) =    -0.1549359236D+00 E(B2PLYPD3) =    -0.11558733209290D+03

 The electronic state is 1-A.
 Alpha  occ. eigenvalues --  -19.75386 -10.62155  -1.11505  -0.80882  -0.55526
 Alpha  occ. eigenvalues --   -0.53063  -0.48156  -0.39696  -0.35663
 Alpha virt. eigenvalues --   -0.00153   0.07401   0.12417   0.12859   0.14769
 Alpha virt. eigenvalues --    0.17465   0.18748   0.23020   0.29290   0.33014
 Alpha virt. eigenvalues --    0.34634   0.37674   0.39567   0.42176   0.46189

 Mulliken charges:
               1
     1  C    0.068985
     2  O   -0.480394
     3  H    0.051717
     4  H    0.074849
     5  H    0.047395
     6  H    0.237447
 Sum of Mulliken charges =   0.00000

 Dipole moment (field-independent basis, Debye):
    X=              1.0883    Y=              1.7807    Z=             -0.2327  Tot=              2.0999
 Quadrupole moment (field-independent basis, Debye-Ang):
   XX=            -12.9990   YY=            -11.6365   ZZ=            -13.9001
   XY=             -2.3366   XZ=              0.0065   YZ=             -0.1902

 Normal termination of Gaussian 09 at Wed Aug 26 23:37:22 2020.
