 Gaussian 09, Revision D.01,
 Gaussian 09:  ES64L-G09RevD.01 24-Apr-2013

 --------------------
 #p B2PLYPD3/Def2QZVP
 --------------------

 --------
 methanol
 --------
 Symbolic Z-matrix:
 Charge =  0 Multiplicity = 1

                         Standard orientation:
 ---------------------------------------------------------------------
 Center     Atomic      Atomic             Coordinates (Angstroms)
 Number     Number       Type             X           Y           Z
 ---------------------------------------------------------------------
      1          6           0        0.662517   -0.018923    0.016399
      2          8           0       -0.734895    0.130770   -0.015988
      3          1           0        1.029430   -0.631649   -0.852604
      4          1           0        0.959697   -0.464121    0.890807
      5          1           0        1.079100    0.949341   -0.065310
      6          1           0       -1.164172   -0.786187    0.056620
 ---------------------------------------------------------------------

 SCF Done:  E(RB2PLYPD3) =  -115.545481347     A.U. after   10 cycles
 E2(B2PLYPD3) =    -0.1477457082D+00 E(B2PLYPD3) =    -0.11569322705500D+03

 The electronic state is 1-A.
 Alpha  occ. eigenvalues --  -19.72748 -10.64645  -1.15446  -0.78749  -0.58365
 Alpha  occ. eigenvalues --   -0.52157  -0.50248  -0.40839  -0.35012
 Alpha virt. eigenvalues --    0.04581   0.08179   0.12465   0.12602   0.14919
 Alpha virt. eigenvalues --    0.17322   0.18017   0.29204   0.32810   0.33353
 Alpha virt. eigenvalues --    0.34325   0.39068   0.40158   0.41403   0.44635

 Mulliken charges:
               1
     1  C    0.076955
     2  O   -0.473479
     3  H    0.037188
     4  H    0.049387
     5  H    0.071102
     6  H    0.238848
 Sum of Mulliken charges =   0.00000

 Dipole moment (field-independent basis, Debye):
    X=              0.8099    Y=             -1.5233    Z=              0.2110  Tot=              1.7381
 Quadrupole moment (field-independent basis, Debye-Ang):
   XX=            -12.9743   YY=            -12.1432   ZZ=            -13.7741
   XY=              2.3759   XZ=             -0.1256   YZ=             -0.1654

 Normal termination of Gaussian 09 at Thu Aug 27 00:06:08 2020.
