 Gaussian 09, Revision D.01,
 Gaussian 09:  ES64L-G09RevD.01 24-Apr-2013

 --------------------
 #p B2PLYPD3/Def2QZVP
 --------------------

 --------
 methanol
 --------
 Symbolic Z-matrix:
 Charge =  0 Multiplicity = 1

                         Standard orientation:
 ---------------------------------------------------------------------
 Center     Atomic      Atomic             Coordinates (Angstroms)
 Number     Number       Type             X           Y           Z
 ---------------------------------------------------------------------
      1          6           0        0.639235   -0.045510    0.007017
      2          8           0       -0.764115    0.100249    0.011605
      3          1           0        0.986990   -0.638857   -0.853156
      4          1           0        1.096736   -0.402266    0.952490
      5          1           0        1.157385    1.109219   -0.181187
      6          1           0       -0.963599   -0.597029   -0.053088
 ---------------------------------------------------------------------

 SCF Done:  E(RB2PLYPD3) =  -115.443216885     A.U. after   10 cycles
 E2(B2PLYPD3) =    -0.1448998324D+00 E(B2PLYPD3) =    -0.11558811671778D+03

 The electronic state is 1-A.
 Alpha  occ. eigenvalues --  -19.71108 -10.68221  -1.24931  -0.79405  -0.62260
 Alpha  occ. eigenvalues --   -0.52913  -0.49630  -0.40629  -0.36790
 Alpha virt. eigenvalues --    0.05119   0.08995   0.11222   0.12047   0.14635
 Alpha virt. eigenvalues --    0.17619   0.18143   0.28316   0.32121   0.33068
 Alpha virt. eigenvalues --    0.34053   0.39093   0.39909   0.40184   0.43982

 Mulliken charges:
               1
     1  C    0.044591
     2  O   -0.257168
     3  H    0.057073
     4  H    0.064187
     5  H    0.041661
     6  H    0.049657
 Sum of Mulliken charges =   0.00000

 Dipole moment (field-independent basis, Debye):
    X=              1.0250    Y=             -1.4655    Z=             -0.1270  Tot=              1.7929
 Quadrupole moment (field-independent basis, Debye-Ang):
   XX=            -13.5574   YY=            -12.5951   ZZ=            -13.5587
   XY=              1.6338   XZ=              0.2085   YZ=              0.1218

 Normal termination of Gaussian 09 at Wed Aug 26 23:06:58 2020.
