 Gaussian 09, Revision D.01,
 Gaussian 09:  ES64L-G09RevD.01 24-Apr-2013

 --------------------
 #p B2PLYPD3/Def2QZVP
 --------------------

 --------
 methanol
 --------
 Symbolic Z-matrix:
 Charge =  0 Multiplicity = 1

                         Standard orientation:
 ---------------------------------------------------------------------
 Center     Atomic      Atomic             Coordinates (Angstroms)
 Number     Number       Type             X           Y           Z
 ---------------------------------------------------------------------
      1          6           0        0.675067    0.025616   -0.012311
      2          8           0       -0.738427   -0.154613    0.010256
      3          1           0        1.061507    0.575528    0.806089
      4          1           0        1.000440    0.526622   -0.789345
      5          1           0        1.052369   -0.943303    0.005690
      6          1           0       -1.257298    0.924359   -0.030610
 ---------------------------------------------------------------------

 SCF Done:  E(RB2PLYPD3) =  -115.503371060     A.U. after   11 cycles
 E2(B2PLYPD3) =    -0.1512996266D+00 E(B2PLYPD3) =    -0.11565467068689D+03

 The electronic state is 1-A.
 Alpha  occ. eigenvalues --  -19.74035 -10.63182  -1.12480  -0.79210  -0.56853
 Alpha  occ. eigenvalues --   -0.51764  -0.49051  -0.40696  -0.34931
 Alpha virt. eigenvalues --    0.02500   0.07645   0.12420   0.13037   0.15167
 Alpha virt. eigenvalues --    0.17152   0.18109   0.26689   0.29616   0.33584
 Alpha virt. eigenvalues --    0.34144   0.38902   0.39195   0.42049   0.45207

 Mulliken charges:
               1
     1  C    0.089902
     2  O   -0.498972
     3  H    0.041207
     4  H    0.046901
     5  H    0.069755
     6  H    0.251206
 Sum of Mulliken charges =   0.00000

 Dipole moment (field-independent basis, Debye):
    X=              0.8713    Y=              1.6880    Z=             -0.1288  Tot=              1.9039
 Quadrupole moment (field-independent basis, Debye-Ang):
   XX=            -12.6598   YY=            -11.7599   ZZ=            -14.0410
   XY=             -2.4268   XZ=              0.0469   YZ=             -0.1032

 Normal termination of Gaussian 09 at Wed Aug 26 11:58:27 2020.
