 Gaussian 09, Revision D.01,
 Gaussian 09:  ES64L-G09RevD.01 24-Apr-2013

 --------------------
 #p B2PLYPD3/Def2QZVP
 --------------------

 --------
 methanol
 --------
 Symbolic Z-matrix:
 Charge =  0 Multiplicity = 1

                         Standard orientation:
 ---------------------------------------------------------------------
 Center     Atomic      Atomic             Coordinates (Angstroms)
 Number     Number       Type             X           Y           Z
 ---------------------------------------------------------------------
      1          6           0       -0.633764    0.022208    0.021603
      2          8           0        0.726452   -0.152865   -0.036392
      3          1           0       -1.169089    0.714069   -0.746227
      4          1           0       -0.905275    0.388997    0.862026
      5          1           0       -1.165922   -0.907856   -0.060620
      6          1           0        1.231254    0.894462    0.106337
 ---------------------------------------------------------------------

 SCF Done:  E(RB2PLYPD3) =  -115.500338225     A.U. after   11 cycles
 E2(B2PLYPD3) =    -0.1505752849D+00 E(B2PLYPD3) =    -0.11565091351007D+03

 The electronic state is 1-A.
 Alpha  occ. eigenvalues --  -19.74452 -10.63998  -1.14971  -0.78459  -0.57405
 Alpha  occ. eigenvalues --   -0.51812  -0.50378  -0.39832  -0.34681
 Alpha virt. eigenvalues --    0.02552   0.07431   0.12555   0.12997   0.15122
 Alpha virt. eigenvalues --    0.17829   0.18422   0.26671   0.29612   0.32693
 Alpha virt. eigenvalues --    0.35698   0.38341   0.39540   0.41248   0.44135

 Mulliken charges:
               1
     1  C    0.073371
     2  O   -0.470577
     3  H    0.022330
     4  H    0.051191
     5  H    0.061137
     6  H    0.262548
 Sum of Mulliken charges =   0.00000

 Dipole moment (field-independent basis, Debye):
    X=             -0.6054    Y=              1.6114    Z=              0.4416  Tot=              1.7771
 Quadrupole moment (field-independent basis, Debye-Ang):
   XX=            -12.6267   YY=            -12.1346   ZZ=            -14.0952
   XY=              2.5831   XZ=              0.2344   YZ=              0.2853

 Normal termination of Gaussian 09 at Wed Aug 26 23:49:05 2020.
