 Gaussian 09, Revision D.01,
 Gaussian 09:  ES64L-G09RevD.01 24-Apr-2013

 --------------------
 #p B2PLYPD3/Def2QZVP
 --------------------

 --------
 methanol
 --------
 Symbolic Z-matrix:
 Charge =  0 Multiplicity = 1

                         Standard orientation:
 ---------------------------------------------------------------------
 Center     Atomic      Atomic             Coordinates (Angstroms)
 Number     Number       Type             X           Y           Z
 ---------------------------------------------------------------------
      1          6           0        0.661943   -0.017086   -0.002034
      2          8           0       -0.741783    0.129540   -0.000527
      3          1           0        0.979126   -0.563901   -0.875199
      4          1           0        1.039881   -0.509835    0.881321
      5          1           0        1.053892    0.958443   -0.019939
      6          1           0       -1.110294   -0.818510    0.030238
 ---------------------------------------------------------------------

 SCF Done:  E(RB2PLYPD3) =  -115.547732635     A.U. after   10 cycles
 E2(B2PLYPD3) =    -0.1480378089D+00 E(B2PLYPD3) =    -0.11569577044377D+03

 The electronic state is 1-A.
 Alpha  occ. eigenvalues --  -19.72958 -10.64706  -1.15462  -0.78563  -0.58175
 Alpha  occ. eigenvalues --   -0.52150  -0.49900  -0.41311  -0.35173
 Alpha virt. eigenvalues --    0.04532   0.08214   0.12426   0.12546   0.14900
 Alpha virt. eigenvalues --    0.17317   0.18079   0.29134   0.32644   0.33292
 Alpha virt. eigenvalues --    0.34492   0.39067   0.40301   0.41432   0.44079

 Mulliken charges:
               1
     1  C    0.073304
     2  O   -0.469190
     3  H    0.044964
     4  H    0.043840
     5  H    0.069882
     6  H    0.237200
 Sum of Mulliken charges =   0.00000

 Dipole moment (field-independent basis, Debye):
    X=              0.9115    Y=             -1.5469    Z=              0.0491  Tot=              1.7962
 Quadrupole moment (field-independent basis, Debye-Ang):
   XX=            -13.2349   YY=            -12.0163   ZZ=            -13.7847
   XY=              2.2697   XZ=             -0.0139   YZ=             -0.0282

 Normal termination of Gaussian 09 at Wed Aug 26 14:34:29 2020.
