 Gaussian 09, Revision D.01,
 Gaussian 09:  ES64L-G09RevD.01 24-Apr-2013

 --------------------
 #p B2PLYPD3/Def2QZVP
 --------------------

 --------
 methanol
 --------
 Symbolic Z-matrix:
 Charge =  0 Multiplicity = 1

                         Standard orientation:
 ---------------------------------------------------------------------
 Center     Atomic      Atomic             Coordinates (Angstroms)
 Number     Number       Type             X           Y           Z
 ---------------------------------------------------------------------
      1          6           0        0.657937    0.018932   -0.006081
      2          8           0       -0.749145   -0.143458    0.004241
      3          1           0        1.031640    0.537418    0.867613
      4          1           0        1.040059    0.499920   -0.853038
      5          1           0        1.088431   -0.913519    0.012788
      6          1           0       -1.114596    0.910254   -0.024806
 ---------------------------------------------------------------------

 SCF Done:  E(RB2PLYPD3) =  -115.528409850     A.U. after   11 cycles
 E2(B2PLYPD3) =    -0.1499891401D+00 E(B2PLYPD3) =    -0.11567839899001D+03

 The electronic state is 1-A.
 Alpha  occ. eigenvalues --  -19.73983 -10.64038  -1.14039  -0.78740  -0.56853
 Alpha  occ. eigenvalues --   -0.51964  -0.49850  -0.41120  -0.35255
 Alpha virt. eigenvalues --    0.03535   0.07821   0.12537   0.12715   0.14863
 Alpha virt. eigenvalues --    0.17617   0.18368   0.28427   0.29846   0.33462
 Alpha virt. eigenvalues --    0.34315   0.38882   0.40530   0.41582   0.43755

 Mulliken charges:
               1
     1  C    0.078881
     2  O   -0.480688
     3  H    0.041264
     4  H    0.044468
     5  H    0.064379
     6  H    0.251696
 Sum of Mulliken charges =   0.00000

 Dipole moment (field-independent basis, Debye):
    X=              0.9742    Y=              1.6132    Z=             -0.0768  Tot=              1.8862
 Quadrupole moment (field-independent basis, Debye-Ang):
   XX=            -13.1789   YY=            -11.9113   ZZ=            -13.8746
   XY=             -2.3456   XZ=              0.0098   YZ=             -0.0646

 Normal termination of Gaussian 09 at Thu Aug 27 00:12:53 2020.
