 Gaussian 09, Revision D.01,
 Gaussian 09:  ES64L-G09RevD.01 24-Apr-2013

 --------------------
 #p B2PLYPD3/Def2QZVP
 --------------------

 --------
 methanol
 --------
 Symbolic Z-matrix:
 Charge =  0 Multiplicity = 1

                         Standard orientation:
 ---------------------------------------------------------------------
 Center     Atomic      Atomic             Coordinates (Angstroms)
 Number     Number       Type             X           Y           Z
 ---------------------------------------------------------------------
      1          6           0        0.662920    0.009645    0.004838
      2          8           0       -0.738708   -0.087620   -0.040691
      3          1           0        0.999117    0.061098    1.103277
      4          1           0        0.953986    0.952163   -0.631104
      5          1           0        1.100256   -0.873565   -0.430757
      6          1           0       -1.121220    0.503392    0.255087
 ---------------------------------------------------------------------

 SCF Done:  E(RB2PLYPD3) =  -115.488885202     A.U. after   10 cycles
 E2(B2PLYPD3) =    -0.1442342118D+00 E(B2PLYPD3) =    -0.11563311941398D+03

 The electronic state is 1-A.
 Alpha  occ. eigenvalues --  -19.70203 -10.67395  -1.21698  -0.80884  -0.60635
 Alpha  occ. eigenvalues --   -0.51862  -0.51475  -0.40367  -0.35463
 Alpha virt. eigenvalues --    0.05424   0.09075   0.11737   0.12588   0.14157
 Alpha virt. eigenvalues --    0.17183   0.17797   0.28721   0.32579   0.33202
 Alpha virt. eigenvalues --    0.36864   0.39177   0.39851   0.40895   0.43509

 Mulliken charges:
               1
     1  C    0.059807
     2  O   -0.314988
     3  H    0.046004
     4  H    0.042694
     5  H    0.084141
     6  H    0.082342
 Sum of Mulliken charges =   0.00000

 Dipole moment (field-independent basis, Debye):
    X=              0.8190    Y=              1.0613    Z=              0.5567  Tot=              1.4516
 Quadrupole moment (field-independent basis, Debye-Ang):
   XX=            -13.0397   YY=            -12.7777   ZZ=            -13.3394
   XY=             -2.0316   XZ=             -0.9240   YZ=              0.3375

 Normal termination of Gaussian 09 at Wed Aug 26 12:31:08 2020.
