 Gaussian 09, Revision D.01,
 Gaussian 09:  ES64L-G09RevD.01 24-Apr-2013

 --------------------
 #p B2PLYPD3/Def2QZVP
 --------------------

 --------
 methanol
 --------
 Symbolic Z-matrix:
 Charge =  0 Multiplicity = 1

                         Standard orientation:
 ---------------------------------------------------------------------
 Center     Atomic      Atomic             Coordinates (Angstroms)
 Number     Number       Type             X           Y           Z
 ---------------------------------------------------------------------
      1          6           0       -0.684300   -0.035002   -0.012962
      2          8           0        0.751855    0.141130    0.006752
      3          1           0       -1.017579   -0.555140    0.868657
      4          1           0       -1.064545   -0.482379   -0.828768
      5          1           0       -1.050503    0.974447    0.031848
      6          1           0        1.223593   -0.855954   -0.047978
 ---------------------------------------------------------------------

 SCF Done:  E(RB2PLYPD3) =  -115.529097531     A.U. after   11 cycles
 E2(B2PLYPD3) =    -0.1500366502D+00 E(B2PLYPD3) =    -0.11567913418116D+03

 The electronic state is 1-A.
 Alpha  occ. eigenvalues --  -19.73515 -10.64332  -1.12766  -0.78928  -0.56793
 Alpha  occ. eigenvalues --   -0.52181  -0.48525  -0.40802  -0.35373
 Alpha virt. eigenvalues --    0.03860   0.07731   0.12380   0.12651   0.14924
 Alpha virt. eigenvalues --    0.16996   0.18392   0.28737   0.30390   0.32884
 Alpha virt. eigenvalues --    0.33993   0.38583   0.39319   0.42038   0.44805

 Mulliken charges:
               1
     1  C    0.077688
     2  O   -0.497820
     3  H    0.050235
     4  H    0.055576
     5  H    0.066971
     6  H    0.247351
 Sum of Mulliken charges =   0.00000

 Dipole moment (field-independent basis, Debye):
    X=             -0.9295    Y=             -1.6245    Z=             -0.1380  Tot=              1.8767
 Quadrupole moment (field-independent basis, Debye-Ang):
   XX=            -12.7744   YY=            -12.0483   ZZ=            -13.8382
   XY=             -2.3475   XZ=             -0.0117   YZ=              0.1163

 Normal termination of Gaussian 09 at Wed Aug 26 16:34:55 2020.
