 Gaussian 09, Revision D.01,
 Gaussian 09:  ES64L-G09RevD.01 24-Apr-2013

 --------------------
 #p B2PLYPD3/Def2QZVP
 --------------------

 --------
 methanol
 --------
 Symbolic Z-matrix:
 Charge =  0 Multiplicity = 1

                         Standard orientation:
 ---------------------------------------------------------------------
 Center     Atomic      Atomic             Coordinates (Angstroms)
 Number     Number       Type             X           Y           Z
 ---------------------------------------------------------------------
      1          6           0       -0.659349   -0.022538    0.015400
      2          8           0        0.750327    0.076138   -0.028737
      3          1           0       -1.053121   -0.244554    1.014774
      4          1           0       -1.076396   -0.860337   -0.753419
      5          1           0       -1.088281    1.092645   -0.281559
      6          1           0        1.171277   -0.461627    0.157697
 ---------------------------------------------------------------------

 SCF Done:  E(RB2PLYPD3) =  -115.420434981     A.U. after   11 cycles
 E2(B2PLYPD3) =    -0.1444032980D+00 E(B2PLYPD3) =    -0.11556483827932D+03

 The electronic state is 1-A.
 Alpha  occ. eigenvalues --  -19.69963 -10.69154  -1.23564  -0.81530  -0.62129
 Alpha  occ. eigenvalues --   -0.51143  -0.49444  -0.39698  -0.36057
 Alpha virt. eigenvalues --    0.05218   0.08995   0.11443   0.12009   0.14703
 Alpha virt. eigenvalues --    0.16763   0.17946   0.28818   0.32476   0.33245
 Alpha virt. eigenvalues --    0.34976   0.36883   0.40057   0.40693   0.41656

 Mulliken charges:
               1
     1  C    0.047894
     2  O   -0.248794
     3  H    0.062779
     4  H    0.045447
     5  H    0.071425
     6  H    0.021249
 Sum of Mulliken charges =   0.00000

 Dipole moment (field-independent basis, Debye):
    X=             -0.7385    Y=             -1.1309    Z=              0.5200  Tot=              1.4473
 Quadrupole moment (field-independent basis, Debye-Ang):
   XX=            -12.7234   YY=            -12.7949   ZZ=            -13.6374
   XY=             -1.7930   XZ=              0.4560   YZ=             -0.2249

 Normal termination of Gaussian 09 at Wed Aug 26 15:01:34 2020.
