 Gaussian 09, Revision D.01,
 Gaussian 09:  ES64L-G09RevD.01 24-Apr-2013

 --------------------
 #p B2PLYPD3/Def2QZVP
 --------------------

 --------
 methanol
 --------
 Symbolic Z-matrix:
 Charge =  0 Multiplicity = 1

                         Standard orientation:
 ---------------------------------------------------------------------
 Center     Atomic      Atomic             Coordinates (Angstroms)
 Number     Number       Type             X           Y           Z
 ---------------------------------------------------------------------
      1          6           0        0.659845    0.016380   -0.005226
      2          8           0       -0.731204   -0.143069    0.004088
      3          1           0        1.022873    0.524622    0.836005
      4          1           0        0.908242    0.587263   -0.825557
      5          1           0        1.065186   -0.941673   -0.033978
      6          1           0       -1.105738    0.876063    0.022178
 ---------------------------------------------------------------------

 SCF Done:  E(RB2PLYPD3) =  -115.532140901     A.U. after   11 cycles
 E2(B2PLYPD3) =    -0.1488578603D+00 E(B2PLYPD3) =    -0.11568099876084D+03

 The electronic state is 1-A.
 Alpha  occ. eigenvalues --  -19.73219 -10.63472  -1.14812  -0.78722  -0.58046
 Alpha  occ. eigenvalues --   -0.52738  -0.49788  -0.41333  -0.34824
 Alpha virt. eigenvalues --    0.03831   0.08190   0.12500   0.12692   0.15046
 Alpha virt. eigenvalues --    0.17460   0.17777   0.29149   0.30541   0.33053
 Alpha virt. eigenvalues --    0.34867   0.39607   0.40181   0.42251   0.44602

 Mulliken charges:
               1
     1  C    0.087107
     2  O   -0.479262
     3  H    0.037955
     4  H    0.040350
     5  H    0.068516
     6  H    0.245334
 Sum of Mulliken charges =   0.00000

 Dipole moment (field-independent basis, Debye):
    X=              0.9307    Y=              1.6382    Z=              0.0120  Tot=              1.8842
 Quadrupole moment (field-independent basis, Debye-Ang):
   XX=            -13.3031   YY=            -11.7383   ZZ=            -13.8510
   XY=             -2.2992   XZ=              0.0402   YZ=              0.0058

 Normal termination of Gaussian 09 at Wed Aug 26 14:55:17 2020.
