 Gaussian 09, Revision D.01,
 Gaussian 09:  ES64L-G09RevD.01 24-Apr-2013

 --------------------
 #p B2PLYPD3/Def2QZVP
 --------------------

 --------
 methanol
 --------
 Symbolic Z-matrix:
 Charge =  0 Multiplicity = 1

                         Standard orientation:
 ---------------------------------------------------------------------
 Center     Atomic      Atomic             Coordinates (Angstroms)
 Number     Number       Type             X           Y           Z
 ---------------------------------------------------------------------
      1          6           0       -0.658456    0.043651   -0.012472
      2          8           0        0.724682   -0.154446    0.005184
      3          1           0       -0.978111    0.420936   -0.812962
      4          1           0       -0.835065    0.612058    0.829538
      5          1           0       -1.094862   -0.952449    0.092566
      6          1           0        1.061317    0.893119   -0.075784
 ---------------------------------------------------------------------

 SCF Done:  E(RB2PLYPD3) =  -115.510126299     A.U. after   11 cycles
 E2(B2PLYPD3) =    -0.1492133826D+00 E(B2PLYPD3) =    -0.11565933968144D+03

 The electronic state is 1-A.
 Alpha  occ. eigenvalues --  -19.73210 -10.62759  -1.14920  -0.79122  -0.57686
 Alpha  occ. eigenvalues --   -0.55112  -0.48852  -0.40706  -0.35169
 Alpha virt. eigenvalues --    0.03652   0.08272   0.12418   0.12516   0.14746
 Alpha virt. eigenvalues --    0.17650   0.17920   0.28799   0.29789   0.32924
 Alpha virt. eigenvalues --    0.35098   0.38547   0.40338   0.43175   0.45971

 Mulliken charges:
               1
     1  C    0.085119
     2  O   -0.475141
     3  H    0.046531
     4  H    0.046403
     5  H    0.054439
     6  H    0.242649
 Sum of Mulliken charges =   0.00000

 Dipole moment (field-independent basis, Debye):
    X=             -0.9979    Y=              1.7007    Z=             -0.1832  Tot=              1.9803
 Quadrupole moment (field-independent basis, Debye-Ang):
   XX=            -13.5446   YY=            -11.7854   ZZ=            -13.6014
   XY=              2.2110   XZ=              0.0581   YZ=             -0.1407

 Normal termination of Gaussian 09 at Wed Aug 26 23:53:01 2020.
