 Gaussian 09, Revision D.01,
 Gaussian 09:  ES64L-G09RevD.01 24-Apr-2013

 --------------------
 #p B2PLYPD3/Def2QZVP
 --------------------

 --------
 methanol
 --------
 Symbolic Z-matrix:
 Charge =  0 Multiplicity = 1

                         Standard orientation:
 ---------------------------------------------------------------------
 Center     Atomic      Atomic             Coordinates (Angstroms)
 Number     Number       Type             X           Y           Z
 ---------------------------------------------------------------------
      1          6           0        0.647162    0.018483   -0.034537
      2          8           0       -0.742706   -0.176985    0.027712
      3          1           0        1.095322    0.652937    0.789091
      4          1           0        0.975433    0.415664   -0.772650
      5          1           0        1.189852   -0.819416    0.063115
      6          1           0       -1.201934    1.055793   -0.094033
 ---------------------------------------------------------------------

 SCF Done:  E(RB2PLYPD3) =  -115.442617327     A.U. after   11 cycles
 E2(B2PLYPD3) =    -0.1538884835D+00 E(B2PLYPD3) =    -0.11559650581057D+03

 The electronic state is 1-A.
 Alpha  occ. eigenvalues --  -19.75417 -10.62425  -1.12787  -0.80512  -0.55865
 Alpha  occ. eigenvalues --   -0.51244  -0.50353  -0.40022  -0.34952
 Alpha virt. eigenvalues --   -0.00093   0.07309   0.12859   0.12934   0.14811
 Alpha virt. eigenvalues --    0.18392   0.18502   0.23263   0.29716   0.33116
 Alpha virt. eigenvalues --    0.34586   0.38086   0.40140   0.41227   0.44869

 Mulliken charges:
               1
     1  C    0.083218
     2  O   -0.478955
     3  H    0.025041
     4  H    0.059746
     5  H    0.055679
     6  H    0.255271
 Sum of Mulliken charges =   0.00000

 Dipole moment (field-independent basis, Debye):
    X=              0.9153    Y=              1.7102    Z=             -0.3651  Tot=              1.9738
 Quadrupole moment (field-independent basis, Debye-Ang):
   XX=            -12.7972   YY=            -11.7072   ZZ=            -14.0954
   XY=             -2.6150   XZ=              0.0737   YZ=             -0.3071

 Normal termination of Gaussian 09 at Wed Aug 26 20:41:36 2020.
