 Gaussian 09, Revision D.01,
 Gaussian 09:  ES64L-G09RevD.01 24-Apr-2013

 --------------------
 #p B2PLYPD3/Def2QZVP
 --------------------

 --------
 methanol
 --------
 Symbolic Z-matrix:
 Charge =  0 Multiplicity = 1

                         Standard orientation:
 ---------------------------------------------------------------------
 Center     Atomic      Atomic             Coordinates (Angstroms)
 Number     Number       Type             X           Y           Z
 ---------------------------------------------------------------------
      1          6           0       -0.693417    0.016503    0.000497
      2          8           0        0.750261   -0.135404   -0.005814
      3          1           0       -0.968486    0.612017   -0.856145
      4          1           0       -1.093938    0.352693    0.921678
      5          1           0       -0.915634   -0.895543   -0.117471
      6          1           0        1.136473    0.915052    0.095469
 ---------------------------------------------------------------------

 SCF Done:  E(RB2PLYPD3) =  -115.510485821     A.U. after   11 cycles
 E2(B2PLYPD3) =    -0.1506741566D+00 E(B2PLYPD3) =    -0.11566115997757D+03

 The electronic state is 1-A.
 Alpha  occ. eigenvalues --  -19.73452 -10.63444  -1.12657  -0.79402  -0.56841
 Alpha  occ. eigenvalues --   -0.52500  -0.48423  -0.41488  -0.35240
 Alpha virt. eigenvalues --    0.03625   0.07907   0.12291   0.12799   0.14594
 Alpha virt. eigenvalues --    0.16659   0.18539   0.28249   0.30260   0.32587
 Alpha virt. eigenvalues --    0.33865   0.37960   0.40384   0.42122   0.43859

 Mulliken charges:
               1
     1  C    0.062444
     2  O   -0.497959
     3  H    0.051880
     4  H    0.054573
     5  H    0.085154
     6  H    0.243907
 Sum of Mulliken charges =   0.00000

 Dipole moment (field-independent basis, Debye):
    X=             -1.0836    Y=              1.5409    Z=              0.1501  Tot=              1.8898
 Quadrupole moment (field-independent basis, Debye-Ang):
   XX=            -13.3242   YY=            -11.8242   ZZ=            -13.6130
   XY=              2.2721   XZ=              0.0831   YZ=              0.1319

 Normal termination of Gaussian 09 at Wed Aug 26 18:57:13 2020.
