 Gaussian 09, Revision D.01,
 Gaussian 09:  ES64L-G09RevD.01 24-Apr-2013

 --------------------
 #p B2PLYPD3/Def2QZVP
 --------------------

 --------
 methanol
 --------
 Symbolic Z-matrix:
 Charge =  0 Multiplicity = 1

                         Standard orientation:
 ---------------------------------------------------------------------
 Center     Atomic      Atomic             Coordinates (Angstroms)
 Number     Number       Type             X           Y           Z
 ---------------------------------------------------------------------
      1          6           0       -0.668408   -0.015735   -0.001143
      2          8           0        0.740616    0.093326   -0.003479
      3          1           0       -1.061701   -0.487432    0.947915
      4          1           0       -0.971046   -0.687775   -0.873343
      5          1           0       -1.075831    1.068732   -0.097800
      6          1           0        1.194097   -0.545726    0.057919
 ---------------------------------------------------------------------

 SCF Done:  E(RB2PLYPD3) =  -115.502518083     A.U. after   10 cycles
 E2(B2PLYPD3) =    -0.1448011368D+00 E(B2PLYPD3) =    -0.11564731921947D+03

 The electronic state is 1-A.
 Alpha  occ. eigenvalues --  -19.70354 -10.67887  -1.20322  -0.80457  -0.60916
 Alpha  occ. eigenvalues --   -0.51345  -0.50023  -0.40034  -0.35397
 Alpha virt. eigenvalues --    0.05382   0.08847   0.11928   0.12168   0.14722
 Alpha virt. eigenvalues --    0.16852   0.17638   0.29106   0.32601   0.33397
 Alpha virt. eigenvalues --    0.37076   0.38758   0.39452   0.39841   0.42194

 Mulliken charges:
               1
     1  C    0.062936
     2  O   -0.344552
     3  H    0.049731
     4  H    0.047696
     5  H    0.079560
     6  H    0.104629
 Sum of Mulliken charges =   0.00000

 Dipole moment (field-independent basis, Debye):
    X=             -0.7254    Y=             -1.2757    Z=              0.1334  Tot=              1.4736
 Quadrupole moment (field-independent basis, Debye-Ang):
   XX=            -12.7340   YY=            -12.5272   ZZ=            -13.7570
   XY=             -2.0668   XZ=              0.0922   YZ=             -0.0755

 Normal termination of Gaussian 09 at Wed Aug 26 11:40:27 2020.
