 Gaussian 09, Revision D.01,
 Gaussian 09:  ES64L-G09RevD.01 24-Apr-2013

 --------------------
 #p B2PLYPD3/Def2QZVP
 --------------------

 --------
 methanol
 --------
 Symbolic Z-matrix:
 Charge =  0 Multiplicity = 1

                         Standard orientation:
 ---------------------------------------------------------------------
 Center     Atomic      Atomic             Coordinates (Angstroms)
 Number     Number       Type             X           Y           Z
 ---------------------------------------------------------------------
      1          6           0       -0.668585    0.015489   -0.004034
      2          8           0        0.753229   -0.135978   -0.005690
      3          1           0       -1.061928    0.571051   -0.848541
      4          1           0       -1.047780    0.479351    0.900602
      5          1           0       -1.072002   -0.917655   -0.017874
      6          1           0        1.167388    0.862141    0.035538
 ---------------------------------------------------------------------

 SCF Done:  E(RB2PLYPD3) =  -115.535712945     A.U. after   11 cycles
 E2(B2PLYPD3) =    -0.1494882394D+00 E(B2PLYPD3) =    -0.11568520118470D+03

 The electronic state is 1-A.
 Alpha  occ. eigenvalues --  -19.73643 -10.64555  -1.13824  -0.78802  -0.56946
 Alpha  occ. eigenvalues --   -0.51377  -0.49972  -0.41148  -0.35222
 Alpha virt. eigenvalues --    0.03999   0.07786   0.12475   0.12742   0.14870
 Alpha virt. eigenvalues --    0.17345   0.18394   0.28898   0.30774   0.33501
 Alpha virt. eigenvalues --    0.33669   0.38698   0.40525   0.40969   0.43611

 Mulliken charges:
               1
     1  C    0.074604
     2  O   -0.485744
     3  H    0.046009
     4  H    0.044362
     5  H    0.071025
     6  H    0.249743
 Sum of Mulliken charges =   0.00000

 Dipole moment (field-independent basis, Debye):
    X=             -0.9255    Y=              1.5588    Z=              0.0698  Tot=              1.8142
 Quadrupole moment (field-independent basis, Debye-Ang):
   XX=            -12.9287   YY=            -12.0463   ZZ=            -13.8877
   XY=              2.4097   XZ=              0.0984   YZ=              0.0210

 Normal termination of Gaussian 09 at Wed Aug 26 10:33:00 2020.
