 Gaussian 09, Revision D.01,
 Gaussian 09:  ES64L-G09RevD.01 24-Apr-2013

 --------------------
 #p B2PLYPD3/Def2QZVP
 --------------------

 --------
 methanol
 --------
 Symbolic Z-matrix:
 Charge =  0 Multiplicity = 1

                         Standard orientation:
 ---------------------------------------------------------------------
 Center     Atomic      Atomic             Coordinates (Angstroms)
 Number     Number       Type             X           Y           Z
 ---------------------------------------------------------------------
      1          6           0        0.663789    0.002282    0.006060
      2          8           0       -0.751448   -0.141423   -0.013772
      3          1           0        1.050987    0.450071    0.871375
      4          1           0        0.989339    0.641883   -0.854819
      5          1           0        1.108002   -0.870268   -0.050692
      6          1           0       -1.119480    0.896010    0.107959
 ---------------------------------------------------------------------

 SCF Done:  E(RB2PLYPD3) =  -115.523222252     A.U. after   11 cycles
 E2(B2PLYPD3) =    -0.1498195565D+00 E(B2PLYPD3) =    -0.11567304180846D+03

 The electronic state is 1-A.
 Alpha  occ. eigenvalues --  -19.73826 -10.64073  -1.13851  -0.79143  -0.56814
 Alpha  occ. eigenvalues --   -0.51587  -0.50398  -0.41360  -0.34927
 Alpha virt. eigenvalues --    0.03574   0.07843   0.12406   0.12845   0.14777
 Alpha virt. eigenvalues --    0.17788   0.18202   0.28704   0.30022   0.32888
 Alpha virt. eigenvalues --    0.34029   0.38612   0.40478   0.41842   0.43626

 Mulliken charges:
               1
     1  C    0.082118
     2  O   -0.483516
     3  H    0.040666
     4  H    0.035824
     5  H    0.071576
     6  H    0.253332
 Sum of Mulliken charges =   0.00000

 Dipole moment (field-independent basis, Debye):
    X=              0.9824    Y=              1.5606    Z=              0.2596  Tot=              1.8622
 Quadrupole moment (field-independent basis, Debye-Ang):
   XX=            -13.1391   YY=            -11.9029   ZZ=            -13.8997
   XY=             -2.4541   XZ=             -0.1094   YZ=              0.1883

 Normal termination of Gaussian 09 at Wed Aug 26 14:36:40 2020.
