 Gaussian 09, Revision D.01,
 Gaussian 09:  ES64L-G09RevD.01 24-Apr-2013

 --------------------
 #p B2PLYPD3/Def2QZVP
 --------------------

 --------
 methanol
 --------
 Symbolic Z-matrix:
 Charge =  0 Multiplicity = 1

                         Standard orientation:
 ---------------------------------------------------------------------
 Center     Atomic      Atomic             Coordinates (Angstroms)
 Number     Number       Type             X           Y           Z
 ---------------------------------------------------------------------
      1          6           0        0.668865    0.022882    0.007400
      2          8           0       -0.741749   -0.139491   -0.011182
      3          1           0        1.004249    0.422419    0.890160
      4          1           0        1.046102    0.633189   -0.807362
      5          1           0        1.047191   -0.942809   -0.085352
      6          1           0       -1.176739    0.865839    0.047615
 ---------------------------------------------------------------------

 SCF Done:  E(RB2PLYPD3) =  -115.532769000     A.U. after   11 cycles
 E2(B2PLYPD3) =    -0.1494563856D+00 E(B2PLYPD3) =    -0.11568222538541D+03

 The electronic state is 1-A.
 Alpha  occ. eigenvalues --  -19.73479 -10.64031  -1.13844  -0.78745  -0.57239
 Alpha  occ. eigenvalues --   -0.52128  -0.49499  -0.40951  -0.35161
 Alpha virt. eigenvalues --    0.03842   0.07910   0.12513   0.12689   0.15006
 Alpha virt. eigenvalues --    0.17167   0.18242   0.28906   0.30452   0.33525
 Alpha virt. eigenvalues --    0.34127   0.38931   0.39901   0.41881   0.44295

 Mulliken charges:
               1
     1  C    0.079077
     2  O   -0.487856
     3  H    0.049786
     4  H    0.042029
     5  H    0.068673
     6  H    0.248291
 Sum of Mulliken charges =   0.00000

 Dipole moment (field-independent basis, Debye):
    X=              0.8939    Y=              1.5994    Z=              0.1430  Tot=              1.8378
 Quadrupole moment (field-independent basis, Debye-Ang):
   XX=            -12.9734   YY=            -11.9581   ZZ=            -13.8437
   XY=             -2.3554   XZ=             -0.1064   YZ=              0.0990

 Normal termination of Gaussian 09 at Thu Aug 27 00:11:26 2020.
