 Gaussian 09, Revision D.01,
 Gaussian 09:  ES64L-G09RevD.01 24-Apr-2013

 --------------------
 #p B2PLYPD3/Def2QZVP
 --------------------

 --------
 methanol
 --------
 Symbolic Z-matrix:
 Charge =  0 Multiplicity = 1

                         Standard orientation:
 ---------------------------------------------------------------------
 Center     Atomic      Atomic             Coordinates (Angstroms)
 Number     Number       Type             X           Y           Z
 ---------------------------------------------------------------------
      1          6           0        0.670820   -0.005876   -0.001116
      2          8           0       -0.748123    0.097230   -0.015839
      3          1           0        1.024508   -0.729731   -0.826909
      4          1           0        1.025497   -0.382121    0.998355
      5          1           0        1.035689    0.999713   -0.143317
      6          1           0       -1.125633   -0.630453    0.105277
 ---------------------------------------------------------------------

 SCF Done:  E(RB2PLYPD3) =  -115.529402160     A.U. after   10 cycles
 E2(B2PLYPD3) =    -0.1453003759D+00 E(B2PLYPD3) =    -0.11567470253584D+03

 The electronic state is 1-A.
 Alpha  occ. eigenvalues --  -19.71048 -10.66874  -1.19180  -0.79818  -0.60052
 Alpha  occ. eigenvalues --   -0.51262  -0.50586  -0.41211  -0.35410
 Alpha virt. eigenvalues --    0.05363   0.08770   0.12012   0.12358   0.14708
 Alpha virt. eigenvalues --    0.16937   0.17844   0.29042   0.32888   0.33125
 Alpha virt. eigenvalues --    0.37321   0.39326   0.39648   0.40180   0.43091

 Mulliken charges:
               1
     1  C    0.065941
     2  O   -0.387535
     3  H    0.044465
     4  H    0.047325
     5  H    0.082132
     6  H    0.147672
 Sum of Mulliken charges =   0.00000

 Dipole moment (field-independent basis, Debye):
    X=              0.8760    Y=             -1.2992    Z=              0.2466  Tot=              1.5862
 Quadrupole moment (field-independent basis, Debye-Ang):
   XX=            -13.0899   YY=            -12.3476   ZZ=            -13.6786
   XY=              2.1202   XZ=             -0.3032   YZ=             -0.1536

 Normal termination of Gaussian 09 at Thu Aug 27 01:14:45 2020.
