 Gaussian 09, Revision D.01,
 Gaussian 09:  ES64L-G09RevD.01 24-Apr-2013

 --------------------
 #p B2PLYPD3/Def2QZVP
 --------------------

 --------
 methanol
 --------
 Symbolic Z-matrix:
 Charge =  0 Multiplicity = 1

                         Standard orientation:
 ---------------------------------------------------------------------
 Center     Atomic      Atomic             Coordinates (Angstroms)
 Number     Number       Type             X           Y           Z
 ---------------------------------------------------------------------
      1          6           0        0.682444    0.041616   -0.008770
      2          8           0       -0.742872   -0.167176    0.015154
      3          1           0        1.055250    0.559193    0.804151
      4          1           0        1.012465    0.476917   -0.784071
      5          1           0        1.050275   -0.935948   -0.017832
      6          1           0       -1.269677    0.987550   -0.070854
 ---------------------------------------------------------------------

 SCF Done:  E(RB2PLYPD3) =  -115.477656348     A.U. after   11 cycles
 E2(B2PLYPD3) =    -0.1530808254D+00 E(B2PLYPD3) =    -0.11563073717359D+03

 The electronic state is 1-A.
 Alpha  occ. eigenvalues --  -19.74560 -10.62659  -1.11507  -0.79770  -0.55730
 Alpha  occ. eigenvalues --   -0.52786  -0.48177  -0.40241  -0.35346
 Alpha virt. eigenvalues --    0.01356   0.07525   0.12396   0.12983   0.15039
 Alpha virt. eigenvalues --    0.17032   0.18373   0.24782   0.29375   0.33602
 Alpha virt. eigenvalues --    0.33871   0.38588   0.39274   0.42734   0.45172

 Mulliken charges:
               1
     1  C    0.090167
     2  O   -0.498933
     3  H    0.048721
     4  H    0.051663
     5  H    0.063721
     6  H    0.244661
 Sum of Mulliken charges =   0.00000

 Dipole moment (field-independent basis, Debye):
    X=              0.9799    Y=              1.7185    Z=             -0.2001  Tot=              1.9883
 Quadrupole moment (field-independent basis, Debye-Ang):
   XX=            -12.7068   YY=            -11.7205   ZZ=            -13.9474
   XY=             -2.4059   XZ=              0.1011   YZ=             -0.1085

 Normal termination of Gaussian 09 at Wed Aug 26 11:33:45 2020.
