 Gaussian 09, Revision D.01,
 Gaussian 09:  ES64L-G09RevD.01 24-Apr-2013

 --------------------
 #p B2PLYPD3/Def2QZVP
 --------------------

 --------
 methanol
 --------
 Symbolic Z-matrix:
 Charge =  0 Multiplicity = 1

                         Standard orientation:
 ---------------------------------------------------------------------
 Center     Atomic      Atomic             Coordinates (Angstroms)
 Number     Number       Type             X           Y           Z
 ---------------------------------------------------------------------
      1          6           0        0.672478   -0.010933   -0.019191
      2          8           0       -0.738910    0.077418    0.012556
      3          1           0        0.958092   -0.573931   -0.948784
      4          1           0        1.116381   -0.491725    1.002360
      5          1           0        0.906969    1.076671   -0.050349
      6          1           0       -1.105025   -0.564759    0.011470
 ---------------------------------------------------------------------

 SCF Done:  E(RB2PLYPD3) =  -115.462435987     A.U. after   11 cycles
 E2(B2PLYPD3) =    -0.1444323938D+00 E(B2PLYPD3) =    -0.11560686838060D+03

 The electronic state is 1-A.
 Alpha  occ. eigenvalues --  -19.69868 -10.67888  -1.22410  -0.81035  -0.60678
 Alpha  occ. eigenvalues --   -0.51668  -0.49959  -0.40837  -0.35651
 Alpha virt. eigenvalues --    0.05369   0.09075   0.11742   0.12038   0.14476
 Alpha virt. eigenvalues --    0.16398   0.17967   0.28878   0.32579   0.32957
 Alpha virt. eigenvalues --    0.35911   0.39049   0.39525   0.40754   0.43213

 Mulliken charges:
               1
     1  C    0.045434
     2  O   -0.280305
     3  H    0.057379
     4  H    0.042784
     5  H    0.084471
     6  H    0.050238
 Sum of Mulliken charges =   0.00000

 Dipole moment (field-independent basis, Debye):
    X=              0.7940    Y=             -1.2114    Z=             -0.1035  Tot=              1.4521
 Quadrupole moment (field-independent basis, Debye-Ang):
   XX=            -13.3158   YY=            -12.4385   ZZ=            -13.4880
   XY=              1.8758   XZ=              0.0297   YZ=              0.0813

 Normal termination of Gaussian 09 at Wed Aug 26 23:54:14 2020.
