 Gaussian 09, Revision D.01,
 Gaussian 09:  ES64L-G09RevD.01 24-Apr-2013

 --------------------
 #p B2PLYPD3/Def2QZVP
 --------------------

 --------
 methanol
 --------
 Symbolic Z-matrix:
 Charge =  0 Multiplicity = 1

                         Standard orientation:
 ---------------------------------------------------------------------
 Center     Atomic      Atomic             Coordinates (Angstroms)
 Number     Number       Type             X           Y           Z
 ---------------------------------------------------------------------
      1          6           0        0.667143   -0.025404   -0.016559
      2          8           0       -0.746747    0.087548    0.003970
      3          1           0        0.996713   -0.602810   -0.873710
      4          1           0        1.093170   -0.488878    0.951636
      5          1           0        0.999948    1.117797   -0.042961
      6          1           0       -1.118709   -0.574071    0.032628
 ---------------------------------------------------------------------

 SCF Done:  E(RB2PLYPD3) =  -115.483349790     A.U. after   10 cycles
 E2(B2PLYPD3) =    -0.1446106815D+00 E(B2PLYPD3) =    -0.11562796047188D+03

 The electronic state is 1-A.
 Alpha  occ. eigenvalues --  -19.70354 -10.67700  -1.21669  -0.80448  -0.61431
 Alpha  occ. eigenvalues --   -0.51915  -0.49106  -0.40716  -0.35958
 Alpha virt. eigenvalues --    0.05359   0.08999   0.11617   0.12166   0.14892
 Alpha virt. eigenvalues --    0.16657   0.17912   0.28934   0.32782   0.33295
 Alpha virt. eigenvalues --    0.36313   0.38470   0.40394   0.40591   0.42097

 Mulliken charges:
               1
     1  C    0.052381
     2  O   -0.306689
     3  H    0.061005
     4  H    0.048296
     5  H    0.071209
     6  H    0.073799
 Sum of Mulliken charges =   0.00000

 Dipole moment (field-independent basis, Debye):
    X=              0.8322    Y=             -1.3436    Z=             -0.0032  Tot=              1.5805
 Quadrupole moment (field-independent basis, Debye-Ang):
   XX=            -13.1032   YY=            -12.4063   ZZ=            -13.6494
   XY=              1.8390   XZ=             -0.0652   YZ=              0.0650

 Normal termination of Gaussian 09 at Wed Aug 26 11:14:52 2020.
