 Gaussian 09, Revision D.01,
 Gaussian 09:  ES64L-G09RevD.01 24-Apr-2013

 --------------------
 #p B2PLYPD3/Def2QZVP
 --------------------

 --------
 methanol
 --------
 Symbolic Z-matrix:
 Charge =  0 Multiplicity = 1

                         Standard orientation:
 ---------------------------------------------------------------------
 Center     Atomic      Atomic             Coordinates (Angstroms)
 Number     Number       Type             X           Y           Z
 ---------------------------------------------------------------------
      1          6           0       -0.664717    0.025927    0.001350
      2          8           0        0.746995   -0.148276   -0.002967
      3          1           0       -1.055197    0.529454   -0.837170
      4          1           0       -0.965757    0.561372    0.844596
      5          1           0       -1.149788   -0.926550    0.023275
      6          1           0        1.183083    0.866368   -0.015067
 ---------------------------------------------------------------------

 SCF Done:  E(RB2PLYPD3) =  -115.532183932     A.U. after   11 cycles
 E2(B2PLYPD3) =    -0.1496298754D+00 E(B2PLYPD3) =    -0.11568181380724D+03

 The electronic state is 1-A.
 Alpha  occ. eigenvalues --  -19.73674 -10.64226  -1.13709  -0.78708  -0.56822
 Alpha  occ. eigenvalues --   -0.52143  -0.49639  -0.40743  -0.35178
 Alpha virt. eigenvalues --    0.03706   0.07747   0.12622   0.12686   0.14835
 Alpha virt. eigenvalues --    0.17719   0.18151   0.28827   0.30064   0.33248
 Alpha virt. eigenvalues --    0.33996   0.39404   0.39879   0.41878   0.43740

 Mulliken charges:
               1
     1  C    0.083336
     2  O   -0.489560
     3  H    0.044312
     4  H    0.045144
     5  H    0.064777
     6  H    0.251991
 Sum of Mulliken charges =   0.00000

 Dipole moment (field-independent basis, Debye):
    X=             -0.9007    Y=              1.6527    Z=             -0.0078  Tot=              1.8822
 Quadrupole moment (field-independent basis, Debye-Ang):
   XX=            -12.8401   YY=            -12.0285   ZZ=            -13.9214
   XY=              2.4472   XZ=              0.0333   YZ=             -0.0064

 Normal termination of Gaussian 09 at Thu Aug 27 00:15:09 2020.
