 Gaussian 09, Revision D.01,
 Gaussian 09:  ES64L-G09RevD.01 24-Apr-2013

 --------------------
 #p B2PLYPD3/Def2QZVP
 --------------------

 --------
 methanol
 --------
 Symbolic Z-matrix:
 Charge =  0 Multiplicity = 1

                         Standard orientation:
 ---------------------------------------------------------------------
 Center     Atomic      Atomic             Coordinates (Angstroms)
 Number     Number       Type             X           Y           Z
 ---------------------------------------------------------------------
      1          6           0       -0.664173   -0.011556   -0.003402
      2          8           0        0.742723    0.094377   -0.006859
      3          1           0       -1.047161   -0.441987    0.967057
      4          1           0       -0.940760   -0.688488   -0.875881
      5          1           0       -1.040268    1.038931   -0.110289
      6          1           0        1.071448   -0.594133    0.094394
 ---------------------------------------------------------------------

 SCF Done:  E(RB2PLYPD3) =  -115.496786584     A.U. after   10 cycles
 E2(B2PLYPD3) =    -0.1444008654D+00 E(B2PLYPD3) =    -0.11564118744987D+03

 The electronic state is 1-A.
 Alpha  occ. eigenvalues --  -19.70374 -10.67155  -1.21702  -0.80249  -0.60914
 Alpha  occ. eigenvalues --   -0.52031  -0.50246  -0.41360  -0.35588
 Alpha virt. eigenvalues --    0.05388   0.09121   0.11990   0.12105   0.14661
 Alpha virt. eigenvalues --    0.16954   0.17634   0.28902   0.32551   0.33542
 Alpha virt. eigenvalues --    0.37754   0.38719   0.39822   0.40550   0.43036

 Mulliken charges:
               1
     1  C    0.060976
     2  O   -0.320021
     3  H    0.046328
     4  H    0.047256
     5  H    0.078460
     6  H    0.087000
 Sum of Mulliken charges =   0.00000

 Dipole moment (field-independent basis, Debye):
    X=             -0.8990    Y=             -1.2896    Z=              0.2018  Tot=              1.5849
 Quadrupole moment (field-independent basis, Debye-Ang):
   XX=            -13.3260   YY=            -12.3232   ZZ=            -13.5874
   XY=             -2.0124   XZ=              0.1581   YZ=             -0.1204

 Normal termination of Gaussian 09 at Wed Aug 26 11:59:21 2020.
