 Gaussian 09, Revision D.01,
 Gaussian 09:  ES64L-G09RevD.01 24-Apr-2013

 --------------------
 #p B2PLYPD3/Def2QZVP
 --------------------

 --------
 methanol
 --------
 Symbolic Z-matrix:
 Charge =  0 Multiplicity = 1

                         Standard orientation:
 ---------------------------------------------------------------------
 Center     Atomic      Atomic             Coordinates (Angstroms)
 Number     Number       Type             X           Y           Z
 ---------------------------------------------------------------------
      1          6           0        0.660247   -0.013287    0.002003
      2          8           0       -0.742276    0.102098   -0.012675
      3          1           0        1.020296   -0.672707   -0.852099
      4          1           0        0.982723   -0.423543    0.982309
      5          1           0        1.054080    1.007078   -0.104598
      6          1           0       -1.080372   -0.647888    0.063765
 ---------------------------------------------------------------------

 SCF Done:  E(RB2PLYPD3) =  -115.530142123     A.U. after   10 cycles
 E2(B2PLYPD3) =    -0.1450573168D+00 E(B2PLYPD3) =    -0.11567519943946D+03

 The electronic state is 1-A.
 Alpha  occ. eigenvalues --  -19.71121 -10.66543  -1.19989  -0.79638  -0.60380
 Alpha  occ. eigenvalues --   -0.51944  -0.50511  -0.41295  -0.35520
 Alpha virt. eigenvalues --    0.05360   0.08907   0.12053   0.12344   0.14689
 Alpha virt. eigenvalues --    0.17118   0.17844   0.28949   0.32987   0.33599
 Alpha virt. eigenvalues --    0.37507   0.39235   0.39959   0.40436   0.43574

 Mulliken charges:
               1
     1  C    0.064106
     2  O   -0.375983
     3  H    0.043919
     4  H    0.047955
     5  H    0.075301
     6  H    0.144702
 Sum of Mulliken charges =   0.00000

 Dipole moment (field-independent basis, Debye):
    X=              0.8819    Y=             -1.3450    Z=              0.1634  Tot=              1.6166
 Quadrupole moment (field-independent basis, Debye-Ang):
   XX=            -13.2744   YY=            -12.3232   ZZ=            -13.6174
   XY=              2.0911   XZ=             -0.2142   YZ=             -0.0962

 Normal termination of Gaussian 09 at Thu Aug 27 00:13:59 2020.
