 Gaussian 09, Revision D.01,
 Gaussian 09:  ES64L-G09RevD.01 24-Apr-2013

 --------------------
 #p B2PLYPD3/Def2QZVP
 --------------------

 --------
 methanol
 --------
 Symbolic Z-matrix:
 Charge =  0 Multiplicity = 1

                         Standard orientation:
 ---------------------------------------------------------------------
 Center     Atomic      Atomic             Coordinates (Angstroms)
 Number     Number       Type             X           Y           Z
 ---------------------------------------------------------------------
      1          6           0        0.663915   -0.022635   -0.002215
      2          8           0       -0.751095    0.112161    0.000365
      3          1           0        0.969958   -0.613865   -0.889481
      4          1           0        1.045277   -0.475628    0.948971
      5          1           0        1.124728    0.992374   -0.077216
      6          1           0       -1.114690   -0.664358    0.028096
 ---------------------------------------------------------------------

 SCF Done:  E(RB2PLYPD3) =  -115.540460004     A.U. after   10 cycles
 E2(B2PLYPD3) =    -0.1457590035D+00 E(B2PLYPD3) =    -0.11568621900775D+03

 The electronic state is 1-A.
 Alpha  occ. eigenvalues --  -19.71567 -10.66652  -1.18610  -0.79220  -0.59798
 Alpha  occ. eigenvalues --   -0.51968  -0.50068  -0.40886  -0.35672
 Alpha virt. eigenvalues --    0.05323   0.08599   0.12111   0.12393   0.14520
 Alpha virt. eigenvalues --    0.17396   0.18004   0.28957   0.32950   0.33275
 Alpha virt. eigenvalues --    0.36852   0.38968   0.39786   0.40286   0.43666

 Mulliken charges:
               1
     1  C    0.065607
     2  O   -0.407980
     3  H    0.049726
     4  H    0.049648
     5  H    0.071280
     6  H    0.171719
 Sum of Mulliken charges =   0.00000

 Dipole moment (field-independent basis, Debye):
    X=              0.9051    Y=             -1.4027    Z=              0.0345  Tot=              1.6697
 Quadrupole moment (field-independent basis, Debye-Ang):
   XX=            -13.0611   YY=            -12.4479   ZZ=            -13.6510
   XY=              2.2094   XZ=             -0.0335   YZ=             -0.0194

 Normal termination of Gaussian 09 at Thu Aug 27 00:14:53 2020.
