 Gaussian 09, Revision D.01,
 Gaussian 09:  ES64L-G09RevD.01 24-Apr-2013

 --------------------
 #p B2PLYPD3/Def2QZVP
 --------------------

 --------
 methanol
 --------
 Symbolic Z-matrix:
 Charge =  0 Multiplicity = 1

                         Standard orientation:
 ---------------------------------------------------------------------
 Center     Atomic      Atomic             Coordinates (Angstroms)
 Number     Number       Type             X           Y           Z
 ---------------------------------------------------------------------
      1          6           0       -0.676492   -0.022579   -0.007388
      2          8           0        0.749496    0.074365   -0.027539
      3          1           0       -0.821280   -0.464679    1.091718
      4          1           0       -1.065147   -0.691663   -0.856979
      5          1           0       -1.129017    1.090602   -0.039269
      6          1           0        1.078431   -0.393708    0.069170
 ---------------------------------------------------------------------

 SCF Done:  E(RB2PLYPD3) =  -115.143964031     A.U. after   11 cycles
 E2(B2PLYPD3) =    -0.1432876802D+00 E(B2PLYPD3) =    -0.11528725171156D+03

 The electronic state is 1-A.
 Alpha  occ. eigenvalues --  -19.67991 -10.69684  -1.29166  -0.83253  -0.61738
 Alpha  occ. eigenvalues --   -0.52101  -0.50334  -0.40068  -0.36112
 Alpha virt. eigenvalues --    0.05104   0.09534   0.11562   0.11650   0.13773
 Alpha virt. eigenvalues --    0.16669   0.17518   0.28330   0.31117   0.32929
 Alpha virt. eigenvalues --    0.34904   0.37259   0.38206   0.40943   0.43680

 Mulliken charges:
               1
     1  C    0.057474
     2  O   -0.145645
     3  H    0.047306
     4  H    0.062938
     5  H    0.082297
     6  H   -0.104371
 Sum of Mulliken charges =   0.00000

 Dipole moment (field-independent basis, Debye):
    X=             -1.0133    Y=             -1.0672    Z=              0.1949  Tot=              1.4845
 Quadrupole moment (field-independent basis, Debye-Ang):
   XX=            -13.1558   YY=            -12.6049   ZZ=            -13.3188
   XY=             -1.8622   XZ=              0.6371   YZ=              0.0314

 Normal termination of Gaussian 09 at Wed Aug 26 19:40:13 2020.
