 Gaussian 09, Revision D.01,
 Gaussian 09:  ES64L-G09RevD.01 24-Apr-2013

 --------------------
 #p B2PLYPD3/Def2QZVP
 --------------------

 --------
 methanol
 --------
 Symbolic Z-matrix:
 Charge =  0 Multiplicity = 1

                         Standard orientation:
 ---------------------------------------------------------------------
 Center     Atomic      Atomic             Coordinates (Angstroms)
 Number     Number       Type             X           Y           Z
 ---------------------------------------------------------------------
      1          6           0       -0.675290    0.038799    0.015562
      2          8           0        0.739621   -0.153312   -0.012557
      3          1           0       -0.974079    0.608910   -0.827300
      4          1           0       -0.964988    0.457567    0.831748
      5          1           0       -1.125439   -0.940457   -0.056333
      6          1           0        1.199280    0.867680    0.058971
 ---------------------------------------------------------------------

 SCF Done:  E(RB2PLYPD3) =  -115.519109367     A.U. after   11 cycles
 E2(B2PLYPD3) =    -0.1497814017D+00 E(B2PLYPD3) =    -0.11566889076909D+03

 The electronic state is 1-A.
 Alpha  occ. eigenvalues --  -19.73400 -10.63489  -1.13169  -0.79189  -0.56742
 Alpha  occ. eigenvalues --   -0.53235  -0.49043  -0.40540  -0.35218
 Alpha virt. eigenvalues --    0.03586   0.07852   0.12524   0.12672   0.14831
 Alpha virt. eigenvalues --    0.17470   0.18066   0.28646   0.29861   0.33325
 Alpha virt. eigenvalues --    0.33752   0.39002   0.39806   0.42585   0.44759

 Mulliken charges:
               1
     1  C    0.088838
     2  O   -0.499015
     3  H    0.046065
     4  H    0.052138
     5  H    0.063033
     6  H    0.248942
 Sum of Mulliken charges =   0.00000

 Dipole moment (field-independent basis, Debye):
    X=             -0.9274    Y=              1.6739    Z=              0.1832  Tot=              1.9224
 Quadrupole moment (field-independent basis, Debye-Ang):
   XX=            -12.8777   YY=            -11.9825   ZZ=            -13.7614
   XY=              2.4312   XZ=              0.0767   YZ=              0.1350

 Normal termination of Gaussian 09 at Wed Aug 26 16:00:24 2020.
