 Gaussian 09, Revision D.01,
 Gaussian 09:  ES64L-G09RevD.01 24-Apr-2013

 --------------------
 #p B2PLYPD3/Def2QZVP
 --------------------

 --------
 methanol
 --------
 Symbolic Z-matrix:
 Charge =  0 Multiplicity = 1

                         Standard orientation:
 ---------------------------------------------------------------------
 Center     Atomic      Atomic             Coordinates (Angstroms)
 Number     Number       Type             X           Y           Z
 ---------------------------------------------------------------------
      1          6           0       -0.658397   -0.009227    0.030975
      2          8           0        0.751341    0.084594   -0.035112
      3          1           0       -1.025537   -0.212612    1.027138
      4          1           0       -1.128437   -0.825126   -0.781726
      5          1           0       -1.041914    0.995130   -0.310177
      6          1           0        1.135543   -0.578776    0.159814
 ---------------------------------------------------------------------

 SCF Done:  E(RB2PLYPD3) =  -115.502241620     A.U. after   11 cycles
 E2(B2PLYPD3) =    -0.1452099947D+00 E(B2PLYPD3) =    -0.11564745161433D+03

 The electronic state is 1-A.
 Alpha  occ. eigenvalues --  -19.71157 -10.67869  -1.20875  -0.80138  -0.61008
 Alpha  occ. eigenvalues --   -0.51296  -0.49997  -0.40661  -0.35718
 Alpha virt. eigenvalues --    0.05361   0.08647   0.11759   0.12210   0.14687
 Alpha virt. eigenvalues --    0.16915   0.18289   0.28712   0.32517   0.33301
 Alpha virt. eigenvalues --    0.35677   0.38685   0.39820   0.40760   0.42500

 Mulliken charges:
               1
     1  C    0.051367
     2  O   -0.335911
     3  H    0.063842
     4  H    0.031943
     5  H    0.076162
     6  H    0.112597
 Sum of Mulliken charges =   0.00000

 Dipole moment (field-independent basis, Debye):
    X=             -0.7744    Y=             -1.1530    Z=              0.5155  Tot=              1.4815
 Quadrupole moment (field-independent basis, Debye-Ang):
   XX=            -12.9715   YY=            -12.7637   ZZ=            -13.5471
   XY=             -2.0327   XZ=              0.4657   YZ=             -0.3630

 Normal termination of Gaussian 09 at Wed Aug 26 11:28:09 2020.
