 Gaussian 09, Revision D.01,
 Gaussian 09:  ES64L-G09RevD.01 24-Apr-2013

 --------------------
 #p B2PLYPD3/Def2QZVP
 --------------------

 --------
 methanol
 --------
 Symbolic Z-matrix:
 Charge =  0 Multiplicity = 1

                         Standard orientation:
 ---------------------------------------------------------------------
 Center     Atomic      Atomic             Coordinates (Angstroms)
 Number     Number       Type             X           Y           Z
 ---------------------------------------------------------------------
      1          6           0       -0.658949   -0.019830   -0.000246
      2          8           0        0.746600    0.106548   -0.005928
      3          1           0       -1.021811   -0.497259    0.948482
      4          1           0       -1.005821   -0.600757   -0.905286
      5          1           0       -1.112246    1.001245   -0.038806
      6          1           0        1.120774   -0.636631    0.044511
 ---------------------------------------------------------------------

 SCF Done:  E(RB2PLYPD3) =  -115.532501830     A.U. after   10 cycles
 E2(B2PLYPD3) =    -0.1452971277D+00 E(B2PLYPD3) =    -0.11567779895756D+03

 The electronic state is 1-A.
 Alpha  occ. eigenvalues --  -19.71329 -10.66880  -1.19552  -0.79529  -0.60314
 Alpha  occ. eigenvalues --   -0.51818  -0.50367  -0.40744  -0.35637
 Alpha virt. eigenvalues --    0.05372   0.08711   0.12088   0.12383   0.14577
 Alpha virt. eigenvalues --    0.17305   0.17992   0.28918   0.33047   0.33538
 Alpha virt. eigenvalues --    0.37029   0.39181   0.39747   0.40101   0.43352

 Mulliken charges:
               1
     1  C    0.062962
     2  O   -0.384972
     3  H    0.047763
     4  H    0.047901
     5  H    0.073059
     6  H    0.153287
 Sum of Mulliken charges =   0.00000

 Dipole moment (field-independent basis, Debye):
    X=             -0.8453    Y=             -1.3548    Z=              0.1024  Tot=              1.6001
 Quadrupole moment (field-independent basis, Debye-Ang):
   XX=            -13.0155   YY=            -12.5007   ZZ=            -13.6522
   XY=             -2.1805   XZ=              0.1089   YZ=             -0.0499

 Normal termination of Gaussian 09 at Thu Aug 27 00:07:44 2020.
