 Gaussian 09, Revision D.01,
 Gaussian 09:  ES64L-G09RevD.01 24-Apr-2013

 --------------------
 #p B2PLYPD3/Def2QZVP
 --------------------

 --------
 methanol
 --------
 Symbolic Z-matrix:
 Charge =  0 Multiplicity = 1

                         Standard orientation:
 ---------------------------------------------------------------------
 Center     Atomic      Atomic             Coordinates (Angstroms)
 Number     Number       Type             X           Y           Z
 ---------------------------------------------------------------------
      1          6           0        0.675865    0.001136    0.002956
      2          8           0       -0.760509   -0.086562   -0.030211
      3          1           0        1.047149    0.174737    1.073175
      4          1           0        1.038459    0.921350   -0.688395
      5          1           0        1.114010   -0.941679   -0.347080
      6          1           0       -1.170734    0.531270    0.186252
 ---------------------------------------------------------------------

 SCF Done:  E(RB2PLYPD3) =  -115.491439118     A.U. after   11 cycles
 E2(B2PLYPD3) =    -0.1450482600D+00 E(B2PLYPD3) =    -0.11563648737795D+03

 The electronic state is 1-A.
 Alpha  occ. eigenvalues --  -19.70503 -10.68339  -1.20397  -0.80419  -0.60453
 Alpha  occ. eigenvalues --   -0.50896  -0.50379  -0.40526  -0.35561
 Alpha virt. eigenvalues --    0.05357   0.08725   0.11707   0.12351   0.14353
 Alpha virt. eigenvalues --    0.17097   0.17828   0.28905   0.31837   0.32736
 Alpha virt. eigenvalues --    0.36289   0.38220   0.39156   0.40603   0.42414

 Mulliken charges:
               1
     1  C    0.063013
     2  O   -0.337325
     3  H    0.051708
     4  H    0.040492
     5  H    0.089275
     6  H    0.092836
 Sum of Mulliken charges =   0.00000

 Dipole moment (field-independent basis, Debye):
    X=              0.8906    Y=              1.1158    Z=              0.4530  Tot=              1.4978
 Quadrupole moment (field-independent basis, Debye-Ang):
   XX=            -12.7733   YY=            -12.6961   ZZ=            -13.6348
   XY=             -2.1142   XZ=             -0.6475   YZ=              0.3105

 Normal termination of Gaussian 09 at Wed Aug 26 13:25:08 2020.
