 Gaussian 09, Revision D.01,
 Gaussian 09:  ES64L-G09RevD.01 24-Apr-2013

 --------------------
 #p B2PLYPD3/Def2QZVP
 --------------------

 --------
 methanol
 --------
 Symbolic Z-matrix:
 Charge =  0 Multiplicity = 1

                         Standard orientation:
 ---------------------------------------------------------------------
 Center     Atomic      Atomic             Coordinates (Angstroms)
 Number     Number       Type             X           Y           Z
 ---------------------------------------------------------------------
      1          6           0       -0.675214   -0.015546   -0.001261
      2          8           0        0.747963    0.101492   -0.003314
      3          1           0       -1.031634   -0.515781    0.949059
      4          1           0       -1.003235   -0.587608   -0.921575
      5          1           0       -1.058177    1.008838   -0.027760
      6          1           0        1.160623   -0.624109    0.034354
 ---------------------------------------------------------------------

 SCF Done:  E(RB2PLYPD3) =  -115.532288792     A.U. after   10 cycles
 E2(B2PLYPD3) =    -0.1454195142D+00 E(B2PLYPD3) =    -0.11567770830633D+03

 The electronic state is 1-A.
 Alpha  occ. eigenvalues --  -19.70973 -10.66936  -1.18613  -0.79779  -0.59779
 Alpha  occ. eigenvalues --   -0.51497  -0.50345  -0.40670  -0.35511
 Alpha virt. eigenvalues --    0.05397   0.08694   0.12045   0.12369   0.14544
 Alpha virt. eigenvalues --    0.16957   0.17929   0.29040   0.32735   0.33148
 Alpha virt. eigenvalues --    0.37371   0.39493   0.39666   0.39950   0.42974

 Mulliken charges:
               1
     1  C    0.065845
     2  O   -0.399696
     3  H    0.049539
     4  H    0.050720
     5  H    0.080036
     6  H    0.153556
 Sum of Mulliken charges =   0.00000

 Dipole moment (field-independent basis, Debye):
    X=             -0.8547    Y=             -1.3252    Z=              0.0713  Tot=              1.5785
 Quadrupole moment (field-independent basis, Debye-Ang):
   XX=            -12.9226   YY=            -12.4654   ZZ=            -13.6251
   XY=             -2.1874   XZ=              0.0752   YZ=             -0.0348

 Normal termination of Gaussian 09 at Wed Aug 26 19:55:34 2020.
