 Gaussian 09, Revision D.01,
 Gaussian 09:  ES64L-G09RevD.01 24-Apr-2013

 --------------------
 #p B2PLYPD3/Def2QZVP
 --------------------

 --------
 methanol
 --------
 Symbolic Z-matrix:
 Charge =  0 Multiplicity = 1

                         Standard orientation:
 ---------------------------------------------------------------------
 Center     Atomic      Atomic             Coordinates (Angstroms)
 Number     Number       Type             X           Y           Z
 ---------------------------------------------------------------------
      1          6           0        0.650238    0.028908    0.001902
      2          8           0       -0.739787   -0.144307   -0.011086
      3          1           0        1.013856    0.444039    0.856729
      4          1           0        1.017998    0.616309   -0.803583
      5          1           0        1.101128   -0.962000   -0.043591
      6          1           0       -1.116111    0.882660    0.067719
 ---------------------------------------------------------------------

 SCF Done:  E(RB2PLYPD3) =  -115.531472452     A.U. after   11 cycles
 E2(B2PLYPD3) =    -0.1493864541D+00 E(B2PLYPD3) =    -0.11568085890606D+03

 The electronic state is 1-A.
 Alpha  occ. eigenvalues --  -19.73801 -10.64057  -1.14819  -0.78540  -0.57606
 Alpha  occ. eigenvalues --   -0.52581  -0.49490  -0.40844  -0.35282
 Alpha virt. eigenvalues --    0.03725   0.07921   0.12433   0.12726   0.15057
 Alpha virt. eigenvalues --    0.17547   0.18261   0.28805   0.30103   0.33481
 Alpha virt. eigenvalues --    0.34968   0.38552   0.39933   0.42267   0.44469

 Mulliken charges:
               1
     1  C    0.080853
     2  O   -0.473886
     3  H    0.044389
     4  H    0.041308
     5  H    0.058612
     6  H    0.248724
 Sum of Mulliken charges =   0.00000

 Dipole moment (field-independent basis, Debye):
    X=              0.9008    Y=              1.6659    Z=              0.1754  Tot=              1.9020
 Quadrupole moment (field-independent basis, Debye-Ang):
   XX=            -13.1844   YY=            -11.9151   ZZ=            -13.8962
   XY=             -2.2491   XZ=             -0.0996   YZ=              0.0874

 Normal termination of Gaussian 09 at Wed Aug 26 11:58:15 2020.
