 Gaussian 09, Revision D.01,
 Gaussian 09:  ES64L-G09RevD.01 24-Apr-2013

 --------------------
 #p B2PLYPD3/Def2QZVP
 --------------------

 --------
 methanol
 --------
 Symbolic Z-matrix:
 Charge =  0 Multiplicity = 1

                         Standard orientation:
 ---------------------------------------------------------------------
 Center     Atomic      Atomic             Coordinates (Angstroms)
 Number     Number       Type             X           Y           Z
 ---------------------------------------------------------------------
      1          6           0       -0.671700   -0.019478    0.003007
      2          8           0        0.746233    0.102713    0.000298
      3          1           0       -1.024206   -0.526694    0.939775
      4          1           0       -1.021556   -0.565737   -0.925494
      5          1           0       -1.055541    1.018998   -0.030550
      6          1           0        1.161641   -0.631401   -0.004156
 ---------------------------------------------------------------------

 SCF Done:  E(RB2PLYPD3) =  -115.535315308     A.U. after   10 cycles
 E2(B2PLYPD3) =    -0.1455270446D+00 E(B2PLYPD3) =    -0.11568084235253D+03

 The electronic state is 1-A.
 Alpha  occ. eigenvalues --  -19.71131 -10.66909  -1.18563  -0.79607  -0.59847
 Alpha  occ. eigenvalues --   -0.51605  -0.50119  -0.40589  -0.35557
 Alpha virt. eigenvalues --    0.05383   0.08660   0.12093   0.12318   0.14603
 Alpha virt. eigenvalues --    0.16944   0.18006   0.29024   0.33060   0.33159
 Alpha virt. eigenvalues --    0.37333   0.39287   0.39616   0.40079   0.42869

 Mulliken charges:
               1
     1  C    0.063933
     2  O   -0.402871
     3  H    0.052687
     4  H    0.048961
     5  H    0.076996
     6  H    0.160294
 Sum of Mulliken charges =   0.00000

 Dipole moment (field-independent basis, Debye):
    X=             -0.8265    Y=             -1.3464    Z=             -0.0024  Tot=              1.5799
 Quadrupole moment (field-independent basis, Debye-Ang):
   XX=            -12.9195   YY=            -12.4792   ZZ=            -13.6350
   XY=             -2.1696   XZ=             -0.0168   YZ=             -0.0168

 Normal termination of Gaussian 09 at Thu Aug 27 00:11:27 2020.
