 Gaussian 09, Revision D.01,
 Gaussian 09:  ES64L-G09RevD.01 24-Apr-2013

 --------------------
 #p B2PLYPD3/Def2QZVP
 --------------------

 --------
 methanol
 --------
 Symbolic Z-matrix:
 Charge =  0 Multiplicity = 1

                         Standard orientation:
 ---------------------------------------------------------------------
 Center     Atomic      Atomic             Coordinates (Angstroms)
 Number     Number       Type             X           Y           Z
 ---------------------------------------------------------------------
      1          6           0        0.640020   -0.006160   -0.024902
      2          8           0       -0.749579    0.079260    0.003673
      3          1           0        1.037453   -0.744203   -0.812705
      4          1           0        1.177022   -0.331337    1.060537
      5          1           0        1.009522    1.045604   -0.204094
      6          1           0       -1.067482   -0.567184    0.076291
 ---------------------------------------------------------------------

 SCF Done:  E(RB2PLYPD3) =  -115.444502861     A.U. after   11 cycles
 E2(B2PLYPD3) =    -0.1445049334D+00 E(B2PLYPD3) =    -0.11558900779486D+03

 The electronic state is 1-A.
 Alpha  occ. eigenvalues --  -19.70910 -10.68663  -1.24532  -0.80836  -0.61911
 Alpha  occ. eigenvalues --   -0.51491  -0.50238  -0.41448  -0.35420
 Alpha virt. eigenvalues --    0.05301   0.08809   0.11750   0.11981   0.14923
 Alpha virt. eigenvalues --    0.16836   0.18108   0.28508   0.32162   0.33968
 Alpha virt. eigenvalues --    0.35278   0.38430   0.39147   0.40678   0.42226

 Mulliken charges:
               1
     1  C    0.042125
     2  O   -0.246741
     3  H    0.048975
     4  H    0.027419
     5  H    0.081011
     6  H    0.047211
 Sum of Mulliken charges =   0.00000

 Dipole moment (field-independent basis, Debye):
    X=              0.7448    Y=             -1.1885    Z=             -0.0185  Tot=              1.4027
 Quadrupole moment (field-independent basis, Debye-Ang):
   XX=            -13.2303   YY=            -12.4865   ZZ=            -13.8701
   XY=              1.9018   XZ=             -0.2946   YZ=             -0.0024

 Normal termination of Gaussian 09 at Wed Aug 26 18:47:11 2020.
