 Gaussian 09, Revision D.01,
 Gaussian 09:  ES64L-G09RevD.01 24-Apr-2013

 --------------------
 #p B2PLYPD3/Def2QZVP
 --------------------

 --------
 methanol
 --------
 Symbolic Z-matrix:
 Charge =  0 Multiplicity = 1

                         Standard orientation:
 ---------------------------------------------------------------------
 Center     Atomic      Atomic             Coordinates (Angstroms)
 Number     Number       Type             X           Y           Z
 ---------------------------------------------------------------------
      1          6           0        0.655281   -0.020118    0.003769
      2          8           0       -0.744488    0.110811   -0.009995
      3          1           0        1.012730   -0.649873   -0.886762
      4          1           0        1.115161   -0.401186    0.958971
      5          1           0        1.076077    0.966905   -0.116696
      6          1           0       -1.179747   -0.681627    0.101827
 ---------------------------------------------------------------------

 SCF Done:  E(RB2PLYPD3) =  -115.547513378     A.U. after   10 cycles
 E2(B2PLYPD3) =    -0.1465672376D+00 E(B2PLYPD3) =    -0.11569408061580D+03

 The electronic state is 1-A.
 Alpha  occ. eigenvalues --  -19.72311 -10.66517  -1.17572  -0.78961  -0.59482
 Alpha  occ. eigenvalues --   -0.51406  -0.50341  -0.40382  -0.35402
 Alpha virt. eigenvalues --    0.05211   0.08208   0.12173   0.12596   0.14757
 Alpha virt. eigenvalues --    0.17129   0.18465   0.28899   0.33027   0.34297
 Alpha virt. eigenvalues --    0.35879   0.38610   0.39481   0.40498   0.43245

 Mulliken charges:
               1
     1  C    0.058414
     2  O   -0.431849
     3  H    0.043866
     4  H    0.048277
     5  H    0.073229
     6  H    0.208063
 Sum of Mulliken charges =   0.00000

 Dipole moment (field-independent basis, Debye):
    X=              0.7189    Y=             -1.3528    Z=              0.2144  Tot=              1.5468
 Quadrupole moment (field-independent basis, Debye-Ang):
   XX=            -12.7472   YY=            -12.5851   ZZ=            -13.7573
   XY=              2.3022   XZ=             -0.1920   YZ=             -0.1418

 Normal termination of Gaussian 09 at Wed Aug 26 11:19:09 2020.
