 Gaussian 09, Revision D.01,
 Gaussian 09:  ES64L-G09RevD.01 24-Apr-2013

 --------------------
 #p B2PLYPD3/Def2QZVP
 --------------------

 --------
 methanol
 --------
 Symbolic Z-matrix:
 Charge =  0 Multiplicity = 1

                         Standard orientation:
 ---------------------------------------------------------------------
 Center     Atomic      Atomic             Coordinates (Angstroms)
 Number     Number       Type             X           Y           Z
 ---------------------------------------------------------------------
      1          6           0        0.661554   -0.026856    0.010422
      2          8           0       -0.755135    0.105232   -0.011126
      3          1           0        1.019590   -0.674365   -0.859947
      4          1           0        1.049275   -0.416195    0.942437
      5          1           0        1.117735    1.040728   -0.126806
      6          1           0       -1.114841   -0.630883    0.070795
 ---------------------------------------------------------------------

 SCF Done:  E(RB2PLYPD3) =  -115.525157359     A.U. after   10 cycles
 E2(B2PLYPD3) =    -0.1454775019D+00 E(B2PLYPD3) =    -0.11567063486083D+03

 The electronic state is 1-A.
 Alpha  occ. eigenvalues --  -19.71396 -10.67221  -1.19686  -0.79427  -0.60621
 Alpha  occ. eigenvalues --   -0.51808  -0.49487  -0.40826  -0.35947
 Alpha virt. eigenvalues --    0.05337   0.08663   0.12001   0.12198   0.14694
 Alpha virt. eigenvalues --    0.17258   0.18052   0.28916   0.32850   0.33403
 Alpha virt. eigenvalues --    0.36523   0.38289   0.39525   0.40853   0.42843

 Mulliken charges:
               1
     1  C    0.060964
     2  O   -0.375707
     3  H    0.047450
     4  H    0.058261
     5  H    0.066115
     6  H    0.142917
 Sum of Mulliken charges =   0.00000

 Dipole moment (field-independent basis, Debye):
    X=              0.8913    Y=             -1.3970    Z=              0.2097  Tot=              1.6704
 Quadrupole moment (field-independent basis, Debye-Ang):
   XX=            -13.0231   YY=            -12.5012   ZZ=            -13.6815
   XY=              2.0651   XZ=             -0.1286   YZ=             -0.1296

 Normal termination of Gaussian 09 at Thu Aug 27 00:12:10 2020.
