 Gaussian 09, Revision D.01,
 Gaussian 09:  ES64L-G09RevD.01 24-Apr-2013

 --------------------
 #p B2PLYPD3/Def2QZVP
 --------------------

 --------
 methanol
 --------
 Symbolic Z-matrix:
 Charge =  0 Multiplicity = 1

                         Standard orientation:
 ---------------------------------------------------------------------
 Center     Atomic      Atomic             Coordinates (Angstroms)
 Number     Number       Type             X           Y           Z
 ---------------------------------------------------------------------
      1          6           0        0.677072    0.025766    0.007032
      2          8           0       -0.746080   -0.146470   -0.005505
      3          1           0        0.972295    0.498413    0.874498
      4          1           0        1.032378    0.563887   -0.844422
      5          1           0        1.098436   -0.914753   -0.032114
      6          1           0       -1.196904    0.869618    0.003891
 ---------------------------------------------------------------------

 SCF Done:  E(RB2PLYPD3) =  -115.529507219     A.U. after   11 cycles
 E2(B2PLYPD3) =    -0.1497574307D+00 E(B2PLYPD3) =    -0.11567926464952D+03

 The electronic state is 1-A.
 Alpha  occ. eigenvalues --  -19.73440 -10.63904  -1.13108  -0.78950  -0.56481
 Alpha  occ. eigenvalues --   -0.52416  -0.49593  -0.40741  -0.35159
 Alpha virt. eigenvalues --    0.03709   0.07828   0.12571   0.12704   0.14749
 Alpha virt. eigenvalues --    0.17400   0.18185   0.28794   0.30062   0.33261
 Alpha virt. eigenvalues --    0.33625   0.39305   0.40389   0.42083   0.43796

 Mulliken charges:
               1
     1  C    0.084448
     2  O   -0.498920
     3  H    0.050240
     4  H    0.045214
     5  H    0.068583
     6  H    0.250434
 Sum of Mulliken charges =   0.00000

 Dipole moment (field-independent basis, Debye):
    X=              0.9393    Y=              1.6145    Z=              0.0420  Tot=              1.8683
 Quadrupole moment (field-independent basis, Debye-Ang):
   XX=            -12.8630   YY=            -12.0104   ZZ=            -13.7965
   XY=             -2.4742   XZ=             -0.0467   YZ=              0.0420

 Normal termination of Gaussian 09 at Wed Aug 26 23:58:38 2020.
