 Gaussian 09, Revision D.01,
 Gaussian 09:  ES64L-G09RevD.01 24-Apr-2013

 --------------------
 #p B2PLYPD3/Def2QZVP
 --------------------

 --------
 methanol
 --------
 Symbolic Z-matrix:
 Charge =  0 Multiplicity = 1

                         Standard orientation:
 ---------------------------------------------------------------------
 Center     Atomic      Atomic             Coordinates (Angstroms)
 Number     Number       Type             X           Y           Z
 ---------------------------------------------------------------------
      1          6           0        0.678386    0.065079    0.009425
      2          8           0       -0.752245   -0.181116   -0.011932
      3          1           0        0.985994    0.417657    0.789198
      4          1           0        0.994893    0.620040   -0.742417
      5          1           0        1.258343   -0.924226   -0.062692
      6          1           0       -1.291590    0.944980    0.054819
 ---------------------------------------------------------------------

 SCF Done:  E(RB2PLYPD3) =  -115.462811472     A.U. after   11 cycles
 E2(B2PLYPD3) =    -0.1527193241D+00 E(B2PLYPD3) =    -0.11561553079649D+03

 The electronic state is 1-A.
 Alpha  occ. eigenvalues --  -19.74601 -10.62918  -1.11306  -0.80479  -0.54570
 Alpha  occ. eigenvalues --   -0.54097  -0.48025  -0.39621  -0.35750
 Alpha virt. eigenvalues --    0.01616   0.07193   0.12415   0.13012   0.14664
 Alpha virt. eigenvalues --    0.17892   0.18446   0.24960   0.29335   0.32678
 Alpha virt. eigenvalues --    0.33879   0.36929   0.40374   0.42587   0.44582

 Mulliken charges:
               1
     1  C    0.087241
     2  O   -0.505434
     3  H    0.067339
     4  H    0.052012
     5  H    0.047437
     6  H    0.251405
 Sum of Mulliken charges =   0.00000

 Dipole moment (field-independent basis, Debye):
    X=              0.9489    Y=              1.8484    Z=              0.1646  Tot=              2.0843
 Quadrupole moment (field-independent basis, Debye-Ang):
   XX=            -12.4028   YY=            -12.0050   ZZ=            -13.9317
   XY=             -2.5055   XZ=             -0.0697   YZ=              0.0558

 Normal termination of Gaussian 09 at Wed Aug 26 23:51:13 2020.
