 Gaussian 09, Revision D.01,
 Gaussian 09:  ES64L-G09RevD.01 24-Apr-2013

 --------------------
 #p B2PLYPD3/Def2QZVP
 --------------------

 --------
 methanol
 --------
 Symbolic Z-matrix:
 Charge =  0 Multiplicity = 1

                         Standard orientation:
 ---------------------------------------------------------------------
 Center     Atomic      Atomic             Coordinates (Angstroms)
 Number     Number       Type             X           Y           Z
 ---------------------------------------------------------------------
      1          6           0       -0.662692    0.006241    0.028539
      2          8           0        0.746241    0.059739   -0.017406
      3          1           0       -1.082681   -0.308071    0.979380
      4          1           0       -0.939225   -0.910255   -0.818208
      5          1           0       -1.017761    1.092981   -0.344670
      6          1           0        1.045891   -0.390011    0.151512
 ---------------------------------------------------------------------

 SCF Done:  E(RB2PLYPD3) =  -115.090150887     A.U. after   11 cycles
 E2(B2PLYPD3) =    -0.1431202421D+00 E(B2PLYPD3) =    -0.11523327112954D+03

 The electronic state is 1-A.
 Alpha  occ. eigenvalues --  -19.68496 -10.69653  -1.30744  -0.83867  -0.63240
 Alpha  occ. eigenvalues --   -0.50981  -0.50549  -0.41553  -0.35529
 Alpha virt. eigenvalues --    0.04986   0.09685   0.11145   0.11586   0.14595
 Alpha virt. eigenvalues --    0.16529   0.17410   0.28406   0.30879   0.33303
 Alpha virt. eigenvalues --    0.35543   0.36227   0.39626   0.41369   0.42374

 Mulliken charges:
               1
     1  C    0.049089
     2  O   -0.112444
     3  H    0.065579
     4  H    0.027526
     5  H    0.086496
     6  H   -0.116246
 Sum of Mulliken charges =   0.00000

 Dipole moment (field-independent basis, Debye):
    X=             -0.9181    Y=             -0.9285    Z=              0.5793  Tot=              1.4285
 Quadrupole moment (field-independent basis, Debye-Ang):
   XX=            -13.3101   YY=            -12.5265   ZZ=            -13.3978
   XY=             -1.7396   XZ=              0.2030   YZ=             -0.4889

 Normal termination of Gaussian 09 at Wed Aug 26 22:43:34 2020.
