 Gaussian 09, Revision D.01,
 Gaussian 09:  ES64L-G09RevD.01 24-Apr-2013

 --------------------
 #p B2PLYPD3/Def2QZVP
 --------------------

 --------
 methanol
 --------
 Symbolic Z-matrix:
 Charge =  0 Multiplicity = 1

                         Standard orientation:
 ---------------------------------------------------------------------
 Center     Atomic      Atomic             Coordinates (Angstroms)
 Number     Number       Type             X           Y           Z
 ---------------------------------------------------------------------
      1          6           0       -0.663577   -0.017884   -0.010665
      2          8           0        0.750220    0.110000    0.003860
      3          1           0       -1.012978   -0.580744    0.921408
      4          1           0       -1.041987   -0.523138   -0.903333
      5          1           0       -1.097731    1.004342    0.040603
      6          1           0        1.132403   -0.673158   -0.025570
 ---------------------------------------------------------------------

 SCF Done:  E(RB2PLYPD3) =  -115.543453724     A.U. after   10 cycles
 E2(B2PLYPD3) =    -0.1459791225D+00 E(B2PLYPD3) =    -0.11568943284697D+03

 The electronic state is 1-A.
 Alpha  occ. eigenvalues --  -19.71756 -10.66640  -1.18212  -0.79153  -0.59857
 Alpha  occ. eigenvalues --   -0.51510  -0.50102  -0.40987  -0.35517
 Alpha virt. eigenvalues --    0.05283   0.08520   0.12174   0.12340   0.14714
 Alpha virt. eigenvalues --    0.17254   0.18024   0.29038   0.32974   0.33491
 Alpha virt. eigenvalues --    0.36830   0.38928   0.39432   0.40464   0.43210

 Mulliken charges:
               1
     1  C    0.065504
     2  O   -0.416537
     3  H    0.043169
     4  H    0.052644
     5  H    0.073050
     6  H    0.182171
 Sum of Mulliken charges =   0.00000

 Dipole moment (field-independent basis, Debye):
    X=             -0.8611    Y=             -1.4030    Z=             -0.0984  Tot=              1.6491
 Quadrupole moment (field-independent basis, Debye-Ang):
   XX=            -12.9981   YY=            -12.4054   ZZ=            -13.7348
   XY=             -2.1996   XZ=              0.0053   YZ=              0.1005

 Normal termination of Gaussian 09 at Thu Aug 27 00:13:18 2020.
