 Gaussian 09, Revision D.01,
 Gaussian 09:  ES64L-G09RevD.01 24-Apr-2013

 --------------------
 #p B2PLYPD3/Def2QZVP
 --------------------

 --------
 methanol
 --------
 Symbolic Z-matrix:
 Charge =  0 Multiplicity = 1

                         Standard orientation:
 ---------------------------------------------------------------------
 Center     Atomic      Atomic             Coordinates (Angstroms)
 Number     Number       Type             X           Y           Z
 ---------------------------------------------------------------------
      1          6           0        0.666218    0.006328    0.005069
      2          8           0       -0.739611   -0.160446   -0.013977
      3          1           0        1.075898    0.407829    0.874622
      4          1           0        1.018204    0.698168   -0.791315
      5          1           0        1.102819   -0.817582   -0.101121
      6          1           0       -1.277340    0.957184    0.099215
 ---------------------------------------------------------------------

 SCF Done:  E(RB2PLYPD3) =  -115.482412623     A.U. after   11 cycles
 E2(B2PLYPD3) =    -0.1522116781D+00 E(B2PLYPD3) =    -0.11563462430113D+03

 The electronic state is 1-A.
 Alpha  occ. eigenvalues --  -19.74518 -10.63254  -1.12475  -0.79482  -0.55596
 Alpha  occ. eigenvalues --   -0.51259  -0.50498  -0.40266  -0.34620
 Alpha virt. eigenvalues --    0.01477   0.07492   0.12725   0.13016   0.14871
 Alpha virt. eigenvalues --    0.17648   0.18397   0.25111   0.29605   0.33209
 Alpha virt. eigenvalues --    0.34387   0.38036   0.40846   0.41688   0.43281

 Mulliken charges:
               1
     1  C    0.081977
     2  O   -0.495130
     3  H    0.042421
     4  H    0.032904
     5  H    0.076856
     6  H    0.260972
 Sum of Mulliken charges =   0.00000

 Dipole moment (field-independent basis, Debye):
    X=              0.7967    Y=              1.6033    Z=              0.2244  Tot=              1.8044
 Quadrupole moment (field-independent basis, Debye-Ang):
   XX=            -12.4853   YY=            -11.8924   ZZ=            -14.0775
   XY=             -2.7431   XZ=             -0.1389   YZ=              0.1804

 Normal termination of Gaussian 09 at Wed Aug 26 14:07:39 2020.
