 Gaussian 09, Revision D.01,
 Gaussian 09:  ES64L-G09RevD.01 24-Apr-2013

 --------------------
 #p B2PLYPD3/Def2QZVP
 --------------------

 --------
 methanol
 --------
 Symbolic Z-matrix:
 Charge =  0 Multiplicity = 1

                         Standard orientation:
 ---------------------------------------------------------------------
 Center     Atomic      Atomic             Coordinates (Angstroms)
 Number     Number       Type             X           Y           Z
 ---------------------------------------------------------------------
      1          6           0       -0.671086    0.015120    0.008798
      2          8           0        0.746633   -0.142466   -0.018505
      3          1           0       -1.055713    0.667091   -0.771520
      4          1           0       -0.961626    0.417511    0.859590
      5          1           0       -1.054804   -0.943700   -0.068783
      6          1           0        1.125595    0.908113    0.075967
 ---------------------------------------------------------------------

 SCF Done:  E(RB2PLYPD3) =  -115.521395085     A.U. after   11 cycles
 E2(B2PLYPD3) =    -0.1500111730D+00 E(B2PLYPD3) =    -0.11567140625835D+03

 The electronic state is 1-A.
 Alpha  occ. eigenvalues --  -19.73668 -10.63555  -1.13493  -0.79119  -0.57319
 Alpha  occ. eigenvalues --   -0.52093  -0.49220  -0.41495  -0.35096
 Alpha virt. eigenvalues --    0.03499   0.07930   0.12410   0.12755   0.15041
 Alpha virt. eigenvalues --    0.17273   0.18056   0.28539   0.29981   0.33369
 Alpha virt. eigenvalues --    0.33954   0.39075   0.39902   0.41601   0.44747

 Mulliken charges:
               1
     1  C    0.088766
     2  O   -0.490327
     3  H    0.038008
     4  H    0.047259
     5  H    0.068636
     6  H    0.247658
 Sum of Mulliken charges =   0.00000

 Dipole moment (field-independent basis, Debye):
    X=             -1.0156    Y=              1.6406    Z=              0.2412  Tot=              1.9445
 Quadrupole moment (field-independent basis, Debye-Ang):
   XX=            -13.2231   YY=            -11.7014   ZZ=            -13.9002
   XY=              2.2726   XZ=              0.1482   YZ=              0.1557

 Normal termination of Gaussian 09 at Wed Aug 26 12:29:52 2020.
