 Gaussian 09, Revision D.01,
 Gaussian 09:  ES64L-G09RevD.01 24-Apr-2013

 --------------------
 #p B2PLYPD3/Def2QZVP
 --------------------

 --------
 methanol
 --------
 Symbolic Z-matrix:
 Charge =  0 Multiplicity = 1

                         Standard orientation:
 ---------------------------------------------------------------------
 Center     Atomic      Atomic             Coordinates (Angstroms)
 Number     Number       Type             X           Y           Z
 ---------------------------------------------------------------------
      1          6           0       -0.655840   -0.031013    0.020527
      2          8           0        0.747495    0.131680   -0.020089
      3          1           0       -1.072390   -0.363417    0.869300
      4          1           0       -1.082455   -0.669915   -0.815384
      5          1           0       -1.064496    0.991225   -0.120475
      6          1           0        1.174424   -0.825256    0.104114
 ---------------------------------------------------------------------

 SCF Done:  E(RB2PLYPD3) =  -115.535174766     A.U. after   11 cycles
 E2(B2PLYPD3) =    -0.1491438026D+00 E(B2PLYPD3) =    -0.11568431856833D+03

 The electronic state is 1-A.
 Alpha  occ. eigenvalues --  -19.73757 -10.65100  -1.14897  -0.78516  -0.58167
 Alpha  occ. eigenvalues --   -0.51597  -0.49200  -0.40635  -0.35463
 Alpha virt. eigenvalues --    0.04227   0.07763   0.12259   0.12649   0.15175
 Alpha virt. eigenvalues --    0.17164   0.18578   0.28867   0.31509   0.33547
 Alpha virt. eigenvalues --    0.34528   0.37637   0.38889   0.41433   0.44892

 Mulliken charges:
               1
     1  C    0.066629
     2  O   -0.467589
     3  H    0.056560
     4  H    0.039070
     5  H    0.059611
     6  H    0.245719
 Sum of Mulliken charges =   0.00000

 Dipole moment (field-independent basis, Debye):
    X=             -0.8002    Y=             -1.5738    Z=              0.3250  Tot=              1.7952
 Quadrupole moment (field-independent basis, Debye-Ang):
   XX=            -12.8820   YY=            -12.2021   ZZ=            -13.9253
   XY=             -2.2571   XZ=              0.1305   YZ=             -0.2150

 Normal termination of Gaussian 09 at Wed Aug 26 11:45:10 2020.
