 Gaussian 09, Revision D.01,
 Gaussian 09:  ES64L-G09RevD.01 24-Apr-2013

 --------------------
 #p B2PLYPD3/Def2QZVP
 --------------------

 --------
 methanol
 --------
 Symbolic Z-matrix:
 Charge =  0 Multiplicity = 1

                         Standard orientation:
 ---------------------------------------------------------------------
 Center     Atomic      Atomic             Coordinates (Angstroms)
 Number     Number       Type             X           Y           Z
 ---------------------------------------------------------------------
      1          6           0       -0.668488   -0.024261    0.005517
      2          8           0        0.746394    0.107456   -0.011782
      3          1           0       -1.004177   -0.479932    0.926773
      4          1           0       -1.060023   -0.623934   -0.862728
      5          1           0       -1.071267    1.041775   -0.049857
      6          1           0        1.175246   -0.651987    0.046972
 ---------------------------------------------------------------------

 SCF Done:  E(RB2PLYPD3) =  -115.542900481     A.U. after   10 cycles
 E2(B2PLYPD3) =    -0.1459719454D+00 E(B2PLYPD3) =    -0.11568887242659D+03

 The electronic state is 1-A.
 Alpha  occ. eigenvalues --  -19.71563 -10.66648  -1.17824  -0.79268  -0.59971
 Alpha  occ. eigenvalues --   -0.51655  -0.49560  -0.40592  -0.35565
 Alpha virt. eigenvalues --    0.05310   0.08490   0.12110   0.12350   0.14875
 Alpha virt. eigenvalues --    0.16991   0.17993   0.29111   0.33241   0.33381
 Alpha virt. eigenvalues --    0.37137   0.38365   0.39503   0.40555   0.42958

 Mulliken charges:
               1
     1  C    0.066025
     2  O   -0.423462
     3  H    0.054192
     4  H    0.048984
     5  H    0.071371
     6  H    0.182889
 Sum of Mulliken charges =   0.00000

 Dipole moment (field-independent basis, Debye):
    X=             -0.7998    Y=             -1.4214    Z=              0.1548  Tot=              1.6384
 Quadrupole moment (field-independent basis, Debye-Ang):
   XX=            -12.8342   YY=            -12.4162   ZZ=            -13.7483
   XY=             -2.1346   XZ=              0.1506   YZ=             -0.0820

 Normal termination of Gaussian 09 at Thu Aug 27 00:05:47 2020.
