 Gaussian 09, Revision D.01,
 Gaussian 09:  ES64L-G09RevD.01 24-Apr-2013

 --------------------
 #p B2PLYPD3/Def2QZVP
 --------------------

 --------
 methanol
 --------
 Symbolic Z-matrix:
 Charge =  0 Multiplicity = 1

                         Standard orientation:
 ---------------------------------------------------------------------
 Center     Atomic      Atomic             Coordinates (Angstroms)
 Number     Number       Type             X           Y           Z
 ---------------------------------------------------------------------
      1          6           0       -0.669097    0.003699   -0.003660
      2          8           0        0.736727   -0.150791   -0.014507
      3          1           0       -1.066548    0.575169   -0.820996
      4          1           0       -1.005924    0.492888    0.846252
      5          1           0       -0.972260   -0.878279    0.039751
      6          1           0        1.165500    0.994358    0.073008
 ---------------------------------------------------------------------

 SCF Done:  E(RB2PLYPD3) =  -115.485633410     A.U. after   11 cycles
 E2(B2PLYPD3) =    -0.1519195947D+00 E(B2PLYPD3) =    -0.11563755300466D+03

 The electronic state is 1-A.
 Alpha  occ. eigenvalues --  -19.74286 -10.62653  -1.12935  -0.79364  -0.57163
 Alpha  occ. eigenvalues --   -0.51670  -0.49463  -0.41111  -0.34776
 Alpha virt. eigenvalues --    0.01957   0.07771   0.12646   0.12830   0.15056
 Alpha virt. eigenvalues --    0.17044   0.18246   0.25873   0.29585   0.33390
 Alpha virt. eigenvalues --    0.34585   0.38257   0.40890   0.41412   0.44199

 Mulliken charges:
               1
     1  C    0.077474
     2  O   -0.489375
     3  H    0.043301
     4  H    0.037625
     5  H    0.081604
     6  H    0.249371
 Sum of Mulliken charges =   0.00000

 Dipole moment (field-independent basis, Debye):
    X=             -0.9725    Y=              1.6312    Z=              0.1859  Tot=              1.9082
 Quadrupole moment (field-independent basis, Debye-Ang):
   XX=            -13.1665   YY=            -11.5379   ZZ=            -13.9477
   XY=              2.3573   XZ=              0.1371   YZ=              0.0618

 Normal termination of Gaussian 09 at Wed Aug 26 13:38:04 2020.
