 Gaussian 09, Revision D.01,
 Gaussian 09:  ES64L-G09RevD.01 24-Apr-2013

 --------------------
 #p B2PLYPD3/Def2QZVP
 --------------------

 --------
 methanol
 --------
 Symbolic Z-matrix:
 Charge =  0 Multiplicity = 1

                         Standard orientation:
 ---------------------------------------------------------------------
 Center     Atomic      Atomic             Coordinates (Angstroms)
 Number     Number       Type             X           Y           Z
 ---------------------------------------------------------------------
      1          6           0        0.665030    0.027066    0.033778
      2          8           0       -0.762309   -0.144400   -0.032553
      3          1           0        1.023762    0.260470    0.879055
      4          1           0        1.129911    0.704114   -0.788811
      5          1           0        1.089869   -0.907292   -0.170259
      6          1           0       -1.135249    0.935507    0.137766
 ---------------------------------------------------------------------

 SCF Done:  E(RB2PLYPD3) =  -115.501359008     A.U. after   11 cycles
 E2(B2PLYPD3) =    -0.1514922193D+00 E(B2PLYPD3) =    -0.11565285122761D+03

 The electronic state is 1-A.
 Alpha  occ. eigenvalues --  -19.74577 -10.64162  -1.12995  -0.79432  -0.56276
 Alpha  occ. eigenvalues --   -0.51763  -0.49095  -0.40700  -0.35669
 Alpha virt. eigenvalues --    0.03068   0.07485   0.12295   0.12700   0.14803
 Alpha virt. eigenvalues --    0.17455   0.18869   0.27128   0.29376   0.33372
 Alpha virt. eigenvalues --    0.33758   0.37107   0.39667   0.41706   0.44577

 Mulliken charges:
               1
     1  C    0.075436
     2  O   -0.483664
     3  H    0.060011
     4  H    0.036864
     5  H    0.057335
     6  H    0.254019
 Sum of Mulliken charges =   0.00000

 Dipole moment (field-independent basis, Debye):
    X=              1.0153    Y=              1.5660    Z=              0.4158  Tot=              1.9121
 Quadrupole moment (field-independent basis, Debye-Ang):
   XX=            -13.1069   YY=            -12.0346   ZZ=            -13.8263
   XY=             -2.3686   XZ=             -0.2284   YZ=              0.2903

 Normal termination of Gaussian 09 at Wed Aug 26 22:59:09 2020.
