 Gaussian 09, Revision D.01,
 Gaussian 09:  ES64L-G09RevD.01 24-Apr-2013

 --------------------
 #p B2PLYPD3/Def2QZVP
 --------------------

 --------
 methanol
 --------
 Symbolic Z-matrix:
 Charge =  0 Multiplicity = 1

                         Standard orientation:
 ---------------------------------------------------------------------
 Center     Atomic      Atomic             Coordinates (Angstroms)
 Number     Number       Type             X           Y           Z
 ---------------------------------------------------------------------
      1          6           0        0.668882   -0.015907    0.011788
      2          8           0       -0.748529    0.100695   -0.006275
      3          1           0        1.025182   -0.606061   -0.904667
      4          1           0        0.975287   -0.540093    0.917190
      5          1           0        1.085538    1.046779   -0.040374
      6          1           0       -1.111069   -0.610740    0.007322
 ---------------------------------------------------------------------

 SCF Done:  E(RB2PLYPD3) =  -115.514821826     A.U. after   10 cycles
 E2(B2PLYPD3) =    -0.1448980185D+00 E(B2PLYPD3) =    -0.11565971984464D+03

 The electronic state is 1-A.
 Alpha  occ. eigenvalues --  -19.70702 -10.67148  -1.20232  -0.79906  -0.60664
 Alpha  occ. eigenvalues --   -0.51780  -0.49927  -0.41098  -0.35628
 Alpha virt. eigenvalues --    0.05372   0.08917   0.12026   0.12131   0.14708
 Alpha virt. eigenvalues --    0.17079   0.17636   0.29024   0.32874   0.33020
 Alpha virt. eigenvalues --    0.37415   0.38638   0.39642   0.40526   0.42944

 Mulliken charges:
               1
     1  C    0.066744
     2  O   -0.358542
     3  H    0.043619
     4  H    0.054482
     5  H    0.076093
     6  H    0.117604
 Sum of Mulliken charges =   0.00000

 Dipole moment (field-independent basis, Debye):
    X=              0.9023    Y=             -1.3556    Z=              0.0764  Tot=              1.6302
 Quadrupole moment (field-independent basis, Debye-Ang):
   XX=            -13.1254   YY=            -12.3490   ZZ=            -13.6698
   XY=              2.0796   XZ=             -0.0272   YZ=             -0.0841

 Normal termination of Gaussian 09 at Wed Aug 26 23:48:50 2020.
