 Gaussian 09, Revision D.01,
 Gaussian 09:  ES64L-G09RevD.01 24-Apr-2013

 --------------------
 #p B2PLYPD3/Def2QZVP
 --------------------

 --------
 methanol
 --------
 Symbolic Z-matrix:
 Charge =  0 Multiplicity = 1

                         Standard orientation:
 ---------------------------------------------------------------------
 Center     Atomic      Atomic             Coordinates (Angstroms)
 Number     Number       Type             X           Y           Z
 ---------------------------------------------------------------------
      1          6           0       -0.664819   -0.024033    0.004853
      2          8           0        0.744822    0.135768   -0.006903
      3          1           0       -1.052457   -0.444639    0.868620
      4          1           0       -1.039311   -0.624104   -0.810842
      5          1           0       -1.052153    0.974817   -0.075974
      6          1           0        1.174261   -0.848018    0.044302
 ---------------------------------------------------------------------

 SCF Done:  E(RB2PLYPD3) =  -115.538192971     A.U. after   11 cycles
 E2(B2PLYPD3) =    -0.1491901093D+00 E(B2PLYPD3) =    -0.11568738308049D+03

 The electronic state is 1-A.
 Alpha  occ. eigenvalues --  -19.73514 -10.64490  -1.14249  -0.78591  -0.57701
 Alpha  occ. eigenvalues --   -0.51798  -0.49291  -0.41029  -0.35239
 Alpha virt. eigenvalues --    0.04060   0.07883   0.12378   0.12728   0.15143
 Alpha virt. eigenvalues --    0.17159   0.18247   0.29033   0.31057   0.33581
 Alpha virt. eigenvalues --    0.34216   0.38682   0.39416   0.41769   0.44405

 Mulliken charges:
               1
     1  C    0.075666
     2  O   -0.480999
     3  H    0.049271
     4  H    0.042790
     5  H    0.066827
     6  H    0.246446
 Sum of Mulliken charges =   0.00000

 Dipole moment (field-independent basis, Debye):
    X=             -0.8679    Y=             -1.6120    Z=              0.1210  Tot=              1.8348
 Quadrupole moment (field-independent basis, Debye-Ang):
   XX=            -12.9385   YY=            -11.9872   ZZ=            -13.9311
   XY=             -2.2867   XZ=              0.0550   YZ=             -0.0819

 Normal termination of Gaussian 09 at Wed Aug 26 10:30:40 2020.
