 Gaussian 09, Revision D.01,
 Gaussian 09:  ES64L-G09RevD.01 24-Apr-2013

 --------------------
 #p B2PLYPD3/Def2QZVP
 --------------------

 --------
 methanol
 --------
 Symbolic Z-matrix:
 Charge =  0 Multiplicity = 1

                         Standard orientation:
 ---------------------------------------------------------------------
 Center     Atomic      Atomic             Coordinates (Angstroms)
 Number     Number       Type             X           Y           Z
 ---------------------------------------------------------------------
      1          6           0        0.653255    0.041123   -0.015370
      2          8           0       -0.739395   -0.171939    0.008224
      3          1           0        0.954351    0.585898    0.770721
      4          1           0        1.021867    0.442887   -0.728693
      5          1           0        1.080079   -0.973448    0.047382
      6          1           0       -1.060666    1.073433   -0.062982
 ---------------------------------------------------------------------

 SCF Done:  E(RB2PLYPD3) =  -115.449816419     A.U. after   11 cycles
 E2(B2PLYPD3) =    -0.1534308015D+00 E(B2PLYPD3) =    -0.11560324722023D+03

 The electronic state is 1-A.
 Alpha  occ. eigenvalues --  -19.75049 -10.62158  -1.13086  -0.80298  -0.56260
 Alpha  occ. eigenvalues --   -0.54024  -0.48431  -0.40094  -0.35519
 Alpha virt. eigenvalues --    0.00692   0.07693   0.12095   0.12981   0.14999
 Alpha virt. eigenvalues --    0.17655   0.18186   0.23957   0.29519   0.33340
 Alpha virt. eigenvalues --    0.35007   0.37362   0.39565   0.43238   0.45867

 Mulliken charges:
               1
     1  C    0.091608
     2  O   -0.472375
     3  H    0.038247
     4  H    0.055787
     5  H    0.048566
     6  H    0.238168
 Sum of Mulliken charges =   0.00000

 Dipole moment (field-independent basis, Debye):
    X=              1.1397    Y=              1.8328    Z=             -0.1684  Tot=              2.1648
 Quadrupole moment (field-independent basis, Debye-Ang):
   XX=            -13.6295   YY=            -11.3134   ZZ=            -13.9684
   XY=             -1.9950   XZ=             -0.0408   YZ=             -0.1295

 Normal termination of Gaussian 09 at Wed Aug 26 23:55:18 2020.
