 Gaussian 09, Revision D.01,
 Gaussian 09:  ES64L-G09RevD.01 24-Apr-2013

 --------------------
 #p B2PLYPD3/Def2QZVP
 --------------------

 --------
 methanol
 --------
 Symbolic Z-matrix:
 Charge =  0 Multiplicity = 1

                         Standard orientation:
 ---------------------------------------------------------------------
 Center     Atomic      Atomic             Coordinates (Angstroms)
 Number     Number       Type             X           Y           Z
 ---------------------------------------------------------------------
      1          6           0        0.659884   -0.013667    0.011736
      2          8           0       -0.747972    0.099682   -0.008653
      3          1           0        1.050618   -0.650176   -0.870005
      4          1           0        0.990287   -0.470622    0.947447
      5          1           0        1.067104    1.041050   -0.096551
      6          1           0       -1.083535   -0.635710    0.017917
 ---------------------------------------------------------------------

 SCF Done:  E(RB2PLYPD3) =  -115.520486035     A.U. after   10 cycles
 E2(B2PLYPD3) =    -0.1450364634D+00 E(B2PLYPD3) =    -0.11566552249792D+03

 The electronic state is 1-A.
 Alpha  occ. eigenvalues --  -19.71092 -10.67041  -1.20461  -0.79638  -0.60785
 Alpha  occ. eigenvalues --   -0.51767  -0.50003  -0.41299  -0.35670
 Alpha virt. eigenvalues --    0.05349   0.08880   0.12017   0.12181   0.14809
 Alpha virt. eigenvalues --    0.17125   0.17781   0.28958   0.32924   0.33431
 Alpha virt. eigenvalues --    0.37308   0.38632   0.39618   0.40658   0.42938

 Mulliken charges:
               1
     1  C    0.062729
     2  O   -0.359077
     3  H    0.040290
     4  H    0.053968
     5  H    0.073438
     6  H    0.128653
 Sum of Mulliken charges =   0.00000

 Dipole moment (field-independent basis, Debye):
    X=              0.8890    Y=             -1.3597    Z=              0.1052  Tot=              1.6279
 Quadrupole moment (field-independent basis, Debye-Ang):
   XX=            -13.2324   YY=            -12.3348   ZZ=            -13.6910
   XY=              2.0369   XZ=             -0.0685   YZ=             -0.1023

 Normal termination of Gaussian 09 at Thu Aug 27 00:05:03 2020.
