 Gaussian 09, Revision D.01,
 Gaussian 09:  ES64L-G09RevD.01 24-Apr-2013

 --------------------
 #p B2PLYPD3/Def2QZVP
 --------------------

 --------
 methanol
 --------
 Symbolic Z-matrix:
 Charge =  0 Multiplicity = 1

                         Standard orientation:
 ---------------------------------------------------------------------
 Center     Atomic      Atomic             Coordinates (Angstroms)
 Number     Number       Type             X           Y           Z
 ---------------------------------------------------------------------
      1          6           0        0.639613    0.030464    0.012036
      2          8           0       -0.717927   -0.164331   -0.031890
      3          1           0        0.911582    0.360537    0.891640
      4          1           0        1.031988    0.712625   -0.765618
      5          1           0        1.203502   -0.839296   -0.074211
      6          1           0       -1.241335    0.897998    0.131093
 ---------------------------------------------------------------------

 SCF Done:  E(RB2PLYPD3) =  -115.501116276     A.U. after   11 cycles
 E2(B2PLYPD3) =    -0.1505012578D+00 E(B2PLYPD3) =    -0.11565161753376D+03

 The electronic state is 1-A.
 Alpha  occ. eigenvalues --  -19.74087 -10.63161  -1.14506  -0.78647  -0.56292
 Alpha  occ. eigenvalues --   -0.52785  -0.50996  -0.39286  -0.34763
 Alpha virt. eigenvalues --    0.02224   0.07618   0.12637   0.13158   0.14782
 Alpha virt. eigenvalues --    0.17987   0.18532   0.26150   0.29449   0.33061
 Alpha virt. eigenvalues --    0.35393   0.39716   0.41210   0.42021   0.43524

 Mulliken charges:
               1
     1  C    0.080260
     2  O   -0.480514
     3  H    0.045286
     4  H    0.033433
     5  H    0.058823
     6  H    0.262713
 Sum of Mulliken charges =   0.00000

 Dipole moment (field-independent basis, Debye):
    X=              0.6694    Y=              1.6268    Z=              0.3826  Tot=              1.8003
 Quadrupole moment (field-independent basis, Debye-Ang):
   XX=            -12.5726   YY=            -12.1788   ZZ=            -13.8694
   XY=             -2.6861   XZ=             -0.3087   YZ=              0.1959

 Normal termination of Gaussian 09 at Wed Aug 26 22:15:43 2020.
