 Gaussian 09, Revision D.01,
 Gaussian 09:  ES64L-G09RevD.01 24-Apr-2013

 --------------------
 #p B2PLYPD3/Def2QZVP
 --------------------

 --------
 methanol
 --------
 Symbolic Z-matrix:
 Charge =  0 Multiplicity = 1

                         Standard orientation:
 ---------------------------------------------------------------------
 Center     Atomic      Atomic             Coordinates (Angstroms)
 Number     Number       Type             X           Y           Z
 ---------------------------------------------------------------------
      1          6           0       -0.628243    0.016118    0.018265
      2          8           0        0.744337   -0.045143   -0.035310
      3          1           0       -0.995298    1.219785   -0.230040
      4          1           0       -1.153760   -0.405548    1.029438
      5          1           0       -1.148672   -0.746235   -0.855692
      6          1           0        1.112493    0.196434    0.229185
 ---------------------------------------------------------------------

 SCF Done:  E(RB2PLYPD3) =  -114.827413088     A.U. after   12 cycles
 E2(B2PLYPD3) =    -0.1439714594D+00 E(B2PLYPD3) =    -0.11497138454784D+03

 The electronic state is 1-A.
 Alpha  occ. eigenvalues --  -19.69517 -10.72021  -1.33870  -0.86891  -0.62695
 Alpha  occ. eigenvalues --   -0.51767  -0.50666  -0.38144  -0.36331
 Alpha virt. eigenvalues --    0.04613   0.09433   0.10889   0.11435   0.14094
 Alpha virt. eigenvalues --    0.16788   0.18034   0.27947   0.31303   0.32985
 Alpha virt. eigenvalues --    0.33814   0.35106   0.36589   0.41303   0.42633

 Mulliken charges:
               1
     1  C    0.042660
     2  O   -0.023288
     3  H    0.039353
     4  H    0.054784
     5  H    0.072748
     6  H   -0.186257
 Sum of Mulliken charges =   0.00000

 Dipole moment (field-independent basis, Debye):
    X=             -0.6382    Y=              0.5348    Z=              0.7071  Tot=              1.0924
 Quadrupole moment (field-independent basis, Debye-Ang):
   XX=            -12.6994   YY=            -13.2309   ZZ=            -13.4215
   XY=              1.3151   XZ=              1.0597   YZ=              0.1755

 Normal termination of Gaussian 09 at Wed Aug 26 22:34:40 2020.
