 Gaussian 09, Revision D.01,
 Gaussian 09:  ES64L-G09RevD.01 24-Apr-2013

 --------------------
 #p B2PLYPD3/Def2QZVP
 --------------------

 --------
 methanol
 --------
 Symbolic Z-matrix:
 Charge =  0 Multiplicity = 1

                         Standard orientation:
 ---------------------------------------------------------------------
 Center     Atomic      Atomic             Coordinates (Angstroms)
 Number     Number       Type             X           Y           Z
 ---------------------------------------------------------------------
      1          6           0        0.673292   -0.011352   -0.005091
      2          8           0       -0.741871    0.101118   -0.007220
      3          1           0        0.969625   -0.679491   -0.860735
      4          1           0        1.070520   -0.418412    0.965375
      5          1           0        0.998074    1.009257   -0.112008
      6          1           0       -1.143003   -0.652187    0.095675
 ---------------------------------------------------------------------

 SCF Done:  E(RB2PLYPD3) =  -115.539673328     A.U. after   10 cycles
 E2(B2PLYPD3) =    -0.1456516461D+00 E(B2PLYPD3) =    -0.11568532497421D+03

 The electronic state is 1-A.
 Alpha  occ. eigenvalues --  -19.71206 -10.66407  -1.18243  -0.79604  -0.59742
 Alpha  occ. eigenvalues --   -0.51757  -0.50113  -0.41037  -0.35322
 Alpha virt. eigenvalues --    0.05332   0.08698   0.12134   0.12335   0.14770
 Alpha virt. eigenvalues --    0.16785   0.17911   0.29112   0.32743   0.33592
 Alpha virt. eigenvalues --    0.37554   0.39064   0.39737   0.40486   0.43199

 Mulliken charges:
               1
     1  C    0.065448
     2  O   -0.413244
     3  H    0.048700
     4  H    0.047073
     5  H    0.080252
     6  H    0.171770
 Sum of Mulliken charges =   0.00000

 Dipole moment (field-independent basis, Debye):
    X=              0.8329    Y=             -1.3465    Z=              0.1844  Tot=              1.5940
 Quadrupole moment (field-independent basis, Debye-Ang):
   XX=            -13.0713   YY=            -12.3057   ZZ=            -13.6646
   XY=              2.1307   XZ=             -0.1829   YZ=             -0.1077

 Normal termination of Gaussian 09 at Wed Aug 26 11:30:50 2020.
