 Gaussian 09, Revision D.01,
 Gaussian 09:  ES64L-G09RevD.01 24-Apr-2013

 --------------------
 #p B2PLYPD3/Def2QZVP
 --------------------

 --------
 methanol
 --------
 Symbolic Z-matrix:
 Charge =  0 Multiplicity = 1

                         Standard orientation:
 ---------------------------------------------------------------------
 Center     Atomic      Atomic             Coordinates (Angstroms)
 Number     Number       Type             X           Y           Z
 ---------------------------------------------------------------------
      1          6           0        0.669155   -0.016457    0.018647
      2          8           0       -0.750891    0.111778   -0.016028
      3          1           0        1.043695   -0.661182   -0.865054
      4          1           0        0.979936   -0.444331    0.928819
      5          1           0        1.094808    0.996015   -0.104407
      6          1           0       -1.126243   -0.685980    0.056984
 ---------------------------------------------------------------------

 SCF Done:  E(RB2PLYPD3) =  -115.544490881     A.U. after   10 cycles
 E2(B2PLYPD3) =    -0.1461326301D+00 E(B2PLYPD3) =    -0.11569062351133D+03

 The electronic state is 1-A.
 Alpha  occ. eigenvalues --  -19.71742 -10.66268  -1.17653  -0.79242  -0.59613
 Alpha  occ. eigenvalues --   -0.51817  -0.49912  -0.41147  -0.35496
 Alpha virt. eigenvalues --    0.05249   0.08525   0.12177   0.12338   0.14727
 Alpha virt. eigenvalues --    0.17267   0.17916   0.29092   0.33013   0.33058
 Alpha virt. eigenvalues --    0.36767   0.38720   0.39320   0.41122   0.43870

 Mulliken charges:
               1
     1  C    0.071010
     2  O   -0.429584
     3  H    0.039651
     4  H    0.056321
     5  H    0.073712
     6  H    0.188890
 Sum of Mulliken charges =   0.00000

 Dipole moment (field-independent basis, Debye):
    X=              0.9070    Y=             -1.4142    Z=              0.2217  Tot=              1.6946
 Quadrupole moment (field-independent basis, Debye-Ang):
   XX=            -13.0621   YY=            -12.3359   ZZ=            -13.6924
   XY=              2.2080   XZ=             -0.1418   YZ=             -0.1823

 Normal termination of Gaussian 09 at Thu Aug 27 00:05:05 2020.
