 Gaussian 09, Revision D.01,
 Gaussian 09:  ES64L-G09RevD.01 24-Apr-2013

 --------------------
 #p B2PLYPD3/Def2QZVP
 --------------------

 --------
 methanol
 --------
 Symbolic Z-matrix:
 Charge =  0 Multiplicity = 1

                         Standard orientation:
 ---------------------------------------------------------------------
 Center     Atomic      Atomic             Coordinates (Angstroms)
 Number     Number       Type             X           Y           Z
 ---------------------------------------------------------------------
      1          6           0       -0.662006   -0.030688    0.003037
      2          8           0        0.747466    0.103043   -0.002206
      3          1           0       -1.048492   -0.529715    0.891987
      4          1           0       -1.104436   -0.513939   -0.889887
      5          1           0       -1.003497    1.080051    0.008948
      6          1           0        1.148732   -0.676614   -0.011623
 ---------------------------------------------------------------------

 SCF Done:  E(RB2PLYPD3) =  -115.541676522     A.U. after   10 cycles
 E2(B2PLYPD3) =    -0.1462210789D+00 E(B2PLYPD3) =    -0.11568789760123D+03

 The electronic state is 1-A.
 Alpha  occ. eigenvalues --  -19.71934 -10.66640  -1.18206  -0.79076  -0.60340
 Alpha  occ. eigenvalues --   -0.51759  -0.49014  -0.40638  -0.35841
 Alpha virt. eigenvalues --    0.05271   0.08451   0.11894   0.12423   0.15126
 Alpha virt. eigenvalues --    0.16796   0.18302   0.28979   0.33366   0.33804
 Alpha virt. eigenvalues --    0.36852   0.38188   0.39743   0.40722   0.42353

 Mulliken charges:
               1
     1  C    0.054234
     2  O   -0.411326
     3  H    0.055924
     4  H    0.053688
     5  H    0.064246
     6  H    0.183234
 Sum of Mulliken charges =   0.00000

 Dipole moment (field-independent basis, Debye):
    X=             -0.7870    Y=             -1.4633    Z=             -0.0019  Tot=              1.6615
 Quadrupole moment (field-independent basis, Debye-Ang):
   XX=            -12.9502   YY=            -12.3884   ZZ=            -13.7738
   XY=             -1.9700   XZ=              0.0061   YZ=             -0.0067

 Normal termination of Gaussian 09 at Wed Aug 26 15:53:21 2020.
