 Gaussian 09, Revision D.01,
 Gaussian 09:  ES64L-G09RevD.01 24-Apr-2013

 --------------------
 #p B2PLYPD3/Def2QZVP
 --------------------

 --------
 methanol
 --------
 Symbolic Z-matrix:
 Charge =  0 Multiplicity = 1

                         Standard orientation:
 ---------------------------------------------------------------------
 Center     Atomic      Atomic             Coordinates (Angstroms)
 Number     Number       Type             X           Y           Z
 ---------------------------------------------------------------------
      1          6           0        0.682245    0.054877   -0.015984
      2          8           0       -0.729746   -0.182524    0.004940
      3          1           0        1.040952    0.412078    0.865282
      4          1           0        1.000256    0.595392   -0.712116
      5          1           0        1.056114   -0.891549   -0.093435
      6          1           0       -1.352824    1.015010   -0.003350
 ---------------------------------------------------------------------

 SCF Done:  E(RB2PLYPD3) =  -115.452508614     A.U. after   12 cycles
 E2(B2PLYPD3) =    -0.1543729837D+00 E(B2PLYPD3) =    -0.11560688159796D+03

 The electronic state is 1-A.
 Alpha  occ. eigenvalues --  -19.74770 -10.61976  -1.11297  -0.80017  -0.55774
 Alpha  occ. eigenvalues --   -0.52917  -0.48378  -0.39492  -0.35192
 Alpha virt. eigenvalues --   -0.00059   0.07479   0.12508   0.13113   0.14949
 Alpha virt. eigenvalues --    0.16937   0.18531   0.23251   0.29348   0.33667
 Alpha virt. eigenvalues --    0.34065   0.38884   0.39413   0.43044   0.45780

 Mulliken charges:
               1
     1  C    0.093444
     2  O   -0.496570
     3  H    0.049653
     4  H    0.052179
     5  H    0.062557
     6  H    0.238736
 Sum of Mulliken charges =   0.00000

 Dipole moment (field-independent basis, Debye):
    X=              0.9229    Y=              1.7081    Z=             -0.0606  Tot=              1.9424
 Quadrupole moment (field-independent basis, Debye-Ang):
   XX=            -12.4104   YY=            -11.7735   ZZ=            -13.9327
   XY=             -2.5510   XZ=             -0.0197   YZ=             -0.0924

 Normal termination of Gaussian 09 at Wed Aug 26 21:33:39 2020.
