 Gaussian 09, Revision D.01,
 Gaussian 09:  ES64L-G09RevD.01 24-Apr-2013

 --------------------
 #p B2PLYPD3/Def2QZVP
 --------------------

 --------
 methanol
 --------
 Symbolic Z-matrix:
 Charge =  0 Multiplicity = 1

                         Standard orientation:
 ---------------------------------------------------------------------
 Center     Atomic      Atomic             Coordinates (Angstroms)
 Number     Number       Type             X           Y           Z
 ---------------------------------------------------------------------
      1          6           0       -0.667015   -0.014962    0.000993
      2          8           0        0.742327    0.108591   -0.003544
      3          1           0       -1.015268   -0.498759    0.937483
      4          1           0       -0.970961   -0.596666   -0.909973
      5          1           0       -1.059714    0.987292   -0.045615
      6          1           0        1.109415   -0.670826    0.040501
 ---------------------------------------------------------------------

 SCF Done:  E(RB2PLYPD3) =  -115.542226188     A.U. after   10 cycles
 E2(B2PLYPD3) =    -0.1455552428D+00 E(B2PLYPD3) =    -0.11568778143061D+03

 The electronic state is 1-A.
 Alpha  occ. eigenvalues --  -19.71339 -10.66152  -1.18518  -0.79475  -0.59695
 Alpha  occ. eigenvalues --   -0.52006  -0.50539  -0.41110  -0.35405
 Alpha virt. eigenvalues --    0.05317   0.08754   0.12097   0.12468   0.14612
 Alpha virt. eigenvalues --    0.17148   0.17878   0.29045   0.32955   0.33480
 Alpha virt. eigenvalues --    0.37213   0.39414   0.40148   0.40497   0.43830

 Mulliken charges:
               1
     1  C    0.067718
     2  O   -0.412437
     3  H    0.047782
     4  H    0.046428
     5  H    0.076363
     6  H    0.174147
 Sum of Mulliken charges =   0.00000

 Dipole moment (field-independent basis, Debye):
    X=             -0.8833    Y=             -1.3763    Z=              0.0896  Tot=              1.6378
 Quadrupole moment (field-independent basis, Debye-Ang):
   XX=            -13.1706   YY=            -12.3251   ZZ=            -13.6067
   XY=             -2.1986   XZ=              0.0590   YZ=             -0.0624

 Normal termination of Gaussian 09 at Wed Aug 26 23:58:42 2020.
