 Gaussian 09, Revision D.01,
 Gaussian 09:  ES64L-G09RevD.01 24-Apr-2013

 --------------------
 #p B2PLYPD3/Def2QZVP
 --------------------

 --------
 methanol
 --------
 Symbolic Z-matrix:
 Charge =  0 Multiplicity = 1

                         Standard orientation:
 ---------------------------------------------------------------------
 Center     Atomic      Atomic             Coordinates (Angstroms)
 Number     Number       Type             X           Y           Z
 ---------------------------------------------------------------------
      1          6           0        0.680389    0.006034   -0.006861
      2          8           0       -0.748771   -0.136066   -0.008498
      3          1           0        1.009736    0.422254    0.941801
      4          1           0        0.951553    0.691715   -0.810743
      5          1           0        1.101919   -0.884017   -0.100882
      6          1           0       -1.155369    0.822374    0.078968
 ---------------------------------------------------------------------

 SCF Done:  E(RB2PLYPD3) =  -115.537617986     A.U. after   10 cycles
 E2(B2PLYPD3) =    -0.1486057843D+00 E(B2PLYPD3) =    -0.11568622377028D+03

 The electronic state is 1-A.
 Alpha  occ. eigenvalues --  -19.72870 -10.64488  -1.13953  -0.79130  -0.57064
 Alpha  occ. eigenvalues --   -0.51782  -0.50727  -0.41103  -0.34866
 Alpha virt. eigenvalues --    0.04302   0.08064   0.12305   0.12810   0.14597
 Alpha virt. eigenvalues --    0.17475   0.17946   0.29278   0.31930   0.32816
 Alpha virt. eigenvalues --    0.33178   0.39037   0.40591   0.42124   0.43639

 Mulliken charges:
               1
     1  C    0.083515
     2  O   -0.490992
     3  H    0.043241
     4  H    0.042879
     5  H    0.077275
     6  H    0.244082
 Sum of Mulliken charges =   0.00000

 Dipole moment (field-independent basis, Debye):
    X=              0.9690    Y=              1.5263    Z=              0.1389  Tot=              1.8133
 Quadrupole moment (field-independent basis, Debye-Ang):
   XX=            -13.0367   YY=            -12.0071   ZZ=            -13.7992
   XY=             -2.4976   XZ=             -0.1720   YZ=              0.0883

 Normal termination of Gaussian 09 at Wed Aug 26 12:01:00 2020.
