 Gaussian 09, Revision D.01,
 Gaussian 09:  ES64L-G09RevD.01 24-Apr-2013

 --------------------
 #p B2PLYPD3/Def2QZVP
 --------------------

 --------
 methanol
 --------
 Symbolic Z-matrix:
 Charge =  0 Multiplicity = 1

                         Standard orientation:
 ---------------------------------------------------------------------
 Center     Atomic      Atomic             Coordinates (Angstroms)
 Number     Number       Type             X           Y           Z
 ---------------------------------------------------------------------
      1          6           0        0.662402   -0.031806    0.028949
      2          8           0       -0.751969    0.136468   -0.028885
      3          1           0        1.012049   -0.664985   -0.825645
      4          1           0        0.949916   -0.361720    0.825874
      5          1           0        1.080905    1.003616   -0.086672
      6          1           0       -1.001528   -0.877817    0.143835
 ---------------------------------------------------------------------

 SCF Done:  E(RB2PLYPD3) =  -115.509691422     A.U. after   11 cycles
 E2(B2PLYPD3) =    -0.1493955620D+00 E(B2PLYPD3) =    -0.11565908698367D+03

 The electronic state is 1-A.
 Alpha  occ. eigenvalues --  -19.73521 -10.64126  -1.14927  -0.79449  -0.58170
 Alpha  occ. eigenvalues --   -0.53290  -0.48434  -0.41513  -0.35614
 Alpha virt. eigenvalues --    0.04070   0.08190   0.12097   0.12331   0.14853
 Alpha virt. eigenvalues --    0.17569   0.18191   0.28899   0.30462   0.33087
 Alpha virt. eigenvalues --    0.34347   0.37675   0.39323   0.42173   0.45123

 Mulliken charges:
               1
     1  C    0.065625
     2  O   -0.470002
     3  H    0.044279
     4  H    0.066190
     5  H    0.055391
     6  H    0.238517
 Sum of Mulliken charges =   0.00000

 Dipole moment (field-independent basis, Debye):
    X=              1.1209    Y=             -1.6335    Z=              0.4248  Tot=              2.0261
 Quadrupole moment (field-independent basis, Debye-Ang):
   XX=            -13.7609   YY=            -11.8310   ZZ=            -13.6638
   XY=              1.9869   XZ=             -0.1670   YZ=             -0.3010

 Normal termination of Gaussian 09 at Wed Aug 26 18:39:48 2020.
