 Gaussian 09, Revision D.01,
 Gaussian 09:  ES64L-G09RevD.01 24-Apr-2013

 --------------------
 #p B2PLYPD3/Def2QZVP
 --------------------

 --------
 methanol
 --------
 Symbolic Z-matrix:
 Charge =  0 Multiplicity = 1

                         Standard orientation:
 ---------------------------------------------------------------------
 Center     Atomic      Atomic             Coordinates (Angstroms)
 Number     Number       Type             X           Y           Z
 ---------------------------------------------------------------------
      1          6           0        0.647124    0.027079   -0.018560
      2          8           0       -0.733993   -0.169421    0.012913
      3          1           0        1.036658    0.576919    0.844001
      4          1           0        1.025018    0.463940   -0.817993
      5          1           0        1.148500   -0.838986    0.037765
      6          1           0       -1.220978    0.991017   -0.055719
 ---------------------------------------------------------------------

 SCF Done:  E(RB2PLYPD3) =  -115.484704897     A.U. after   11 cycles
 E2(B2PLYPD3) =    -0.1523190976D+00 E(B2PLYPD3) =    -0.11563702399471D+03

 The electronic state is 1-A.
 Alpha  occ. eigenvalues --  -19.74834 -10.62896  -1.13313  -0.79281  -0.55635
 Alpha  occ. eigenvalues --   -0.51986  -0.50487  -0.39861  -0.34986
 Alpha virt. eigenvalues --    0.01181   0.07497   0.12773   0.13000   0.14862
 Alpha virt. eigenvalues --    0.17926   0.18586   0.24608   0.29505   0.33431
 Alpha virt. eigenvalues --    0.35102   0.38955   0.40609   0.41780   0.44112

 Mulliken charges:
               1
     1  C    0.088736
     2  O   -0.482098
     3  H    0.034411
     4  H    0.043347
     5  H    0.057895
     6  H    0.257710
 Sum of Mulliken charges =   0.00000

 Dipole moment (field-independent basis, Debye):
    X=              0.8355    Y=              1.6707    Z=             -0.1934  Tot=              1.8780
 Quadrupole moment (field-independent basis, Debye-Ang):
   XX=            -12.7184   YY=            -11.9138   ZZ=            -13.9776
   XY=             -2.6278   XZ=              0.0309   YZ=             -0.1620

 Normal termination of Gaussian 09 at Wed Aug 26 16:38:48 2020.
