 Gaussian 09, Revision D.01,
 Gaussian 09:  ES64L-G09RevD.01 24-Apr-2013

 --------------------
 #p B2PLYPD3/Def2QZVP
 --------------------

 --------
 methanol
 --------
 Symbolic Z-matrix:
 Charge =  0 Multiplicity = 1

                         Standard orientation:
 ---------------------------------------------------------------------
 Center     Atomic      Atomic             Coordinates (Angstroms)
 Number     Number       Type             X           Y           Z
 ---------------------------------------------------------------------
      1          6           0       -0.662665   -0.039338   -0.008391
      2          8           0        0.741907    0.101549   -0.010661
      3          1           0       -0.939219   -0.452892    0.983498
      4          1           0       -1.008916   -0.659402   -0.826700
      5          1           0       -1.129211    1.089751   -0.063735
      6          1           0        1.118080   -0.553822    0.042565
 ---------------------------------------------------------------------

 SCF Done:  E(RB2PLYPD3) =  -115.480721438     A.U. after   10 cycles
 E2(B2PLYPD3) =    -0.1443512357D+00 E(B2PLYPD3) =    -0.11562507267327D+03

 The electronic state is 1-A.
 Alpha  occ. eigenvalues --  -19.70178 -10.67483  -1.21916  -0.80522  -0.61443
 Alpha  occ. eigenvalues --   -0.52811  -0.49275  -0.40236  -0.35976
 Alpha virt. eigenvalues --    0.05340   0.09087   0.11701   0.12167   0.14563
 Alpha virt. eigenvalues --    0.17012   0.17811   0.28907   0.32874   0.33354
 Alpha virt. eigenvalues --    0.35198   0.39211   0.40384   0.40879   0.43118

 Mulliken charges:
               1
     1  C    0.060568
     2  O   -0.308807
     3  H    0.052946
     4  H    0.059387
     5  H    0.063235
     6  H    0.072671
 Sum of Mulliken charges =   0.00000

 Dipole moment (field-independent basis, Debye):
    X=             -0.8360    Y=             -1.3876    Z=              0.1004  Tot=              1.6230
 Quadrupole moment (field-independent basis, Debye-Ang):
   XX=            -13.0593   YY=            -12.5183   ZZ=            -13.5577
   XY=             -1.9554   XZ=              0.2380   YZ=              0.0370

 Normal termination of Gaussian 09 at Wed Aug 26 11:43:40 2020.
