 Gaussian 09, Revision D.01,
 Gaussian 09:  ES64L-G09RevD.01 24-Apr-2013

 --------------------
 #p B2PLYPD3/Def2QZVP
 --------------------

 --------
 methanol
 --------
 Symbolic Z-matrix:
 Charge =  0 Multiplicity = 1

                         Standard orientation:
 ---------------------------------------------------------------------
 Center     Atomic      Atomic             Coordinates (Angstroms)
 Number     Number       Type             X           Y           Z
 ---------------------------------------------------------------------
      1          6           0        0.668398    0.007634    0.010999
      2          8           0       -0.746646   -0.095629   -0.050145
      3          1           0        1.101067   -0.017835    1.024153
      4          1           0        1.001396    1.036376   -0.548744
      5          1           0        1.134321   -0.831009   -0.456939
      6          1           0       -1.274001    0.531693    0.316695
 ---------------------------------------------------------------------

 SCF Done:  E(RB2PLYPD3) =  -115.536038697     A.U. after   11 cycles
 E2(B2PLYPD3) =    -0.1465758421D+00 E(B2PLYPD3) =    -0.11568261453892D+03

 The electronic state is 1-A.
 Alpha  occ. eigenvalues --  -19.71813 -10.67274  -1.16897  -0.79527  -0.59605
 Alpha  occ. eigenvalues --   -0.51152  -0.50194  -0.39545  -0.35068
 Alpha virt. eigenvalues --    0.05238   0.08037   0.11904   0.12775   0.14526
 Alpha virt. eigenvalues --    0.17158   0.18327   0.29038   0.31800   0.33360
 Alpha virt. eigenvalues --    0.36003   0.37772   0.39629   0.41102   0.43017

 Mulliken charges:
               1
     1  C    0.066924
     2  O   -0.442597
     3  H    0.053497
     4  H    0.033085
     5  H    0.083609
     6  H    0.205482
 Sum of Mulliken charges =   0.00000

 Dipole moment (field-independent basis, Debye):
    X=              0.6386    Y=              1.0332    Z=              0.7443  Tot=              1.4245
 Quadrupole moment (field-independent basis, Debye-Ang):
   XX=            -12.2364   YY=            -12.9847   ZZ=            -13.6676
   XY=             -2.2568   XZ=             -1.0030   YZ=              0.3972

 Normal termination of Gaussian 09 at Wed Aug 26 23:52:38 2020.
