 Gaussian 09, Revision D.01,
 Gaussian 09:  ES64L-G09RevD.01 24-Apr-2013

 --------------------
 #p B2PLYPD3/Def2QZVP
 --------------------

 --------
 methanol
 --------
 Symbolic Z-matrix:
 Charge =  0 Multiplicity = 1

                         Standard orientation:
 ---------------------------------------------------------------------
 Center     Atomic      Atomic             Coordinates (Angstroms)
 Number     Number       Type             X           Y           Z
 ---------------------------------------------------------------------
      1          6           0        0.658165    0.023040   -0.007512
      2          8           0       -0.754998   -0.151613    0.004611
      3          1           0        1.014472    0.565095    0.856440
      4          1           0        1.100528    0.432312   -0.854879
      5          1           0        1.098160   -0.886839    0.061670
      6          1           0       -1.122166    0.964095   -0.055049
 ---------------------------------------------------------------------

 SCF Done:  E(RB2PLYPD3) =  -115.511399796     A.U. after   11 cycles
 E2(B2PLYPD3) =    -0.1514405158D+00 E(B2PLYPD3) =    -0.11566284031201D+03

 The electronic state is 1-A.
 Alpha  occ. eigenvalues --  -19.74568 -10.63792  -1.13215  -0.78995  -0.55862
 Alpha  occ. eigenvalues --   -0.51998  -0.49618  -0.40795  -0.35393
 Alpha virt. eigenvalues --    0.02710   0.07594   0.12535   0.12788   0.14762
 Alpha virt. eigenvalues --    0.17666   0.18662   0.26760   0.29431   0.33335
 Alpha virt. eigenvalues --    0.34358   0.38522   0.40397   0.41793   0.43489

 Mulliken charges:
               1
     1  C    0.078984
     2  O   -0.482647
     3  H    0.041702
     4  H    0.046555
     5  H    0.060511
     6  H    0.254895
 Sum of Mulliken charges =   0.00000

 Dipole moment (field-independent basis, Debye):
    X=              1.0195    Y=              1.6297    Z=             -0.1153  Tot=              1.9257
 Quadrupole moment (field-independent basis, Debye-Ang):
   XX=            -13.1405   YY=            -11.8865   ZZ=            -13.9022
   XY=             -2.3931   XZ=              0.0133   YZ=             -0.0978

 Normal termination of Gaussian 09 at Wed Aug 26 15:35:28 2020.
