 Gaussian 09, Revision D.01,
 Gaussian 09:  ES64L-G09RevD.01 24-Apr-2013

 --------------------
 #p B2PLYPD3/Def2QZVP
 --------------------

 --------
 methanol
 --------
 Symbolic Z-matrix:
 Charge =  0 Multiplicity = 1

                         Standard orientation:
 ---------------------------------------------------------------------
 Center     Atomic      Atomic             Coordinates (Angstroms)
 Number     Number       Type             X           Y           Z
 ---------------------------------------------------------------------
      1          6           0       -0.642519    0.004494    0.028315
      2          8           0        0.747377   -0.164559   -0.023489
      3          1           0       -1.165974    0.648165   -0.740192
      4          1           0       -0.945515    0.434943    0.780155
      5          1           0       -1.107208   -0.882037   -0.067310
      6          1           0        1.094796    1.088435    0.045374
 ---------------------------------------------------------------------

 SCF Done:  E(RB2PLYPD3) =  -115.452699495     A.U. after   11 cycles
 E2(B2PLYPD3) =    -0.1538018802D+00 E(B2PLYPD3) =    -0.11560650137519D+03

 The electronic state is 1-A.
 Alpha  occ. eigenvalues --  -19.75458 -10.62665  -1.13306  -0.79942  -0.56856
 Alpha  occ. eigenvalues --   -0.51230  -0.49751  -0.40704  -0.34831
 Alpha virt. eigenvalues --    0.00236   0.07401   0.12453   0.13072   0.15053
 Alpha virt. eigenvalues --    0.18069   0.18254   0.23640   0.29787   0.32897
 Alpha virt. eigenvalues --    0.34995   0.37445   0.39783   0.41356   0.45010

 Mulliken charges:
               1
     1  C    0.089926
     2  O   -0.472618
     3  H    0.017790
     4  H    0.053514
     5  H    0.059688
     6  H    0.251700
 Sum of Mulliken charges =   0.00000

 Dipole moment (field-independent basis, Debye):
    X=             -1.0236    Y=              1.7193    Z=              0.2838  Tot=              2.0209
 Quadrupole moment (field-independent basis, Debye-Ang):
   XX=            -13.3424   YY=            -11.3644   ZZ=            -14.2227
   XY=              2.3153   XZ=              0.0238   YZ=              0.2692

 Normal termination of Gaussian 09 at Wed Aug 26 23:18:45 2020.
