 Gaussian 09, Revision D.01,
 Gaussian 09:  ES64L-G09RevD.01 24-Apr-2013

 --------------------
 #p B2PLYPD3/Def2QZVP
 --------------------

 --------
 methanol
 --------
 Symbolic Z-matrix:
 Charge =  0 Multiplicity = 1

                         Standard orientation:
 ---------------------------------------------------------------------
 Center     Atomic      Atomic             Coordinates (Angstroms)
 Number     Number       Type             X           Y           Z
 ---------------------------------------------------------------------
      1          6           0       -0.671396    0.011331    0.010919
      2          8           0        0.745359   -0.132351   -0.014550
      3          1           0       -1.036457    0.620881   -0.856647
      4          1           0       -0.990645    0.475156    0.887820
      5          1           0       -1.071874   -0.926320   -0.044458
      6          1           0        1.164480    0.821109    0.064172
 ---------------------------------------------------------------------

 SCF Done:  E(RB2PLYPD3) =  -115.540888954     A.U. after   11 cycles
 E2(B2PLYPD3) =    -0.1485274143D+00 E(B2PLYPD3) =    -0.11568941636798D+03

 The electronic state is 1-A.
 Alpha  occ. eigenvalues --  -19.73049 -10.64536  -1.14395  -0.78904  -0.57623
 Alpha  occ. eigenvalues --   -0.51558  -0.50343  -0.41171  -0.35011
 Alpha virt. eigenvalues --    0.04341   0.08027   0.12447   0.12677   0.14863
 Alpha virt. eigenvalues --    0.17342   0.18053   0.29197   0.32026   0.33222
 Alpha virt. eigenvalues --    0.33687   0.38876   0.40736   0.41021   0.44174

 Mulliken charges:
               1
     1  C    0.079524
     2  O   -0.484509
     3  H    0.039318
     4  H    0.047580
     5  H    0.074116
     6  H    0.243971
 Sum of Mulliken charges =   0.00000

 Dipole moment (field-independent basis, Debye):
    X=             -0.8988    Y=              1.5320    Z=              0.2036  Tot=              1.7878
 Quadrupole moment (field-independent basis, Debye-Ang):
   XX=            -12.9801   YY=            -12.0452   ZZ=            -13.8247
   XY=              2.4076   XZ=              0.1259   YZ=              0.1483

 Normal termination of Gaussian 09 at Wed Aug 26 14:58:06 2020.
