 Gaussian 09, Revision D.01,
 Gaussian 09:  ES64L-G09RevD.01 24-Apr-2013

 --------------------
 #p B2PLYPD3/Def2QZVP
 --------------------

 --------
 methanol
 --------
 Symbolic Z-matrix:
 Charge =  0 Multiplicity = 1

                         Standard orientation:
 ---------------------------------------------------------------------
 Center     Atomic      Atomic             Coordinates (Angstroms)
 Number     Number       Type             X           Y           Z
 ---------------------------------------------------------------------
      1          6           0        0.674149    0.020790    0.014141
      2          8           0       -0.737308   -0.151888   -0.017087
      3          1           0        0.991954    0.347049    0.894305
      4          1           0        1.063277    0.683396   -0.768372
      5          1           0        1.012168   -0.888661   -0.142869
      6          1           0       -1.213832    0.948582    0.068784
 ---------------------------------------------------------------------

 SCF Done:  E(RB2PLYPD3) =  -115.499174578     A.U. after   11 cycles
 E2(B2PLYPD3) =    -0.1514278569D+00 E(B2PLYPD3) =    -0.11565060243542D+03

 The electronic state is 1-A.
 Alpha  occ. eigenvalues --  -19.74052 -10.63009  -1.12673  -0.79173  -0.56496
 Alpha  occ. eigenvalues --   -0.52251  -0.49306  -0.40608  -0.35051
 Alpha virt. eigenvalues --    0.02439   0.07743   0.12593   0.12829   0.14964
 Alpha virt. eigenvalues --    0.17022   0.18369   0.26509   0.29503   0.33514
 Alpha virt. eigenvalues --    0.34253   0.38324   0.40278   0.42177   0.44565

 Mulliken charges:
               1
     1  C    0.083660
     2  O   -0.495597
     3  H    0.051308
     4  H    0.038636
     5  H    0.071241
     6  H    0.250750
 Sum of Mulliken charges =   0.00000

 Dipole moment (field-independent basis, Debye):
    X=              0.9224    Y=              1.6100    Z=              0.2006  Tot=              1.8663
 Quadrupole moment (field-independent basis, Debye-Ang):
   XX=            -12.9259   YY=            -11.7983   ZZ=            -13.8413
   XY=             -2.4550   XZ=             -0.1467   YZ=              0.1621

 Normal termination of Gaussian 09 at Wed Aug 26 11:08:41 2020.
