 Gaussian 09, Revision D.01,
 Gaussian 09:  ES64L-G09RevD.01 24-Apr-2013

 --------------------
 #p B2PLYPD3/Def2QZVP
 --------------------

 --------
 methanol
 --------
 Symbolic Z-matrix:
 Charge =  0 Multiplicity = 1

                         Standard orientation:
 ---------------------------------------------------------------------
 Center     Atomic      Atomic             Coordinates (Angstroms)
 Number     Number       Type             X           Y           Z
 ---------------------------------------------------------------------
      1          6           0       -0.661831   -0.002029    0.035792
      2          8           0        0.752964    0.102830   -0.033971
      3          1           0       -1.001487   -0.317834    0.955922
      4          1           0       -1.129217   -0.759060   -0.825601
      5          1           0       -1.053339    0.963237   -0.208157
      6          1           0        1.131311   -0.696812    0.134857
 ---------------------------------------------------------------------

 SCF Done:  E(RB2PLYPD3) =  -115.537857161     A.U. after   11 cycles
 E2(B2PLYPD3) =    -0.1466325784D+00 E(B2PLYPD3) =    -0.11568448973913D+03

 The electronic state is 1-A.
 Alpha  occ. eigenvalues --  -19.72314 -10.66430  -1.17636  -0.79357  -0.59902
 Alpha  occ. eigenvalues --   -0.51467  -0.49908  -0.41360  -0.35274
 Alpha virt. eigenvalues --    0.05156   0.08270   0.11993   0.12436   0.14882
 Alpha virt. eigenvalues --    0.17172   0.18231   0.28918   0.32362   0.33343
 Alpha virt. eigenvalues --    0.35808   0.37907   0.39861   0.41031   0.44264

 Mulliken charges:
               1
     1  C    0.066437
     2  O   -0.427928
     3  H    0.060091
     4  H    0.023749
     5  H    0.077128
     6  H    0.200523
 Sum of Mulliken charges =   0.00000

 Dipole moment (field-independent basis, Debye):
    X=             -0.8255    Y=             -1.2919    Z=              0.4898  Tot=              1.6095
 Quadrupole moment (field-independent basis, Debye-Ang):
   XX=            -13.0470   YY=            -12.4647   ZZ=            -13.7127
   XY=             -2.2392   XZ=              0.2987   YZ=             -0.4084

 Normal termination of Gaussian 09 at Wed Aug 26 14:35:29 2020.
