 Gaussian 09, Revision D.01,
 Gaussian 09:  ES64L-G09RevD.01 24-Apr-2013

 --------------------
 #p B2PLYPD3/Def2QZVP
 --------------------

 --------
 methanol
 --------
 Symbolic Z-matrix:
 Charge =  0 Multiplicity = 1

                         Standard orientation:
 ---------------------------------------------------------------------
 Center     Atomic      Atomic             Coordinates (Angstroms)
 Number     Number       Type             X           Y           Z
 ---------------------------------------------------------------------
      1          6           0        0.669604   -0.025693   -0.003067
      2          8           0       -0.754429    0.097002    0.001097
      3          1           0        1.071964   -0.534046   -0.885739
      4          1           0        1.078673   -0.520120    0.901747
      5          1           0        0.981400    1.099375   -0.005428
      6          1           0       -1.114230   -0.667067   -0.000951
 ---------------------------------------------------------------------

 SCF Done:  E(RB2PLYPD3) =  -115.532590814     A.U. after   10 cycles
 E2(B2PLYPD3) =    -0.1459416063D+00 E(B2PLYPD3) =    -0.11567853242054D+03

 The electronic state is 1-A.
 Alpha  occ. eigenvalues --  -19.71557 -10.66927  -1.18818  -0.79248  -0.60500
 Alpha  occ. eigenvalues --   -0.51630  -0.48730  -0.41150  -0.35970
 Alpha virt. eigenvalues --    0.05297   0.08603   0.11761   0.12336   0.15082
 Alpha virt. eigenvalues --    0.16741   0.18142   0.28962   0.32794   0.33617
 Alpha virt. eigenvalues --    0.36740   0.38800   0.39994   0.40534   0.41932

 Mulliken charges:
               1
     1  C    0.054003
     2  O   -0.391224
     3  H    0.057226
     4  H    0.055095
     5  H    0.066987
     6  H    0.157913
 Sum of Mulliken charges =   0.00000

 Dipole moment (field-independent basis, Debye):
    X=              0.8879    Y=             -1.4485    Z=             -0.0159  Tot=              1.6991
 Quadrupole moment (field-independent basis, Debye-Ang):
   XX=            -13.1336   YY=            -12.2956   ZZ=            -13.7439
   XY=              1.8732   XZ=             -0.0049   YZ=              0.0199

 Normal termination of Gaussian 09 at Wed Aug 26 11:05:53 2020.
