 Gaussian 09, Revision D.01,
 Gaussian 09:  ES64L-G09RevD.01 24-Apr-2013

 --------------------
 #p B2PLYPD3/Def2QZVP
 --------------------

 --------
 methanol
 --------
 Symbolic Z-matrix:
 Charge =  0 Multiplicity = 1

                         Standard orientation:
 ---------------------------------------------------------------------
 Center     Atomic      Atomic             Coordinates (Angstroms)
 Number     Number       Type             X           Y           Z
 ---------------------------------------------------------------------
      1          6           0        0.667983    0.034230    0.002530
      2          8           0       -0.748958   -0.145183   -0.012625
      3          1           0        1.053372    0.404146    0.892412
      4          1           0        1.033639    0.646762   -0.805429
      5          1           0        1.133361   -0.936119   -0.082174
      6          1           0       -1.236604    0.841298    0.081005
 ---------------------------------------------------------------------

 SCF Done:  E(RB2PLYPD3) =  -115.532378672     A.U. after   11 cycles
 E2(B2PLYPD3) =    -0.1498270756D+00 E(B2PLYPD3) =    -0.11568220574793D+03

 The electronic state is 1-A.
 Alpha  occ. eigenvalues --  -19.73727 -10.64628  -1.13403  -0.78611  -0.56625
 Alpha  occ. eigenvalues --   -0.51969  -0.49336  -0.40319  -0.35340
 Alpha virt. eigenvalues --    0.03780   0.07595   0.12530   0.12738   0.14859
 Alpha virt. eigenvalues --    0.17389   0.18493   0.28747   0.30064   0.33522
 Alpha virt. eigenvalues --    0.33818   0.38906   0.39617   0.41800   0.43808

 Mulliken charges:
               1
     1  C    0.076518
     2  O   -0.492294
     3  H    0.051607
     4  H    0.047507
     5  H    0.063435
     6  H    0.253227
 Sum of Mulliken charges =   0.00000

 Dipole moment (field-independent basis, Debye):
    X=              0.8325    Y=              1.6120    Z=              0.1922  Tot=              1.8244
 Quadrupole moment (field-independent basis, Debye-Ang):
   XX=            -12.5829   YY=            -12.2176   ZZ=            -13.9080
   XY=             -2.4761   XZ=             -0.1539   YZ=              0.0851

 Normal termination of Gaussian 09 at Wed Aug 26 16:10:27 2020.
