 Gaussian 09, Revision D.01,
 Gaussian 09:  ES64L-G09RevD.01 24-Apr-2013

 --------------------
 #p B2PLYPD3/Def2QZVP
 --------------------

 --------
 methanol
 --------
 Symbolic Z-matrix:
 Charge =  0 Multiplicity = 1

                         Standard orientation:
 ---------------------------------------------------------------------
 Center     Atomic      Atomic             Coordinates (Angstroms)
 Number     Number       Type             X           Y           Z
 ---------------------------------------------------------------------
      1          6           0        0.658379    0.006390    0.012960
      2          8           0       -0.763677   -0.032865   -0.067363
      3          1           0        0.857456   -0.376267    1.092677
      4          1           0        1.160683    1.147515   -0.220981
      5          1           0        1.187585   -0.808993   -0.703998
      6          1           0       -1.046587    0.262327    0.293447
 ---------------------------------------------------------------------

 SCF Done:  E(RB2PLYPD3) =  -115.001669544     A.U. after   12 cycles
 E2(B2PLYPD3) =    -0.1436528981D+00 E(B2PLYPD3) =    -0.11514532244244D+03

 The electronic state is 1-A.
 Alpha  occ. eigenvalues --  -19.68814 -10.70619  -1.31921  -0.83354  -0.62314
 Alpha  occ. eigenvalues --   -0.51454  -0.50521  -0.40240  -0.36536
 Alpha virt. eigenvalues --    0.04927   0.09328   0.11098   0.11790   0.13785
 Alpha virt. eigenvalues --    0.16884   0.17948   0.27757   0.31314   0.32273
 Alpha virt. eigenvalues --    0.34212   0.34783   0.38587   0.40852   0.44289

 Mulliken charges:
               1
     1  C    0.051024
     2  O   -0.093681
     3  H    0.054296
     4  H    0.046975
     5  H    0.081643
     6  H   -0.140257
 Sum of Mulliken charges =   0.00000

 Dipole moment (field-independent basis, Debye):
    X=              1.0485    Y=              0.5529    Z=              0.8744  Tot=              1.4729
 Quadrupole moment (field-independent basis, Debye-Ang):
   XX=            -13.1189   YY=            -12.9686   ZZ=            -13.1815
   XY=             -1.1546   XZ=             -1.5557   YZ=              0.3011

 Normal termination of Gaussian 09 at Wed Aug 26 20:21:02 2020.
