 Gaussian 09, Revision D.01,
 Gaussian 09:  ES64L-G09RevD.01 24-Apr-2013

 --------------------
 #p B2PLYPD3/Def2QZVP
 --------------------

 --------
 methanol
 --------
 Symbolic Z-matrix:
 Charge =  0 Multiplicity = 1

                         Standard orientation:
 ---------------------------------------------------------------------
 Center     Atomic      Atomic             Coordinates (Angstroms)
 Number     Number       Type             X           Y           Z
 ---------------------------------------------------------------------
      1          6           0       -0.673460    0.014291   -0.015131
      2          8           0        0.737502   -0.148351   -0.000962
      3          1           0       -1.016286    0.544851   -0.830809
      4          1           0       -1.064403    0.509584    0.864303
      5          1           0       -0.987906   -0.897831    0.026595
      6          1           0        1.209338    0.944463    0.038397
 ---------------------------------------------------------------------

 SCF Done:  E(RB2PLYPD3) =  -115.502519320     A.U. after   11 cycles
 E2(B2PLYPD3) =    -0.1512440806D+00 E(B2PLYPD3) =    -0.11565376340101D+03

 The electronic state is 1-A.
 Alpha  occ. eigenvalues --  -19.74018 -10.63141  -1.12856  -0.79087  -0.56951
 Alpha  occ. eigenvalues --   -0.51839  -0.49361  -0.40884  -0.34889
 Alpha virt. eigenvalues --    0.02595   0.07756   0.12639   0.12798   0.15028
 Alpha virt. eigenvalues --    0.16972   0.18338   0.26880   0.29537   0.33460
 Alpha virt. eigenvalues --    0.34323   0.38329   0.40267   0.42064   0.44090

 Mulliken charges:
               1
     1  C    0.079458
     2  O   -0.493939
     3  H    0.048422
     4  H    0.038744
     5  H    0.076355
     6  H    0.250960
 Sum of Mulliken charges =   0.00000

 Dipole moment (field-independent basis, Debye):
    X=             -0.9065    Y=              1.6119    Z=              0.0280  Tot=              1.8496
 Quadrupole moment (field-independent basis, Debye-Ang):
   XX=            -12.9388   YY=            -11.7520   ZZ=            -13.9115
   XY=              2.4276   XZ=              0.0819   YZ=             -0.0456

 Normal termination of Gaussian 09 at Wed Aug 26 11:42:00 2020.
