 Gaussian 09, Revision D.01,
 Gaussian 09:  ES64L-G09RevD.01 24-Apr-2013

 --------------------
 #p B2PLYPD3/Def2QZVP
 --------------------

 --------
 methanol
 --------
 Symbolic Z-matrix:
 Charge =  0 Multiplicity = 1

                         Standard orientation:
 ---------------------------------------------------------------------
 Center     Atomic      Atomic             Coordinates (Angstroms)
 Number     Number       Type             X           Y           Z
 ---------------------------------------------------------------------
      1          6           0       -0.655578   -0.018686   -0.012893
      2          8           0        0.754483   -0.123790   -0.024128
      3          1           0       -1.191627    0.647280   -0.815463
      4          1           0       -1.044510    0.407999    0.966241
      5          1           0       -0.982994   -0.866058    0.000537
      6          1           0        1.116736    0.913217    0.119065
 ---------------------------------------------------------------------

 SCF Done:  E(RB2PLYPD3) =  -115.498636685     A.U. after   11 cycles
 E2(B2PLYPD3) =    -0.1504450310D+00 E(B2PLYPD3) =    -0.11564908171636D+03

 The electronic state is 1-A.
 Alpha  occ. eigenvalues --  -19.74319 -10.64728  -1.14449  -0.79325  -0.57056
 Alpha  occ. eigenvalues --   -0.51496  -0.49676  -0.41747  -0.34661
 Alpha virt. eigenvalues --    0.03484   0.07573   0.12090   0.12981   0.15077
 Alpha virt. eigenvalues --    0.17249   0.18563   0.28345   0.30054   0.32701
 Alpha virt. eigenvalues --    0.34365   0.36878   0.38793   0.40896   0.43459

 Mulliken charges:
               1
     1  C    0.049420
     2  O   -0.468585
     3  H    0.038909
     4  H    0.029398
     5  H    0.094141
     6  H    0.256716
 Sum of Mulliken charges =   0.00000

 Dipole moment (field-independent basis, Debye):
    X=             -0.8697    Y=              1.4620    Z=              0.2683  Tot=              1.7222
 Quadrupole moment (field-independent basis, Debye-Ang):
   XX=            -13.2143   YY=            -11.8541   ZZ=            -14.0924
   XY=              2.3618   XZ=              0.3369   YZ=              0.1221

 Normal termination of Gaussian 09 at Wed Aug 26 21:23:30 2020.
