 Gaussian 09, Revision D.01,
 Gaussian 09:  ES64L-G09RevD.01 24-Apr-2013

 --------------------
 #p B2PLYPD3/Def2QZVP
 --------------------

 --------
 methanol
 --------
 Symbolic Z-matrix:
 Charge =  0 Multiplicity = 1

                         Standard orientation:
 ---------------------------------------------------------------------
 Center     Atomic      Atomic             Coordinates (Angstroms)
 Number     Number       Type             X           Y           Z
 ---------------------------------------------------------------------
      1          6           0        0.712439    0.006135    0.020885
      2          8           0       -0.769940   -0.044767   -0.054583
      3          1           0        1.071627   -0.583983    0.959975
      4          1           0        0.915895    1.207993    0.003383
      5          1           0        1.114711   -0.493563   -0.965253
      6          1           0       -1.217345    0.190878    0.313253
 ---------------------------------------------------------------------

 SCF Done:  E(RB2PLYPD3) =  -115.260225384     A.U. after   11 cycles
 E2(B2PLYPD3) =    -0.1444559929D+00 E(B2PLYPD3) =    -0.11540468137666D+03

 The electronic state is 1-A.
 Alpha  occ. eigenvalues --  -19.67472 -10.70792  -1.24499  -0.82449  -0.60421
 Alpha  occ. eigenvalues --   -0.50886  -0.49805  -0.38640  -0.35979
 Alpha virt. eigenvalues --    0.05013   0.09194   0.11251   0.11713   0.13229
 Alpha virt. eigenvalues --    0.16563   0.17565   0.28024   0.29345   0.32720
 Alpha virt. eigenvalues --    0.35464   0.36089   0.37690   0.41042   0.42407

 Mulliken charges:
               1
     1  C    0.065878
     2  O   -0.229911
     3  H    0.073002
     4  H    0.061377
     5  H    0.095116
     6  H   -0.065462
 Sum of Mulliken charges =   0.00000

 Dipole moment (field-independent basis, Debye):
    X=              1.1064    Y=              0.5117    Z=              0.8520  Tot=              1.4872
 Quadrupole moment (field-independent basis, Debye-Ang):
   XX=            -12.5857   YY=            -13.1797   ZZ=            -12.9639
   XY=             -1.2180   XZ=             -1.5297   YZ=              0.1482

 Normal termination of Gaussian 09 at Wed Aug 26 23:26:12 2020.
