 Gaussian 09, Revision D.01,
 Gaussian 09:  ES64L-G09RevD.01 24-Apr-2013

 --------------------
 #p B2PLYPD3/Def2QZVP
 --------------------

 --------
 methanol
 --------
 Symbolic Z-matrix:
 Charge =  0 Multiplicity = 1

                         Standard orientation:
 ---------------------------------------------------------------------
 Center     Atomic      Atomic             Coordinates (Angstroms)
 Number     Number       Type             X           Y           Z
 ---------------------------------------------------------------------
      1          6           0       -0.670392   -0.016090   -0.000288
      2          8           0        0.746387    0.105836    0.000901
      3          1           0       -1.042936   -0.534230    0.917178
      4          1           0       -1.001537   -0.601580   -0.893065
      5          1           0       -1.075333    1.027416   -0.040170
      6          1           0        1.171068   -0.641749    0.010576
 ---------------------------------------------------------------------

 SCF Done:  E(RB2PLYPD3) =  -115.540324355     A.U. after   10 cycles
 E2(B2PLYPD3) =    -0.1457343787D+00 E(B2PLYPD3) =    -0.11568605873387D+03

 The electronic state is 1-A.
 Alpha  occ. eigenvalues --  -19.71333 -10.66817  -1.18127  -0.79411  -0.59958
 Alpha  occ. eigenvalues --   -0.51363  -0.50062  -0.40713  -0.35401
 Alpha virt. eigenvalues --    0.05331   0.08573   0.12202   0.12258   0.14795
 Alpha virt. eigenvalues --    0.17030   0.17826   0.29141   0.33031   0.33280
 Alpha virt. eigenvalues --    0.37399   0.38986   0.39494   0.40029   0.42760

 Mulliken charges:
               1
     1  C    0.068167
     2  O   -0.415966
     3  H    0.049355
     4  H    0.047856
     5  H    0.076995
     6  H    0.173594
 Sum of Mulliken charges =   0.00000

 Dipole moment (field-independent basis, Debye):
    X=             -0.8133    Y=             -1.3862    Z=              0.0148  Tot=              1.6073
 Quadrupole moment (field-independent basis, Debye-Ang):
   XX=            -12.8613   YY=            -12.3886   ZZ=            -13.7661
   XY=             -2.1806   XZ=             -0.0030   YZ=             -0.0173

 Normal termination of Gaussian 09 at Thu Aug 27 00:04:18 2020.
