 Gaussian 09, Revision D.01,
 Gaussian 09:  ES64L-G09RevD.01 24-Apr-2013

 --------------------
 #p B2PLYPD3/Def2QZVP
 --------------------

 --------
 methanol
 --------
 Symbolic Z-matrix:
 Charge =  0 Multiplicity = 1

                         Standard orientation:
 ---------------------------------------------------------------------
 Center     Atomic      Atomic             Coordinates (Angstroms)
 Number     Number       Type             X           Y           Z
 ---------------------------------------------------------------------
      1          6           0        0.638565   -0.037011   -0.006948
      2          8           0       -0.742757    0.092433   -0.003197
      3          1           0        1.089979   -0.506369   -0.939302
      4          1           0        0.924145   -0.640015    0.939221
      5          1           0        1.220799    1.083808    0.101995
      6          1           0       -1.124254   -0.454818   -0.034650
 ---------------------------------------------------------------------

 SCF Done:  E(RB2PLYPD3) =  -115.360328641     A.U. after   11 cycles
 E2(B2PLYPD3) =    -0.1437897024D+00 E(B2PLYPD3) =    -0.11550411834369D+03

 The electronic state is 1-A.
 Alpha  occ. eigenvalues --  -19.69806 -10.69214  -1.26397  -0.82276  -0.62757
 Alpha  occ. eigenvalues --   -0.52373  -0.49952  -0.39155  -0.36253
 Alpha virt. eigenvalues --    0.05175   0.09112   0.11622   0.11972   0.14316
 Alpha virt. eigenvalues --    0.17310   0.17902   0.28473   0.32560   0.33317
 Alpha virt. eigenvalues --    0.34184   0.38440   0.38994   0.40620   0.43034

 Mulliken charges:
               1
     1  C    0.045865
     2  O   -0.203540
     3  H    0.056472
     4  H    0.048629
     5  H    0.061211
     6  H   -0.008637
 Sum of Mulliken charges =   0.00000

 Dipole moment (field-independent basis, Debye):
    X=              0.7132    Y=             -1.2454    Z=             -0.0931  Tot=              1.4381
 Quadrupole moment (field-independent basis, Debye-Ang):
   XX=            -12.7856   YY=            -12.9411   ZZ=            -13.5858
   XY=              1.9074   XZ=             -0.0674   YZ=              0.0666

 Normal termination of Gaussian 09 at Wed Aug 26 19:25:57 2020.
