 Gaussian 09, Revision D.01,
 Gaussian 09:  ES64L-G09RevD.01 24-Apr-2013

 --------------------
 #p B2PLYPD3/Def2QZVP
 --------------------

 --------
 methanol
 --------
 Symbolic Z-matrix:
 Charge =  0 Multiplicity = 1

                         Standard orientation:
 ---------------------------------------------------------------------
 Center     Atomic      Atomic             Coordinates (Angstroms)
 Number     Number       Type             X           Y           Z
 ---------------------------------------------------------------------
      1          6           0        0.644037    0.037184   -0.017996
      2          8           0       -0.718581   -0.146394    0.017110
      3          1           0        0.981644    0.628171    0.839798
      4          1           0        0.992024    0.440332   -0.834901
      5          1           0        1.078738   -0.970040    0.058875
      6          1           0       -1.167978    0.849583   -0.092679
 ---------------------------------------------------------------------

 SCF Done:  E(RB2PLYPD3) =  -115.525400410     A.U. after   11 cycles
 E2(B2PLYPD3) =    -0.1489030374D+00 E(B2PLYPD3) =    -0.11567430344721D+03

 The electronic state is 1-A.
 Alpha  occ. eigenvalues --  -19.73512 -10.63796  -1.15518  -0.78401  -0.58307
 Alpha  occ. eigenvalues --   -0.53028  -0.49761  -0.40185  -0.34988
 Alpha virt. eigenvalues --    0.03710   0.08000   0.12488   0.12680   0.15152
 Alpha virt. eigenvalues --    0.17346   0.18242   0.28814   0.30193   0.33221
 Alpha virt. eigenvalues --    0.35847   0.38422   0.39676   0.42245   0.45773

 Mulliken charges:
               1
     1  C    0.076386
     2  O   -0.468157
     3  H    0.038123
     4  H    0.046819
     5  H    0.057821
     6  H    0.249007
 Sum of Mulliken charges =   0.00000

 Dipole moment (field-independent basis, Debye):
    X=              0.7131    Y=              1.6381    Z=             -0.2853  Tot=              1.8092
 Quadrupole moment (field-independent basis, Debye-Ang):
   XX=            -13.0352   YY=            -12.0518   ZZ=            -13.8101
   XY=             -2.3244   XZ=              0.0879   YZ=             -0.1974

 Normal termination of Gaussian 09 at Wed Aug 26 20:13:55 2020.
