 Gaussian 09, Revision D.01,
 Gaussian 09:  ES64L-G09RevD.01 24-Apr-2013

 --------------------
 #p B2PLYPD3/Def2QZVP
 --------------------

 --------
 methanol
 --------
 Symbolic Z-matrix:
 Charge =  0 Multiplicity = 1

                         Standard orientation:
 ---------------------------------------------------------------------
 Center     Atomic      Atomic             Coordinates (Angstroms)
 Number     Number       Type             X           Y           Z
 ---------------------------------------------------------------------
      1          6           0       -0.648791   -0.029655    0.009777
      2          8           0        0.740118    0.098003   -0.019536
      3          1           0       -0.970188   -0.455525    0.958120
      4          1           0       -1.016357   -0.687973   -0.866704
      5          1           0       -1.152214    1.075541   -0.086401
      6          1           0        1.110557   -0.538134    0.092613
 ---------------------------------------------------------------------

 SCF Done:  E(RB2PLYPD3) =  -115.469177830     A.U. after   10 cycles
 E2(B2PLYPD3) =    -0.1441915479D+00 E(B2PLYPD3) =    -0.11561336937787D+03

 The electronic state is 1-A.
 Alpha  occ. eigenvalues --  -19.70388 -10.67909  -1.23054  -0.80659  -0.61956
 Alpha  occ. eigenvalues --   -0.52253  -0.49903  -0.40178  -0.35908
 Alpha virt. eigenvalues --    0.05318   0.09065   0.11803   0.12111   0.14629
 Alpha virt. eigenvalues --    0.17222   0.17729   0.28760   0.32845   0.33894
 Alpha virt. eigenvalues --    0.35275   0.38413   0.40211   0.40762   0.42939

 Mulliken charges:
               1
     1  C    0.055851
     2  O   -0.284107
     3  H    0.054429
     4  H    0.046548
     5  H    0.064902
     6  H    0.062376
 Sum of Mulliken charges =   0.00000

 Dipole moment (field-independent basis, Debye):
    X=             -0.7660    Y=             -1.3141    Z=              0.3013  Tot=              1.5506
 Quadrupole moment (field-independent basis, Debye-Ang):
   XX=            -13.0274   YY=            -12.6295   ZZ=            -13.6091
   XY=             -1.9705   XZ=              0.2716   YZ=             -0.1488

 Normal termination of Gaussian 09 at Wed Aug 26 15:02:55 2020.
