 Gaussian 09, Revision D.01,
 Gaussian 09:  ES64L-G09RevD.01 24-Apr-2013

 --------------------
 #p B2PLYPD3/Def2QZVP
 --------------------

 --------
 methanol
 --------
 Symbolic Z-matrix:
 Charge =  0 Multiplicity = 1

                         Standard orientation:
 ---------------------------------------------------------------------
 Center     Atomic      Atomic             Coordinates (Angstroms)
 Number     Number       Type             X           Y           Z
 ---------------------------------------------------------------------
      1          6           0        0.662386    0.014342    0.003465
      2          8           0       -0.747713   -0.137296   -0.005315
      3          1           0        1.040225    0.470516    0.887475
      4          1           0        0.981631    0.591026   -0.870054
      5          1           0        1.102828   -0.902149   -0.049480
      6          1           0       -1.117293    0.852919    0.053791
 ---------------------------------------------------------------------

 SCF Done:  E(RB2PLYPD3) =  -115.539102690     A.U. after   11 cycles
 E2(B2PLYPD3) =    -0.1488142906D+00 E(B2PLYPD3) =    -0.11568791698025D+03

 The electronic state is 1-A.
 Alpha  occ. eigenvalues --  -19.73379 -10.64362  -1.14614  -0.78841  -0.57279
 Alpha  occ. eigenvalues --   -0.52010  -0.50335  -0.41175  -0.35162
 Alpha virt. eigenvalues --    0.04173   0.08006   0.12388   0.12796   0.14729
 Alpha virt. eigenvalues --    0.17667   0.18210   0.29069   0.31228   0.33162
 Alpha virt. eigenvalues --    0.34064   0.39078   0.40828   0.41531   0.43735

 Mulliken charges:
               1
     1  C    0.077019
     2  O   -0.478430
     3  H    0.044349
     4  H    0.041409
     5  H    0.068971
     6  H    0.246682
 Sum of Mulliken charges =   0.00000

 Dipole moment (field-independent basis, Debye):
    X=              0.9572    Y=              1.5531    Z=              0.1185  Tot=              1.8283
 Quadrupole moment (field-independent basis, Debye-Ang):
   XX=            -13.1381   YY=            -12.0358   ZZ=            -13.7925
   XY=             -2.3980   XZ=             -0.0484   YZ=              0.0908

 Normal termination of Gaussian 09 at Wed Aug 26 10:25:49 2020.
