 Gaussian 09, Revision D.01,
 Gaussian 09:  ES64L-G09RevD.01 24-Apr-2013

 --------------------
 #p B2PLYPD3/Def2QZVP
 --------------------

 --------
 methanol
 --------
 Symbolic Z-matrix:
 Charge =  0 Multiplicity = 1

                         Standard orientation:
 ---------------------------------------------------------------------
 Center     Atomic      Atomic             Coordinates (Angstroms)
 Number     Number       Type             X           Y           Z
 ---------------------------------------------------------------------
      1          6           0        0.633747    0.049036    0.008366
      2          8           0       -0.720476   -0.193064   -0.023653
      3          1           0        0.971327    0.303703    0.877266
      4          1           0        1.089295    0.671741   -0.715830
      5          1           0        1.201293   -0.786804   -0.107778
      6          1           0       -1.300589    1.061654    0.085368
 ---------------------------------------------------------------------

 SCF Done:  E(RB2PLYPD3) =  -115.445731819     A.U. after   12 cycles
 E2(B2PLYPD3) =    -0.1547482594D+00 E(B2PLYPD3) =    -0.11560048007825D+03

 The electronic state is 1-A.
 Alpha  occ. eigenvalues --  -19.75493 -10.62184  -1.13401  -0.79674  -0.53902
 Alpha  occ. eigenvalues --   -0.53204  -0.50654  -0.38206  -0.35242
 Alpha virt. eigenvalues --   -0.01380   0.07289   0.12766   0.13272   0.14758
 Alpha virt. eigenvalues --    0.18044   0.18965   0.22117   0.29361   0.33742
 Alpha virt. eigenvalues --    0.35865   0.39116   0.40610   0.42831   0.43428

 Mulliken charges:
               1
     1  C    0.086514
     2  O   -0.470696
     3  H    0.049605
     4  H    0.038997
     5  H    0.046065
     6  H    0.249514
 Sum of Mulliken charges =   0.00000

 Dipole moment (field-independent basis, Debye):
    X=              0.7901    Y=              1.7010    Z=              0.2252  Tot=              1.8890
 Quadrupole moment (field-independent basis, Debye-Ang):
   XX=            -12.4157   YY=            -11.9832   ZZ=            -13.9947
   XY=             -2.7325   XZ=             -0.2167   YZ=              0.0779

 Normal termination of Gaussian 09 at Wed Aug 26 18:45:35 2020.
