 Gaussian 09, Revision D.01,
 Gaussian 09:  ES64L-G09RevD.01 24-Apr-2013

 --------------------
 #p B2PLYPD3/Def2QZVP
 --------------------

 --------
 methanol
 --------
 Symbolic Z-matrix:
 Charge =  0 Multiplicity = 1

                         Standard orientation:
 ---------------------------------------------------------------------
 Center     Atomic      Atomic             Coordinates (Angstroms)
 Number     Number       Type             X           Y           Z
 ---------------------------------------------------------------------
      1          6           0       -0.703365    0.014272   -0.025241
      2          8           0        0.762878   -0.168024    0.006163
      3          1           0       -1.076554    0.385525   -0.841404
      4          1           0       -0.990715    0.579847    0.860157
      5          1           0       -1.000705   -0.790411    0.135695
      6          1           0        1.185143    1.083597   -0.052305
 ---------------------------------------------------------------------

 SCF Done:  E(RB2PLYPD3) =  -115.427459253     A.U. after   11 cycles
 E2(B2PLYPD3) =    -0.1549390328D+00 E(B2PLYPD3) =    -0.11558239828593D+03

 The electronic state is 1-A.
 Alpha  occ. eigenvalues --  -19.74821 -10.61910  -1.10265  -0.81272  -0.56403
 Alpha  occ. eigenvalues --   -0.52067  -0.47998  -0.40581  -0.35299
 Alpha virt. eigenvalues --    0.00471   0.07479   0.12387   0.12943   0.14333
 Alpha virt. eigenvalues --    0.17104   0.18674   0.23738   0.29012   0.31954
 Alpha virt. eigenvalues --    0.33872   0.37359   0.41434   0.42262   0.44469

 Mulliken charges:
               1
     1  C    0.054020
     2  O   -0.506509
     3  H    0.056083
     4  H    0.044585
     5  H    0.109287
     6  H    0.242534
 Sum of Mulliken charges =   0.00000

 Dipole moment (field-independent basis, Debye):
    X=             -1.2548    Y=              1.6205    Z=             -0.1180  Tot=              2.0529
 Quadrupole moment (field-independent basis, Debye-Ang):
   XX=            -13.1250   YY=            -11.5461   ZZ=            -13.7107
   XY=              2.4933   XZ=              0.0277   YZ=             -0.2018

 Normal termination of Gaussian 09 at Wed Aug 26 21:47:12 2020.
