 Gaussian 09, Revision D.01,
 Gaussian 09:  ES64L-G09RevD.01 24-Apr-2013

 --------------------
 #p B2PLYPD3/Def2QZVP
 --------------------

 --------
 methanol
 --------
 Symbolic Z-matrix:
 Charge =  0 Multiplicity = 1

                         Standard orientation:
 ---------------------------------------------------------------------
 Center     Atomic      Atomic             Coordinates (Angstroms)
 Number     Number       Type             X           Y           Z
 ---------------------------------------------------------------------
      1          6           0        0.662028   -0.018377    0.001544
      2          8           0       -0.748918    0.103977   -0.009944
      3          1           0        1.079098   -0.636464   -0.865639
      4          1           0        1.033256   -0.469405    0.956985
      5          1           0        1.085873    1.024721   -0.064125
      6          1           0       -1.179046   -0.640405    0.043070
 ---------------------------------------------------------------------

 SCF Done:  E(RB2PLYPD3) =  -115.539194501     A.U. after   10 cycles
 E2(B2PLYPD3) =    -0.1459250505D+00 E(B2PLYPD3) =    -0.11568511955181D+03

 The electronic state is 1-A.
 Alpha  occ. eigenvalues --  -19.71682 -10.67163  -1.18403  -0.79255  -0.60143
 Alpha  occ. eigenvalues --   -0.51100  -0.50025  -0.40511  -0.35517
 Alpha virt. eigenvalues --    0.05330   0.08419   0.12169   0.12296   0.14817
 Alpha virt. eigenvalues --    0.17069   0.18098   0.29028   0.33152   0.33525
 Alpha virt. eigenvalues --    0.36838   0.38983   0.39162   0.39833   0.42523

 Mulliken charges:
               1
     1  C    0.061881
     2  O   -0.409194
     3  H    0.046657
     4  H    0.049835
     5  H    0.074185
     6  H    0.176638
 Sum of Mulliken charges =   0.00000

 Dipole moment (field-independent basis, Debye):
    X=              0.7611    Y=             -1.3648    Z=              0.1234  Tot=              1.5675
 Quadrupole moment (field-independent basis, Debye-Ang):
   XX=            -12.7595   YY=            -12.5209   ZZ=            -13.8077
   XY=              2.1746   XZ=             -0.1581   YZ=             -0.0616

 Normal termination of Gaussian 09 at Thu Aug 27 00:04:37 2020.
