 Gaussian 09, Revision D.01,
 Gaussian 09:  ES64L-G09RevD.01 24-Apr-2013

 --------------------
 #p B2PLYPD3/Def2QZVP
 --------------------

 --------
 methanol
 --------
 Symbolic Z-matrix:
 Charge =  0 Multiplicity = 1

                         Standard orientation:
 ---------------------------------------------------------------------
 Center     Atomic      Atomic             Coordinates (Angstroms)
 Number     Number       Type             X           Y           Z
 ---------------------------------------------------------------------
      1          6           0       -0.658664   -0.026683    0.016308
      2          8           0        0.747047    0.092046   -0.017218
      3          1           0       -1.031728   -0.421462    0.956513
      4          1           0       -1.096778   -0.703461   -0.849471
      5          1           0       -1.100895    1.094171   -0.131595
      6          1           0        1.205009   -0.545521    0.064448
 ---------------------------------------------------------------------

 SCF Done:  E(RB2PLYPD3) =  -115.498426359     A.U. after   10 cycles
 E2(B2PLYPD3) =    -0.1451876784D+00 E(B2PLYPD3) =    -0.11564361403735D+03

 The electronic state is 1-A.
 Alpha  occ. eigenvalues --  -19.70903 -10.68328  -1.20563  -0.80255  -0.61473
 Alpha  occ. eigenvalues --   -0.51219  -0.49364  -0.39676  -0.35786
 Alpha virt. eigenvalues --    0.05327   0.08617   0.11668   0.12239   0.14845
 Alpha virt. eigenvalues --    0.16910   0.18022   0.28960   0.33017   0.33369
 Alpha virt. eigenvalues --    0.35432   0.37739   0.39652   0.40728   0.41766

 Mulliken charges:
               1
     1  C    0.053673
     2  O   -0.337818
     3  H    0.061849
     4  H    0.044215
     5  H    0.068443
     6  H    0.109637
 Sum of Mulliken charges =   0.00000

 Dipole moment (field-independent basis, Debye):
    X=             -0.6719    Y=             -1.3004    Z=              0.2655  Tot=              1.4876
 Quadrupole moment (field-independent basis, Debye-Ang):
   XX=            -12.5942   YY=            -12.7324   ZZ=            -13.7819
   XY=             -1.9781   XZ=              0.1798   YZ=             -0.1579

 Normal termination of Gaussian 09 at Wed Aug 26 16:20:56 2020.
