 Gaussian 09, Revision D.01,
 Gaussian 09:  ES64L-G09RevD.01 24-Apr-2013

 --------------------
 #p B2PLYPD3/Def2QZVP
 --------------------

 --------
 methanol
 --------
 Symbolic Z-matrix:
 Charge =  0 Multiplicity = 1

                         Standard orientation:
 ---------------------------------------------------------------------
 Center     Atomic      Atomic             Coordinates (Angstroms)
 Number     Number       Type             X           Y           Z
 ---------------------------------------------------------------------
      1          6           0       -0.663779   -0.014652   -0.004199
      2          8           0        0.754323    0.099405   -0.003044
      3          1           0       -0.982792   -0.589712    0.941170
      4          1           0       -1.060094   -0.532214   -0.937367
      5          1           0       -1.116133    1.016977    0.052952
      6          1           0        1.107107   -0.602382   -0.007204
 ---------------------------------------------------------------------

 SCF Done:  E(RB2PLYPD3) =  -115.506460639     A.U. after   10 cycles
 E2(B2PLYPD3) =    -0.1449220516D+00 E(B2PLYPD3) =    -0.11565138269075D+03

 The electronic state is 1-A.
 Alpha  occ. eigenvalues --  -19.70847 -10.67631  -1.20843  -0.79888  -0.60649
 Alpha  occ. eigenvalues --   -0.51408  -0.50357  -0.40942  -0.35761
 Alpha virt. eigenvalues --    0.05384   0.08831   0.11940   0.12243   0.14472
 Alpha virt. eigenvalues --    0.17257   0.17882   0.28841   0.32638   0.33173
 Alpha virt. eigenvalues --    0.36878   0.39022   0.39305   0.39814   0.43051

 Mulliken charges:
               1
     1  C    0.060144
     2  O   -0.340132
     3  H    0.045531
     4  H    0.050867
     5  H    0.077070
     6  H    0.106520
 Sum of Mulliken charges =   0.00000

 Dipole moment (field-independent basis, Debye):
    X=             -0.9094    Y=             -1.3016    Z=             -0.0142  Tot=              1.5878
 Quadrupole moment (field-independent basis, Debye-Ang):
   XX=            -13.0617   YY=            -12.5190   ZZ=            -13.6499
   XY=             -2.1321   XZ=              0.0601   YZ=              0.0449

 Normal termination of Gaussian 09 at Wed Aug 26 10:36:48 2020.
