 Gaussian 09, Revision D.01,
 Gaussian 09:  ES64L-G09RevD.01 24-Apr-2013

 --------------------
 #p B2PLYPD3/Def2QZVP
 --------------------

 --------
 methanol
 --------
 Symbolic Z-matrix:
 Charge =  0 Multiplicity = 1

                         Standard orientation:
 ---------------------------------------------------------------------
 Center     Atomic      Atomic             Coordinates (Angstroms)
 Number     Number       Type             X           Y           Z
 ---------------------------------------------------------------------
      1          6           0        0.672886    0.035262   -0.008457
      2          8           0       -0.727273   -0.160684    0.010409
      3          1           0        1.036454    0.524734    0.826202
      4          1           0        0.881596    0.567626   -0.808508
      5          1           0        1.107827   -0.911457   -0.047334
      6          1           0       -1.245014    0.892996   -0.002889
 ---------------------------------------------------------------------

 SCF Done:  E(RB2PLYPD3) =  -115.508625236     A.U. after   11 cycles
 E2(B2PLYPD3) =    -0.1503863259D+00 E(B2PLYPD3) =    -0.11565901156206D+03

 The electronic state is 1-A.
 Alpha  occ. eigenvalues --  -19.73515 -10.62816  -1.12990  -0.79071  -0.56557
 Alpha  occ. eigenvalues --   -0.53245  -0.49477  -0.40230  -0.34861
 Alpha virt. eigenvalues --    0.02854   0.07815   0.12630   0.12862   0.14927
 Alpha virt. eigenvalues --    0.17397   0.17967   0.27362   0.29645   0.33066
 Alpha virt. eigenvalues --    0.34396   0.39776   0.39875   0.42893   0.44412

 Mulliken charges:
               1
     1  C    0.092342
     2  O   -0.501010
     3  H    0.043792
     4  H    0.046550
     5  H    0.066777
     6  H    0.251549
 Sum of Mulliken charges =   0.00000

 Dipole moment (field-independent basis, Debye):
    X=              0.8500    Y=              1.6844    Z=             -0.0653  Tot=              1.8879
 Quadrupole moment (field-independent basis, Debye-Ang):
   XX=            -12.6996   YY=            -11.8936   ZZ=            -13.8387
   XY=             -2.5393   XZ=              0.1013   YZ=             -0.0443

 Normal termination of Gaussian 09 at Wed Aug 26 12:51:57 2020.
