 Gaussian 09, Revision D.01,
 Gaussian 09:  ES64L-G09RevD.01 24-Apr-2013

 --------------------
 #p B2PLYPD3/Def2QZVP
 --------------------

 --------
 methanol
 --------
 Symbolic Z-matrix:
 Charge =  0 Multiplicity = 1

                         Standard orientation:
 ---------------------------------------------------------------------
 Center     Atomic      Atomic             Coordinates (Angstroms)
 Number     Number       Type             X           Y           Z
 ---------------------------------------------------------------------
      1          6           0       -0.656472    0.015359   -0.002576
      2          8           0        0.740222   -0.134909   -0.006261
      3          1           0       -1.033177    0.583680   -0.850599
      4          1           0       -1.008754    0.482505    0.909370
      5          1           0       -1.082841   -0.916745   -0.025938
      6          1           0        1.141826    0.837677    0.032714
 ---------------------------------------------------------------------

 SCF Done:  E(RB2PLYPD3) =  -115.541640355     A.U. after   11 cycles
 E2(B2PLYPD3) =    -0.1485358408D+00 E(B2PLYPD3) =    -0.11569017619619D+03

 The electronic state is 1-A.
 Alpha  occ. eigenvalues --  -19.73331 -10.64473  -1.15082  -0.78624  -0.57675
 Alpha  occ. eigenvalues --   -0.51846  -0.50535  -0.40971  -0.35060
 Alpha virt. eigenvalues --    0.04222   0.08019   0.12445   0.12786   0.14881
 Alpha virt. eigenvalues --    0.17487   0.18251   0.29075   0.31524   0.33280
 Alpha virt. eigenvalues --    0.34511   0.39066   0.40826   0.41198   0.43743

 Mulliken charges:
               1
     1  C    0.073558
     2  O   -0.473844
     3  H    0.042010
     4  H    0.041767
     5  H    0.069652
     6  H    0.246858
 Sum of Mulliken charges =   0.00000

 Dipole moment (field-independent basis, Debye):
    X=             -0.8547    Y=              1.5424    Z=              0.0698  Tot=              1.7648
 Quadrupole moment (field-independent basis, Debye-Ang):
   XX=            -13.0401   YY=            -12.0778   ZZ=            -13.8340
   XY=              2.4012   XZ=              0.1030   YZ=              0.0267

 Normal termination of Gaussian 09 at Wed Aug 26 22:43:47 2020.
