 Gaussian 09, Revision D.01,
 Gaussian 09:  ES64L-G09RevD.01 24-Apr-2013

 --------------------
 #p B2PLYPD3/Def2QZVP
 --------------------

 --------
 methanol
 --------
 Symbolic Z-matrix:
 Charge =  0 Multiplicity = 1

                         Standard orientation:
 ---------------------------------------------------------------------
 Center     Atomic      Atomic             Coordinates (Angstroms)
 Number     Number       Type             X           Y           Z
 ---------------------------------------------------------------------
      1          6           0        0.655856    0.030184   -0.010991
      2          8           0       -0.739033   -0.141724    0.006470
      3          1           0        1.013717    0.566935    0.859911
      4          1           0        1.034834    0.494082   -0.841064
      5          1           0        1.105169   -0.951085    0.032727
      6          1           0       -1.176594    0.842758   -0.037385
 ---------------------------------------------------------------------

 SCF Done:  E(RB2PLYPD3) =  -115.536887454     A.U. after   11 cycles
 E2(B2PLYPD3) =    -0.1490014166D+00 E(B2PLYPD3) =    -0.11568588887104D+03

 The electronic state is 1-A.
 Alpha  occ. eigenvalues --  -19.73550 -10.64330  -1.14655  -0.78572  -0.57652
 Alpha  occ. eigenvalues --   -0.52234  -0.49712  -0.40611  -0.35222
 Alpha virt. eigenvalues --    0.04001   0.07871   0.12579   0.12657   0.15005
 Alpha virt. eigenvalues --    0.17452   0.18322   0.28999   0.30751   0.33456
 Alpha virt. eigenvalues --    0.34671   0.38896   0.39698   0.41956   0.44476

 Mulliken charges:
               1
     1  C    0.076326
     2  O   -0.478179
     3  H    0.042146
     4  H    0.048215
     5  H    0.062375
     6  H    0.249116
 Sum of Mulliken charges =   0.00000

 Dipole moment (field-independent basis, Debye):
    X=              0.8197    Y=              1.6191    Z=             -0.1217  Tot=              1.8189
 Quadrupole moment (field-independent basis, Debye-Ang):
   XX=            -12.8763   YY=            -12.1072   ZZ=            -13.8719
   XY=             -2.3690   XZ=              0.0159   YZ=             -0.1023

 Normal termination of Gaussian 09 at Thu Aug 27 00:03:52 2020.
