 Gaussian 09, Revision D.01,
 Gaussian 09:  ES64L-G09RevD.01 24-Apr-2013

 --------------------
 #p B2PLYPD3/Def2QZVP
 --------------------

 --------
 methanol
 --------
 Symbolic Z-matrix:
 Charge =  0 Multiplicity = 1

                         Standard orientation:
 ---------------------------------------------------------------------
 Center     Atomic      Atomic             Coordinates (Angstroms)
 Number     Number       Type             X           Y           Z
 ---------------------------------------------------------------------
      1          6           0       -0.656754    0.027995   -0.000863
      2          8           0        0.738967   -0.146263   -0.003174
      3          1           0       -1.010198    0.567737   -0.831411
      4          1           0       -1.053744    0.504289    0.838546
      5          1           0       -1.094602   -0.947831   -0.013701
      6          1           0        1.187333    0.877939    0.037131
 ---------------------------------------------------------------------

 SCF Done:  E(RB2PLYPD3) =  -115.529526493     A.U. after   11 cycles
 E2(B2PLYPD3) =    -0.1497545602D+00 E(B2PLYPD3) =    -0.11567928105298D+03

 The electronic state is 1-A.
 Alpha  occ. eigenvalues --  -19.73842 -10.64046  -1.14113  -0.78550  -0.57221
 Alpha  occ. eigenvalues --   -0.52113  -0.49578  -0.40653  -0.35141
 Alpha virt. eigenvalues --    0.03520   0.07774   0.12542   0.12780   0.15096
 Alpha virt. eigenvalues --    0.17410   0.18289   0.28534   0.29894   0.33519
 Alpha virt. eigenvalues --    0.34730   0.38927   0.39641   0.42116   0.44226

 Mulliken charges:
               1
     1  C    0.079438
     2  O   -0.482556
     3  H    0.044019
     4  H    0.043645
     5  H    0.063309
     6  H    0.252144
 Sum of Mulliken charges =   0.00000

 Dipole moment (field-independent basis, Debye):
    X=             -0.8318    Y=              1.6518    Z=              0.0761  Tot=              1.8510
 Quadrupole moment (field-independent basis, Debye-Ang):
   XX=            -12.8632   YY=            -11.9838   ZZ=            -13.9521
   XY=              2.3793   XZ=              0.0341   YZ=              0.0349

 Normal termination of Gaussian 09 at Thu Aug 27 00:09:14 2020.
