 Gaussian 09, Revision D.01,
 Gaussian 09:  ES64L-G09RevD.01 24-Apr-2013

 --------------------
 #p B2PLYPD3/Def2QZVP
 --------------------

 --------
 methanol
 --------
 Symbolic Z-matrix:
 Charge =  0 Multiplicity = 1

                         Standard orientation:
 ---------------------------------------------------------------------
 Center     Atomic      Atomic             Coordinates (Angstroms)
 Number     Number       Type             X           Y           Z
 ---------------------------------------------------------------------
      1          6           0       -0.664909   -0.034730   -0.006436
      2          8           0        0.756055    0.079838   -0.035547
      3          1           0       -1.059389   -0.094589    1.076909
      4          1           0       -0.831154   -0.973546   -0.655302
      5          1           0       -1.174059    0.996579   -0.405890
      6          1           0        1.005617   -0.358767    0.307272
 ---------------------------------------------------------------------

 SCF Done:  E(RB2PLYPD3) =  -115.237571332     A.U. after   11 cycles
 E2(B2PLYPD3) =    -0.1434835784D+00 E(B2PLYPD3) =    -0.11538105491074D+03

 The electronic state is 1-A.
 Alpha  occ. eigenvalues --  -19.68710 -10.69079  -1.28775  -0.81664  -0.61936
 Alpha  occ. eigenvalues --   -0.53029  -0.49429  -0.40845  -0.36491
 Alpha virt. eigenvalues --    0.05155   0.09450   0.11482   0.11658   0.13978
 Alpha virt. eigenvalues --    0.17061   0.17623   0.28252   0.31362   0.33252
 Alpha virt. eigenvalues --    0.34503   0.37630   0.38309   0.41450   0.43873

 Mulliken charges:
               1
     1  C    0.057333
     2  O   -0.182438
     3  H    0.047113
     4  H    0.063717
     5  H    0.071325
     6  H   -0.057050
 Sum of Mulliken charges =   0.00000

 Dipole moment (field-independent basis, Debye):
    X=             -1.0901    Y=             -0.9484    Z=              0.7525  Tot=              1.6292
 Quadrupole moment (field-independent basis, Debye-Ang):
   XX=            -13.4523   YY=            -12.7244   ZZ=            -13.1500
   XY=             -1.7043   XZ=              0.8278   YZ=             -0.2333

 Normal termination of Gaussian 09 at Wed Aug 26 23:54:54 2020.
