 Gaussian 09, Revision D.01,
 Gaussian 09:  ES64L-G09RevD.01 24-Apr-2013

 --------------------
 #p B2PLYPD3/Def2QZVP
 --------------------

 --------
 methanol
 --------
 Symbolic Z-matrix:
 Charge =  0 Multiplicity = 1

                         Standard orientation:
 ---------------------------------------------------------------------
 Center     Atomic      Atomic             Coordinates (Angstroms)
 Number     Number       Type             X           Y           Z
 ---------------------------------------------------------------------
      1          6           0        0.693498    0.069809    0.010045
      2          8           0       -0.734493   -0.206594   -0.005868
      3          1           0        0.900982    0.451303    0.761058
      4          1           0        0.959677    0.594644   -0.705149
      5          1           0        1.203102   -0.873143   -0.070003
      6          1           0       -1.348807    1.061094    0.000770
 ---------------------------------------------------------------------

 SCF Done:  E(RB2PLYPD3) =  -115.395825692     A.U. after   12 cycles
 E2(B2PLYPD3) =    -0.1556087133D+00 E(B2PLYPD3) =    -0.11555143440516D+03

 The electronic state is 1-A.
 Alpha  occ. eigenvalues --  -19.74880 -10.60898  -1.10375  -0.81594  -0.56025
 Alpha  occ. eigenvalues --   -0.53882  -0.47729  -0.39062  -0.35526
 Alpha virt. eigenvalues --   -0.01213   0.07369   0.12359   0.13196   0.14621
 Alpha virt. eigenvalues --    0.17715   0.17955   0.22294   0.29445   0.32734
 Alpha virt. eigenvalues --    0.33657   0.38139   0.40248   0.43606   0.45608

 Mulliken charges:
               1
     1  C    0.063642
     2  O   -0.503635
     3  H    0.094317
     4  H    0.057680
     5  H    0.058152
     6  H    0.229844
 Sum of Mulliken charges =   0.00000

 Dipole moment (field-independent basis, Debye):
    X=              1.0801    Y=              1.8366    Z=              0.0351  Tot=              2.1310
 Quadrupole moment (field-independent basis, Debye-Ang):
   XX=            -12.4347   YY=            -11.6124   ZZ=            -13.8703
   XY=             -2.6001   XZ=             -0.0410   YZ=              0.0186

 Normal termination of Gaussian 09 at Wed Aug 26 23:49:35 2020.
