 Gaussian 09, Revision D.01,
 Gaussian 09:  ES64L-G09RevD.01 24-Apr-2013

 --------------------
 #p B2PLYPD3/Def2QZVP
 --------------------

 --------
 methanol
 --------
 Symbolic Z-matrix:
 Charge =  0 Multiplicity = 1

                         Standard orientation:
 ---------------------------------------------------------------------
 Center     Atomic      Atomic             Coordinates (Angstroms)
 Number     Number       Type             X           Y           Z
 ---------------------------------------------------------------------
      1          6           0        0.668907    0.030753   -0.013553
      2          8           0       -0.746516   -0.161383    0.003027
      3          1           0        0.986590    0.498534    0.827380
      4          1           0        1.002386    0.546620   -0.742021
      5          1           0        1.070530   -0.948446   -0.014334
      6          1           0       -1.100823    1.009842   -0.013922
 ---------------------------------------------------------------------

 SCF Done:  E(RB2PLYPD3) =  -115.487635625     A.U. after   11 cycles
 E2(B2PLYPD3) =    -0.1521061924D+00 E(B2PLYPD3) =    -0.11563974181736D+03

 The electronic state is 1-A.
 Alpha  occ. eigenvalues --  -19.74425 -10.62549  -1.12596  -0.79714  -0.56597
 Alpha  occ. eigenvalues --   -0.53122  -0.48337  -0.41065  -0.35299
 Alpha virt. eigenvalues --    0.01993   0.07784   0.12299   0.12913   0.14956
 Alpha virt. eigenvalues --    0.17494   0.18076   0.25663   0.29610   0.33457
 Alpha virt. eigenvalues --    0.34130   0.38718   0.39709   0.42981   0.45217

 Mulliken charges:
               1
     1  C    0.102329
     2  O   -0.490009
     3  H    0.041129
     4  H    0.043052
     5  H    0.059350
     6  H    0.244148
 Sum of Mulliken charges =   0.00000

 Dipole moment (field-independent basis, Debye):
    X=              1.1318    Y=              1.7628    Z=             -0.0533  Tot=              2.0955
 Quadrupole moment (field-independent basis, Debye-Ang):
   XX=            -13.4016   YY=            -11.4502   ZZ=            -13.9228
   XY=             -2.1643   XZ=             -0.0245   YZ=             -0.0843

 Normal termination of Gaussian 09 at Wed Aug 26 12:30:14 2020.
