 Gaussian 09, Revision D.01,
 Gaussian 09:  ES64L-G09RevD.01 24-Apr-2013

 --------------------
 #p B2PLYPD3/Def2QZVP
 --------------------

 --------
 methanol
 --------
 Symbolic Z-matrix:
 Charge =  0 Multiplicity = 1

                         Standard orientation:
 ---------------------------------------------------------------------
 Center     Atomic      Atomic             Coordinates (Angstroms)
 Number     Number       Type             X           Y           Z
 ---------------------------------------------------------------------
      1          6           0        0.655278   -0.029396   -0.012705
      2          8           0       -0.752340    0.081337    0.007886
      3          1           0        1.043799   -0.603816   -0.897932
      4          1           0        1.146315   -0.470634    0.978755
      5          1           0        1.041411    1.126185   -0.075366
      6          1           0       -1.144471   -0.526056    0.007689
 ---------------------------------------------------------------------

 SCF Done:  E(RB2PLYPD3) =  -115.441921320     A.U. after   11 cycles
 E2(B2PLYPD3) =    -0.1446318079D+00 E(B2PLYPD3) =    -0.11558655312828D+03

 The electronic state is 1-A.
 Alpha  occ. eigenvalues --  -19.70425 -10.68952  -1.23368  -0.80916  -0.61891
 Alpha  occ. eigenvalues --   -0.51257  -0.49385  -0.40034  -0.36120
 Alpha virt. eigenvalues --    0.05284   0.08849   0.11527   0.12008   0.14800
 Alpha virt. eigenvalues --    0.16715   0.18201   0.28706   0.32898   0.33243
 Alpha virt. eigenvalues --    0.35501   0.37302   0.39548   0.40340   0.41787

 Mulliken charges:
               1
     1  C    0.040121
     2  O   -0.256628
     3  H    0.060172
     4  H    0.049681
     5  H    0.068145
     6  H    0.038510
 Sum of Mulliken charges =   0.00000

 Dipole moment (field-independent basis, Debye):
    X=              0.7460    Y=             -1.2692    Z=             -0.0716  Tot=              1.4739
 Quadrupole moment (field-independent basis, Debye-Ang):
   XX=            -12.8540   YY=            -12.7109   ZZ=            -13.7052
   XY=              1.8219   XZ=             -0.0014   YZ=              0.0807

 Normal termination of Gaussian 09 at Wed Aug 26 16:30:25 2020.
