 Gaussian 09, Revision D.01,
 Gaussian 09:  ES64L-G09RevD.01 24-Apr-2013

 --------------------
 #p B2PLYPD3/Def2QZVP
 --------------------

 --------
 methanol
 --------
 Symbolic Z-matrix:
 Charge =  0 Multiplicity = 1

                         Standard orientation:
 ---------------------------------------------------------------------
 Center     Atomic      Atomic             Coordinates (Angstroms)
 Number     Number       Type             X           Y           Z
 ---------------------------------------------------------------------
      1          6           0       -0.635165    0.001333    0.026093
      2          8           0        0.725896   -0.102654   -0.027348
      3          1           0       -0.941322    0.929097   -0.725722
      4          1           0       -1.080640    0.202195    0.980767
      5          1           0       -1.118859   -0.909366   -0.378034
      6          1           0        1.144643    0.591306    0.185218
 ---------------------------------------------------------------------

 SCF Done:  E(RB2PLYPD3) =  -115.523663715     A.U. after   11 cycles
 E2(B2PLYPD3) =    -0.1450907603D+00 E(B2PLYPD3) =    -0.11566875447519D+03

 The electronic state is 1-A.
 Alpha  occ. eigenvalues --  -19.71682 -10.67030  -1.20857  -0.79961  -0.61630
 Alpha  occ. eigenvalues --   -0.51616  -0.51585  -0.40205  -0.34774
 Alpha virt. eigenvalues --    0.05225   0.08654   0.11979   0.12527   0.14777
 Alpha virt. eigenvalues --    0.17388   0.18019   0.28859   0.31973   0.34765
 Alpha virt. eigenvalues --    0.36406   0.38784   0.40130   0.41364   0.42974

 Mulliken charges:
               1
     1  C    0.055586
     2  O   -0.361382
     3  H    0.013146
     4  H    0.053557
     5  H    0.075239
     6  H    0.163854
 Sum of Mulliken charges =   0.00000

 Dipole moment (field-independent basis, Debye):
    X=             -0.5654    Y=              1.1552    Z=              0.5368  Tot=              1.3937
 Quadrupole moment (field-independent basis, Debye-Ang):
   XX=            -12.8561   YY=            -12.8037   ZZ=            -13.6941
   XY=              2.2936   XZ=              0.3626   YZ=              0.4345

 Normal termination of Gaussian 09 at Wed Aug 26 19:19:41 2020.
