 Gaussian 09, Revision D.01,
 Gaussian 09:  ES64L-G09RevD.01 24-Apr-2013

 --------------------
 #p B2PLYPD3/Def2QZVP
 --------------------

 --------
 methanol
 --------
 Symbolic Z-matrix:
 Charge =  0 Multiplicity = 1

                         Standard orientation:
 ---------------------------------------------------------------------
 Center     Atomic      Atomic             Coordinates (Angstroms)
 Number     Number       Type             X           Y           Z
 ---------------------------------------------------------------------
      1          6           0        0.660745   -0.023814    0.008816
      2          8           0       -0.751296    0.110091   -0.003337
      3          1           0        1.002987   -0.643387   -0.869528
      4          1           0        1.065819   -0.467203    0.911334
      5          1           0        1.112370    1.033317   -0.102952
      6          1           0       -1.135275   -0.660574    0.034946
 ---------------------------------------------------------------------

 SCF Done:  E(RB2PLYPD3) =  -115.539400854     A.U. after   10 cycles
 E2(B2PLYPD3) =    -0.1459057947D+00 E(B2PLYPD3) =    -0.11568530664920D+03

 The electronic state is 1-A.
 Alpha  occ. eigenvalues --  -19.71757 -10.66840  -1.18579  -0.79147  -0.60296
 Alpha  occ. eigenvalues --   -0.51656  -0.49598  -0.40830  -0.35692
 Alpha virt. eigenvalues --    0.05282   0.08510   0.12094   0.12313   0.14829
 Alpha virt. eigenvalues --    0.17259   0.18005   0.29051   0.33021   0.33550
 Alpha virt. eigenvalues --    0.36750   0.38177   0.39500   0.40789   0.42887

 Mulliken charges:
               1
     1  C    0.064456
     2  O   -0.407149
     3  H    0.044965
     4  H    0.055223
     5  H    0.067466
     6  H    0.175040
 Sum of Mulliken charges =   0.00000

 Dipole moment (field-independent basis, Debye):
    X=              0.8460    Y=             -1.4388    Z=              0.1070  Tot=              1.6725
 Quadrupole moment (field-independent basis, Debye-Ang):
   XX=            -12.9521   YY=            -12.4225   ZZ=            -13.7784
   XY=              2.1272   XZ=             -0.0089   YZ=             -0.0917

 Normal termination of Gaussian 09 at Wed Aug 26 09:57:19 2020.
