 Gaussian 09, Revision D.01,
 Gaussian 09:  ES64L-G09RevD.01 24-Apr-2013

 --------------------
 #p B2PLYPD3/Def2QZVP
 --------------------

 --------
 methanol
 --------
 Symbolic Z-matrix:
 Charge =  0 Multiplicity = 1

                         Standard orientation:
 ---------------------------------------------------------------------
 Center     Atomic      Atomic             Coordinates (Angstroms)
 Number     Number       Type             X           Y           Z
 ---------------------------------------------------------------------
      1          6           0       -0.667752   -0.025627   -0.006029
      2          8           0        0.755451    0.122282    0.003893
      3          1           0       -1.056312   -0.547747    0.883780
      4          1           0       -1.068257   -0.529043   -0.861131
      5          1           0       -1.086555    1.009314    0.005910
      6          1           0        1.174034   -0.757021   -0.023530
 ---------------------------------------------------------------------

 SCF Done:  E(RB2PLYPD3) =  -115.550760655     A.U. after   10 cycles
 E2(B2PLYPD3) =    -0.1477948706D+00 E(B2PLYPD3) =    -0.11569855552530D+03

 The electronic state is 1-A.
 Alpha  occ. eigenvalues --  -19.72857 -10.65881  -1.15511  -0.78588  -0.58633
 Alpha  occ. eigenvalues --   -0.51379  -0.49235  -0.40984  -0.35528
 Alpha virt. eigenvalues --    0.04902   0.07996   0.12260   0.12506   0.14981
 Alpha virt. eigenvalues --    0.17196   0.18253   0.29074   0.33123   0.33677
 Alpha virt. eigenvalues --    0.34680   0.38077   0.39582   0.40901   0.43452

 Mulliken charges:
               1
     1  C    0.067744
     2  O   -0.464431
     3  H    0.048635
     4  H    0.052607
     5  H    0.067176
     6  H    0.228269
 Sum of Mulliken charges =   0.00000

 Dipole moment (field-independent basis, Debye):
    X=             -0.8627    Y=             -1.5373    Z=             -0.0770  Tot=              1.7645
 Quadrupole moment (field-independent basis, Debye-Ang):
   XX=            -12.8332   YY=            -12.2655   ZZ=            -13.8897
   XY=             -2.2309   XZ=             -0.0160   YZ=              0.0612

 Normal termination of Gaussian 09 at Thu Aug 27 00:02:48 2020.
