 Gaussian 09, Revision D.01,
 Gaussian 09:  ES64L-G09RevD.01 24-Apr-2013

 --------------------
 #p B2PLYPD3/Def2QZVP
 --------------------

 --------
 methanol
 --------
 Symbolic Z-matrix:
 Charge =  0 Multiplicity = 1

                         Standard orientation:
 ---------------------------------------------------------------------
 Center     Atomic      Atomic             Coordinates (Angstroms)
 Number     Number       Type             X           Y           Z
 ---------------------------------------------------------------------
      1          6           0        0.684262    0.033725   -0.014533
      2          8           0       -0.749396   -0.157112    0.010169
      3          1           0        1.076544    0.517705    0.838506
      4          1           0        0.978489    0.524763   -0.799994
      5          1           0        1.059495   -0.935196   -0.017195
      6          1           0       -1.224936    0.947271   -0.015466
 ---------------------------------------------------------------------

 SCF Done:  E(RB2PLYPD3) =  -115.501093662     A.U. after   11 cycles
 E2(B2PLYPD3) =    -0.1517881468D+00 E(B2PLYPD3) =    -0.11565288180872D+03

 The electronic state is 1-A.
 Alpha  occ. eigenvalues --  -19.74136 -10.63216  -1.11838  -0.79400  -0.56149
 Alpha  occ. eigenvalues --   -0.52423  -0.48435  -0.40758  -0.35277
 Alpha virt. eigenvalues --    0.02503   0.07619   0.12456   0.12830   0.14920
 Alpha virt. eigenvalues --    0.17139   0.18289   0.26514   0.29438   0.33182
 Alpha virt. eigenvalues --    0.33704   0.39062   0.39504   0.42248   0.44751

 Mulliken charges:
               1
     1  C    0.089810
     2  O   -0.503326
     3  H    0.047056
     4  H    0.051323
     5  H    0.066553
     6  H    0.248584
 Sum of Mulliken charges =   0.00000

 Dipole moment (field-independent basis, Debye):
    X=              1.0033    Y=              1.6886    Z=             -0.1009  Tot=              1.9668
 Quadrupole moment (field-independent basis, Debye-Ang):
   XX=            -12.8434   YY=            -11.7804   ZZ=            -13.9035
   XY=             -2.4072   XZ=              0.0512   YZ=             -0.0930

 Normal termination of Gaussian 09 at Wed Aug 26 14:12:24 2020.
