 Gaussian 09, Revision D.01,
 Gaussian 09:  ES64L-G09RevD.01 24-Apr-2013

 --------------------
 #p B2PLYPD3/Def2QZVP
 --------------------

 --------
 methanol
 --------
 Symbolic Z-matrix:
 Charge =  0 Multiplicity = 1

                         Standard orientation:
 ---------------------------------------------------------------------
 Center     Atomic      Atomic             Coordinates (Angstroms)
 Number     Number       Type             X           Y           Z
 ---------------------------------------------------------------------
      1          6           0        0.670645    0.020465    0.000277
      2          8           0       -0.746287   -0.145627    0.000587
      3          1           0        1.007210    0.494079    0.878970
      4          1           0        0.973457    0.561118   -0.851417
      5          1           0        1.097851   -0.901518   -0.041479
      6          1           0       -1.132094    0.888543    0.007563
 ---------------------------------------------------------------------

 SCF Done:  E(RB2PLYPD3) =  -115.530227717     A.U. after   11 cycles
 E2(B2PLYPD3) =    -0.1495902206D+00 E(B2PLYPD3) =    -0.11567981793713D+03

 The electronic state is 1-A.
 Alpha  occ. eigenvalues --  -19.73482 -10.63764  -1.13627  -0.78963  -0.56678
 Alpha  occ. eigenvalues --   -0.52521  -0.49845  -0.41063  -0.35158
 Alpha virt. eigenvalues --    0.03734   0.07955   0.12479   0.12755   0.14687
 Alpha virt. eigenvalues --    0.17599   0.18126   0.28820   0.30117   0.33314
 Alpha virt. eigenvalues --    0.33714   0.39356   0.40980   0.41997   0.43655

 Mulliken charges:
               1
     1  C    0.084831
     2  O   -0.491290
     3  H    0.045915
     4  H    0.044056
     5  H    0.067366
     6  H    0.249122
 Sum of Mulliken charges =   0.00000

 Dipole moment (field-independent basis, Debye):
    X=              1.0046    Y=              1.6112    Z=              0.0046  Tot=              1.8988
 Quadrupole moment (field-independent basis, Debye-Ang):
   XX=            -13.1504   YY=            -11.9158   ZZ=            -13.7612
   XY=             -2.4123   XZ=              0.0003   YZ=              0.0124

 Normal termination of Gaussian 09 at Thu Aug 27 00:08:50 2020.
