 Gaussian 09, Revision D.01,
 Gaussian 09:  ES64L-G09RevD.01 24-Apr-2013

 --------------------
 #p B2PLYPD3/Def2QZVP
 --------------------

 --------
 methanol
 --------
 Symbolic Z-matrix:
 Charge =  0 Multiplicity = 1

                         Standard orientation:
 ---------------------------------------------------------------------
 Center     Atomic      Atomic             Coordinates (Angstroms)
 Number     Number       Type             X           Y           Z
 ---------------------------------------------------------------------
      1          6           0       -0.660292    0.022995    0.012379
      2          8           0        0.746184   -0.158686   -0.018263
      3          1           0       -1.005142    0.639095   -0.828342
      4          1           0       -1.025140    0.391507    0.861909
      5          1           0       -1.135238   -0.857058   -0.071843
      6          1           0        1.157799    0.957974    0.110107
 ---------------------------------------------------------------------

 SCF Done:  E(RB2PLYPD3) =  -115.502132921     A.U. after   11 cycles
 E2(B2PLYPD3) =    -0.1514125341D+00 E(B2PLYPD3) =    -0.11565354545545D+03

 The electronic state is 1-A.
 Alpha  occ. eigenvalues --  -19.74396 -10.63297  -1.13021  -0.79298  -0.55717
 Alpha  occ. eigenvalues --   -0.52317  -0.49956  -0.40491  -0.35189
 Alpha virt. eigenvalues --    0.02376   0.07638   0.12525   0.12918   0.14692
 Alpha virt. eigenvalues --    0.17840   0.18505   0.26324   0.29467   0.33263
 Alpha virt. eigenvalues --    0.34242   0.38864   0.40680   0.41954   0.43883

 Mulliken charges:
               1
     1  C    0.087879
     2  O   -0.488684
     3  H    0.038989
     4  H    0.045392
     5  H    0.060576
     6  H    0.255848
 Sum of Mulliken charges =   0.00000

 Dipole moment (field-independent basis, Debye):
    X=             -0.9764    Y=              1.6329    Z=              0.2783  Tot=              1.9228
 Quadrupole moment (field-independent basis, Debye-Ang):
   XX=            -13.0096   YY=            -11.9048   ZZ=            -13.8452
   XY=              2.5181   XZ=              0.1302   YZ=              0.1857

 Normal termination of Gaussian 09 at Wed Aug 26 14:10:22 2020.
