 Gaussian 09, Revision D.01,
 Gaussian 09:  ES64L-G09RevD.01 24-Apr-2013

 --------------------
 #p B2PLYPD3/Def2QZVP
 --------------------

 --------
 methanol
 --------
 Symbolic Z-matrix:
 Charge =  0 Multiplicity = 1

                         Standard orientation:
 ---------------------------------------------------------------------
 Center     Atomic      Atomic             Coordinates (Angstroms)
 Number     Number       Type             X           Y           Z
 ---------------------------------------------------------------------
      1          6           0        0.693541   -0.040628   -0.005263
      2          8           0       -0.767693    0.097798   -0.004237
      3          1           0        0.979586   -0.737758   -0.771735
      4          1           0        1.131291   -0.219858    0.987709
      5          1           0        0.955311    1.075887   -0.259139
      6          1           0       -1.085889   -0.656888    0.108636
 ---------------------------------------------------------------------

 SCF Done:  E(RB2PLYPD3) =  -115.521376520     A.U. after   11 cycles
 E2(B2PLYPD3) =    -0.1462678986D+00 E(B2PLYPD3) =    -0.11566764441823D+03

 The electronic state is 1-A.
 Alpha  occ. eigenvalues --  -19.71077 -10.66987  -1.18379  -0.79377  -0.59691
 Alpha  occ. eigenvalues --   -0.52663  -0.47528  -0.41419  -0.36251
 Alpha virt. eigenvalues --    0.05299   0.08569   0.11597   0.12203   0.14606
 Alpha virt. eigenvalues --    0.16611   0.18367   0.28580   0.31178   0.33667
 Alpha virt. eigenvalues --    0.36098   0.38994   0.40620   0.40697   0.42443

 Mulliken charges:
               1
     1  C    0.053512
     2  O   -0.389836
     3  H    0.066333
     4  H    0.065659
     5  H    0.065957
     6  H    0.138374
 Sum of Mulliken charges =   0.00000

 Dipole moment (field-independent basis, Debye):
    X=              1.0816    Y=             -1.4390    Z=              0.1979  Tot=              1.8111
 Quadrupole moment (field-independent basis, Debye-Ang):
   XX=            -13.3383   YY=            -12.2729   ZZ=            -13.5516
   XY=              1.8299   XZ=             -0.1348   YZ=             -0.0249

 Normal termination of Gaussian 09 at Wed Aug 26 22:56:04 2020.
