 Gaussian 09, Revision D.01,
 Gaussian 09:  ES64L-G09RevD.01 24-Apr-2013

 --------------------
 #p B2PLYPD3/Def2QZVP
 --------------------

 --------
 methanol
 --------
 Symbolic Z-matrix:
 Charge =  0 Multiplicity = 1

                         Standard orientation:
 ---------------------------------------------------------------------
 Center     Atomic      Atomic             Coordinates (Angstroms)
 Number     Number       Type             X           Y           Z
 ---------------------------------------------------------------------
      1          6           0        0.653260    0.010156   -0.002610
      2          8           0       -0.729254   -0.167156   -0.005471
      3          1           0        1.039644    0.460412    0.858372
      4          1           0        0.966969    0.633050   -0.802618
      5          1           0        1.124908   -0.804143   -0.057006
      6          1           0       -1.217047    0.986993    0.060683
 ---------------------------------------------------------------------

 SCF Done:  E(RB2PLYPD3) =  -115.481088329     A.U. after   11 cycles
 E2(B2PLYPD3) =    -0.1519162906D+00 E(B2PLYPD3) =    -0.11563300461991D+03

 The electronic state is 1-A.
 Alpha  occ. eigenvalues --  -19.74483 -10.62513  -1.13281  -0.79491  -0.55841
 Alpha  occ. eigenvalues --   -0.52035  -0.50927  -0.40165  -0.34593
 Alpha virt. eigenvalues --    0.01244   0.07656   0.12772   0.13070   0.14863
 Alpha virt. eigenvalues --    0.17931   0.18326   0.24887   0.29650   0.33122
 Alpha virt. eigenvalues --    0.35003   0.38929   0.41325   0.42376   0.43484

 Mulliken charges:
               1
     1  C    0.088487
     2  O   -0.486761
     3  H    0.035670
     4  H    0.034281
     5  H    0.069557
     6  H    0.258765
 Sum of Mulliken charges =   0.00000

 Dipole moment (field-independent basis, Debye):
    X=              0.8390    Y=              1.6527    Z=              0.1071  Tot=              1.8565
 Quadrupole moment (field-independent basis, Debye-Ang):
   XX=            -12.7583   YY=            -11.7643   ZZ=            -13.9939
   XY=             -2.6877   XZ=             -0.0706   YZ=              0.0721

 Normal termination of Gaussian 09 at Wed Aug 26 14:27:59 2020.
