 Gaussian 09, Revision D.01,
 Gaussian 09:  ES64L-G09RevD.01 24-Apr-2013

 --------------------
 #p B2PLYPD3/Def2QZVP
 --------------------

 --------
 methanol
 --------
 Symbolic Z-matrix:
 Charge =  0 Multiplicity = 1

                         Standard orientation:
 ---------------------------------------------------------------------
 Center     Atomic      Atomic             Coordinates (Angstroms)
 Number     Number       Type             X           Y           Z
 ---------------------------------------------------------------------
      1          6           0       -0.663506   -0.022682    0.002025
      2          8           0        0.751293    0.092048   -0.015706
      3          1           0       -0.981898   -0.491042    0.968142
      4          1           0       -1.007305   -0.592439   -0.935208
      5          1           0       -1.077512    1.051447   -0.012985
      6          1           0        1.037402   -0.568259    0.093551
 ---------------------------------------------------------------------

 SCF Done:  E(RB2PLYPD3) =  -115.458440237     A.U. after   10 cycles
 E2(B2PLYPD3) =    -0.1441314080D+00 E(B2PLYPD3) =    -0.11560257164468D+03

 The electronic state is 1-A.
 Alpha  occ. eigenvalues --  -19.70053 -10.67624  -1.23382  -0.80376  -0.61148
 Alpha  occ. eigenvalues --   -0.52286  -0.50004  -0.41295  -0.36129
 Alpha virt. eigenvalues --    0.05394   0.09223   0.11804   0.12054   0.14350
 Alpha virt. eigenvalues --    0.17124   0.17805   0.28633   0.32614   0.33099
 Alpha virt. eigenvalues --    0.36824   0.38406   0.39904   0.40664   0.43406

 Mulliken charges:
               1
     1  C    0.056768
     2  O   -0.279098
     3  H    0.051853
     4  H    0.053121
     5  H    0.072223
     6  H    0.045134
 Sum of Mulliken charges =   0.00000

 Dipole moment (field-independent basis, Debye):
    X=             -0.9950    Y=             -1.2700    Z=              0.2506  Tot=              1.6327
 Quadrupole moment (field-independent basis, Debye-Ang):
   XX=            -13.4106   YY=            -12.4811   ZZ=            -13.4055
   XY=             -1.9313   XZ=              0.2522   YZ=             -0.1203

 Normal termination of Gaussian 09 at Wed Aug 26 15:07:30 2020.
