 Gaussian 09, Revision D.01,
 Gaussian 09:  ES64L-G09RevD.01 24-Apr-2013

 --------------------
 #p B2PLYPD3/Def2QZVP
 --------------------

 --------
 methanol
 --------
 Symbolic Z-matrix:
 Charge =  0 Multiplicity = 1

                         Standard orientation:
 ---------------------------------------------------------------------
 Center     Atomic      Atomic             Coordinates (Angstroms)
 Number     Number       Type             X           Y           Z
 ---------------------------------------------------------------------
      1          6           0       -0.658026    0.017951    0.000038
      2          8           0        0.732790   -0.150808   -0.007381
      3          1           0       -0.965178    0.582679   -0.831174
      4          1           0       -1.004993    0.485966    0.836672
      5          1           0       -1.061651   -0.904912   -0.010299
      6          1           0        1.117663    0.935024    0.063619
 ---------------------------------------------------------------------

 SCF Done:  E(RB2PLYPD3) =  -115.515333387     A.U. after   11 cycles
 E2(B2PLYPD3) =    -0.1501480901D+00 E(B2PLYPD3) =    -0.11566548147690D+03

 The electronic state is 1-A.
 Alpha  occ. eigenvalues --  -19.73802 -10.62939  -1.14023  -0.78953  -0.57173
 Alpha  occ. eigenvalues --   -0.52784  -0.49780  -0.41047  -0.34920
 Alpha virt. eigenvalues --    0.03003   0.07989   0.12654   0.12718   0.14980
 Alpha virt. eigenvalues --    0.17497   0.18086   0.27700   0.29658   0.33233
 Alpha virt. eigenvalues --    0.34956   0.39342   0.40542   0.42537   0.44351

 Mulliken charges:
               1
     1  C    0.090270
     2  O   -0.484003
     3  H    0.039725
     4  H    0.038277
     5  H    0.065512
     6  H    0.250219
 Sum of Mulliken charges =   0.00000

 Dipole moment (field-independent basis, Debye):
    X=             -0.9611    Y=              1.6509    Z=              0.1432  Tot=              1.9157
 Quadrupole moment (field-independent basis, Debye-Ang):
   XX=            -13.2629   YY=            -11.7010   ZZ=            -13.8348
   XY=              2.3473   XZ=              0.0543   YZ=              0.0796

 Normal termination of Gaussian 09 at Wed Aug 26 11:11:15 2020.
