 Gaussian 09, Revision D.01,
 Gaussian 09:  ES64L-G09RevD.01 24-Apr-2013

 --------------------
 #p B2PLYPD3/Def2QZVP
 --------------------

 --------
 methanol
 --------
 Symbolic Z-matrix:
 Charge =  0 Multiplicity = 1

                         Standard orientation:
 ---------------------------------------------------------------------
 Center     Atomic      Atomic             Coordinates (Angstroms)
 Number     Number       Type             X           Y           Z
 ---------------------------------------------------------------------
      1          6           0       -0.668274   -0.015856    0.006061
      2          8           0        0.752673    0.100628   -0.013929
      3          1           0       -0.999657   -0.481826    0.966158
      4          1           0       -1.091585   -0.623347   -0.888752
      5          1           0       -1.082504    1.020676   -0.047481
      6          1           0        1.162008   -0.625388    0.045138
 ---------------------------------------------------------------------

 SCF Done:  E(RB2PLYPD3) =  -115.530722784     A.U. after   10 cycles
 E2(B2PLYPD3) =    -0.1456328409D+00 E(B2PLYPD3) =    -0.11567635562495D+03

 The electronic state is 1-A.
 Alpha  occ. eigenvalues --  -19.71307 -10.67350  -1.18865  -0.79527  -0.60078
 Alpha  occ. eigenvalues --   -0.51161  -0.50084  -0.40671  -0.35604
 Alpha virt. eigenvalues --    0.05370   0.08548   0.12064   0.12280   0.14642
 Alpha virt. eigenvalues --    0.17055   0.18034   0.28976   0.32823   0.33212
 Alpha virt. eigenvalues --    0.36932   0.39035   0.39344   0.39757   0.42721

 Mulliken charges:
               1
     1  C    0.062101
     2  O   -0.393148
     3  H    0.052055
     4  H    0.046514
     5  H    0.077354
     6  H    0.155124
 Sum of Mulliken charges =   0.00000

 Dipole moment (field-independent basis, Debye):
    X=             -0.8307    Y=             -1.3265    Z=              0.1574  Tot=              1.5730
 Quadrupole moment (field-independent basis, Debye-Ang):
   XX=            -12.8580   YY=            -12.5245   ZZ=            -13.7210
   XY=             -2.1658   XZ=              0.1908   YZ=             -0.0883

 Normal termination of Gaussian 09 at Thu Aug 27 00:00:15 2020.
