 Gaussian 09, Revision D.01,
 Gaussian 09:  ES64L-G09RevD.01 24-Apr-2013

 --------------------
 #p B2PLYPD3/Def2QZVP
 --------------------

 --------
 methanol
 --------
 Symbolic Z-matrix:
 Charge =  0 Multiplicity = 1

                         Standard orientation:
 ---------------------------------------------------------------------
 Center     Atomic      Atomic             Coordinates (Angstroms)
 Number     Number       Type             X           Y           Z
 ---------------------------------------------------------------------
      1          6           0        0.657482    0.045380   -0.001226
      2          8           0       -0.736151   -0.170574    0.004058
      3          1           0        1.064407    0.507822    0.819887
      4          1           0        1.087940    0.519128   -0.783595
      5          1           0        1.101681   -0.913695   -0.029803
      6          1           0       -1.309709    0.979052   -0.031592
 ---------------------------------------------------------------------

 SCF Done:  E(RB2PLYPD3) =  -115.483602165     A.U. after   11 cycles
 E2(B2PLYPD3) =    -0.1531705977D+00 E(B2PLYPD3) =    -0.11563677276289D+03

 The electronic state is 1-A.
 Alpha  occ. eigenvalues --  -19.75015 -10.63188  -1.12525  -0.79116  -0.55377
 Alpha  occ. eigenvalues --   -0.52070  -0.49221  -0.39563  -0.35283
 Alpha virt. eigenvalues --    0.00896   0.07343   0.12580   0.13075   0.15157
 Alpha virt. eigenvalues --    0.17245   0.18710   0.24172   0.29407   0.34011
 Alpha virt. eigenvalues --    0.34882   0.38313   0.39271   0.42606   0.44414

 Mulliken charges:
               1
     1  C    0.083347
     2  O   -0.484778
     3  H    0.046969
     4  H    0.045622
     5  H    0.056919
     6  H    0.251922
 Sum of Mulliken charges =   0.00000

 Dipole moment (field-independent basis, Debye):
    X=              0.7929    Y=              1.7127    Z=             -0.0740  Tot=              1.8888
 Quadrupole moment (field-independent basis, Debye-Ang):
   XX=            -12.3752   YY=            -11.9618   ZZ=            -14.0954
   XY=             -2.5310   XZ=              0.0246   YZ=             -0.0336

 Normal termination of Gaussian 09 at Wed Aug 26 13:18:09 2020.
