 Gaussian 09, Revision D.01,
 Gaussian 09:  ES64L-G09RevD.01 24-Apr-2013

 --------------------
 #p B2PLYPD3/Def2QZVP
 --------------------

 --------
 methanol
 --------
 Symbolic Z-matrix:
 Charge =  0 Multiplicity = 1

                         Standard orientation:
 ---------------------------------------------------------------------
 Center     Atomic      Atomic             Coordinates (Angstroms)
 Number     Number       Type             X           Y           Z
 ---------------------------------------------------------------------
      1          6           0       -0.678679    0.014030    0.008863
      2          8           0        0.753815   -0.162002   -0.010468
      3          1           0       -1.093543    0.537740   -0.844789
      4          1           0       -1.001151    0.499783    0.844786
      5          1           0       -1.087119   -0.826334    0.007024
      6          1           0        1.223367    1.000653    0.023543
 ---------------------------------------------------------------------

 SCF Done:  E(RB2PLYPD3) =  -115.478087882     A.U. after   11 cycles
 E2(B2PLYPD3) =    -0.1527816538D+00 E(B2PLYPD3) =    -0.11563086953571D+03

 The electronic state is 1-A.
 Alpha  occ. eigenvalues --  -19.74618 -10.62812  -1.11593  -0.80058  -0.55345
 Alpha  occ. eigenvalues --   -0.51525  -0.49811  -0.40640  -0.35114
 Alpha virt. eigenvalues --    0.01509   0.07493   0.12682   0.12943   0.14697
 Alpha virt. eigenvalues --    0.17567   0.18473   0.25053   0.29447   0.33170
 Alpha virt. eigenvalues --    0.33610   0.38515   0.41050   0.41622   0.43495

 Mulliken charges:
               1
     1  C    0.084654
     2  O   -0.501304
     3  H    0.042093
     4  H    0.045405
     5  H    0.074766
     6  H    0.254386
 Sum of Mulliken charges =   0.00000

 Dipole moment (field-independent basis, Debye):
    X=             -1.0155    Y=              1.6386    Z=              0.1127  Tot=              1.9310
 Quadrupole moment (field-independent basis, Debye-Ang):
   XX=            -12.7623   YY=            -11.7601   ZZ=            -13.9305
   XY=              2.6092   XZ=              0.0593   YZ=              0.0749

 Normal termination of Gaussian 09 at Wed Aug 26 16:15:23 2020.
