 Gaussian 09, Revision D.01,
 Gaussian 09:  ES64L-G09RevD.01 24-Apr-2013

 --------------------
 #p B2PLYPD3/Def2QZVP
 --------------------

 --------
 methanol
 --------
 Symbolic Z-matrix:
 Charge =  0 Multiplicity = 1

                         Standard orientation:
 ---------------------------------------------------------------------
 Center     Atomic      Atomic             Coordinates (Angstroms)
 Number     Number       Type             X           Y           Z
 ---------------------------------------------------------------------
      1          6           0       -0.675162   -0.024432   -0.001800
      2          8           0        0.749130    0.136713    0.002941
      3          1           0       -1.053011   -0.514317    0.850656
      4          1           0       -0.991099   -0.549208   -0.844476
      5          1           0       -1.054175    0.967611   -0.025214
      6          1           0        1.156219   -0.851197    0.006307
 ---------------------------------------------------------------------

 SCF Done:  E(RB2PLYPD3) =  -115.538827928     A.U. after   11 cycles
 E2(B2PLYPD3) =    -0.1491330727D+00 E(B2PLYPD3) =    -0.11568796100090D+03

 The electronic state is 1-A.
 Alpha  occ. eigenvalues --  -19.73277 -10.64243  -1.13817  -0.78868  -0.57408
 Alpha  occ. eigenvalues --   -0.52233  -0.49073  -0.41267  -0.35304
 Alpha virt. eigenvalues --    0.04161   0.07972   0.12427   0.12637   0.14976
 Alpha virt. eigenvalues --    0.17192   0.18128   0.29062   0.31299   0.33367
 Alpha virt. eigenvalues --    0.33790   0.39054   0.39747   0.41981   0.44388

 Mulliken charges:
               1
     1  C    0.080605
     2  O   -0.488733
     3  H    0.047965
     4  H    0.047998
     5  H    0.068582
     6  H    0.243583
 Sum of Mulliken charges =   0.00000

 Dipole moment (field-independent basis, Debye):
    X=             -0.9672    Y=             -1.6182    Z=             -0.0075  Tot=              1.8852
 Quadrupole moment (field-independent basis, Debye-Ang):
   XX=            -13.0449   YY=            -11.9313   ZZ=            -13.8365
   XY=             -2.2805   XZ=             -0.0291   YZ=              0.0022

 Normal termination of Gaussian 09 at Thu Aug 27 00:09:13 2020.
