 Gaussian 09, Revision D.01,
 Gaussian 09:  ES64L-G09RevD.01 24-Apr-2013

 --------------------
 #p B2PLYPD3/Def2QZVP
 --------------------

 --------
 methanol
 --------
 Symbolic Z-matrix:
 Charge =  0 Multiplicity = 1

                         Standard orientation:
 ---------------------------------------------------------------------
 Center     Atomic      Atomic             Coordinates (Angstroms)
 Number     Number       Type             X           Y           Z
 ---------------------------------------------------------------------
      1          6           0       -0.681277    0.043698   -0.011819
      2          8           0        0.731728   -0.169253    0.009353
      3          1           0       -1.035174    0.451339   -0.735772
      4          1           0       -1.071853    0.555961    0.742440
      5          1           0       -0.904107   -0.989858    0.025943
      6          1           0        1.244965    1.074398   -0.036525
 ---------------------------------------------------------------------

 SCF Done:  E(RB2PLYPD3) =  -115.433865734     A.U. after   12 cycles
 E2(B2PLYPD3) =    -0.1549407154D+00 E(B2PLYPD3) =    -0.11558880644984D+03

 The electronic state is 1-A.
 Alpha  occ. eigenvalues --  -19.75113 -10.61790  -1.11867  -0.80556  -0.57025
 Alpha  occ. eigenvalues --   -0.53323  -0.47357  -0.39595  -0.35547
 Alpha virt. eigenvalues --    0.00054   0.07582   0.11859   0.13297   0.15373
 Alpha virt. eigenvalues --    0.16603   0.18300   0.23346   0.29331   0.33682
 Alpha virt. eigenvalues --    0.34139   0.37536   0.38679   0.43740   0.46201

 Mulliken charges:
               1
     1  C    0.076127
     2  O   -0.475854
     3  H    0.061727
     4  H    0.044453
     5  H    0.068451
     6  H    0.225096
 Sum of Mulliken charges =   0.00000

 Dipole moment (field-independent basis, Debye):
    X=             -1.0583    Y=              1.7415    Z=             -0.1227  Tot=              2.0415
 Quadrupole moment (field-independent basis, Debye-Ang):
   XX=            -13.0415   YY=            -11.3566   ZZ=            -14.0563
   XY=              2.0345   XZ=             -0.0152   YZ=             -0.0882

 Normal termination of Gaussian 09 at Wed Aug 26 22:36:39 2020.
