 Gaussian 09, Revision D.01,
 Gaussian 09:  ES64L-G09RevD.01 24-Apr-2013

 --------------------
 #p B2PLYPD3/Def2QZVP
 --------------------

 --------
 methanol
 --------
 Symbolic Z-matrix:
 Charge =  0 Multiplicity = 1

                         Standard orientation:
 ---------------------------------------------------------------------
 Center     Atomic      Atomic             Coordinates (Angstroms)
 Number     Number       Type             X           Y           Z
 ---------------------------------------------------------------------
      1          6           0        0.685937    0.015187    0.010410
      2          8           0       -0.757390   -0.202366   -0.001813
      3          1           0        1.166502    0.420975    0.819782
      4          1           0        1.009014    0.612909   -0.798755
      5          1           0        1.139183   -0.685513   -0.119000
      6          1           0       -1.371198    1.179435    0.050021
 ---------------------------------------------------------------------

 SCF Done:  E(RB2PLYPD3) =  -115.366611691     A.U. after   12 cycles
 E2(B2PLYPD3) =    -0.1589486894D+00 E(B2PLYPD3) =    -0.11552556038045D+03

 The electronic state is 1-A.
 Alpha  occ. eigenvalues --  -19.76158 -10.61696  -1.10050  -0.82440  -0.53694
 Alpha  occ. eigenvalues --   -0.51115  -0.49521  -0.38844  -0.35332
 Alpha virt. eigenvalues --   -0.03747   0.07081   0.12805   0.13011   0.14412
 Alpha virt. eigenvalues --    0.18004   0.18804   0.20944   0.29208   0.32252
 Alpha virt. eigenvalues --    0.34070   0.37726   0.40457   0.41666   0.43712

 Mulliken charges:
               1
     1  C    0.029635
     2  O   -0.482341
     3  H    0.047792
     4  H    0.041259
     5  H    0.126538
     6  H    0.237118
 Sum of Mulliken charges =   0.00000

 Dipole moment (field-independent basis, Debye):
    X=              1.0380    Y=              1.6790    Z=              0.0400  Tot=              1.9743
 Quadrupole moment (field-independent basis, Debye-Ang):
   XX=            -12.1852   YY=            -11.6051   ZZ=            -14.1226
   XY=             -2.9152   XZ=             -0.0336   YZ=              0.1060

 Normal termination of Gaussian 09 at Wed Aug 26 23:35:02 2020.
