 Gaussian 09, Revision D.01,
 Gaussian 09:  ES64L-G09RevD.01 24-Apr-2013

 --------------------
 #p B2PLYPD3/Def2QZVP
 --------------------

 --------
 methanol
 --------
 Symbolic Z-matrix:
 Charge =  0 Multiplicity = 1

                         Standard orientation:
 ---------------------------------------------------------------------
 Center     Atomic      Atomic             Coordinates (Angstroms)
 Number     Number       Type             X           Y           Z
 ---------------------------------------------------------------------
      1          6           0       -0.666774   -0.014949    0.005386
      2          8           0        0.751872    0.102073   -0.008275
      3          1           0       -1.017665   -0.488958    0.960067
      4          1           0       -1.031935   -0.616129   -0.909100
      5          1           0       -1.100132    1.000466   -0.057976
      6          1           0        1.135400   -0.622270    0.040894
 ---------------------------------------------------------------------

 SCF Done:  E(RB2PLYPD3) =  -115.526386949     A.U. after   10 cycles
 E2(B2PLYPD3) =    -0.1452832910D+00 E(B2PLYPD3) =    -0.11567167023967D+03

 The electronic state is 1-A.
 Alpha  occ. eigenvalues --  -19.71122 -10.67179  -1.19456  -0.79736  -0.60184
 Alpha  occ. eigenvalues --   -0.51395  -0.50434  -0.40809  -0.35640
 Alpha virt. eigenvalues --    0.05393   0.08699   0.12007   0.12380   0.14524
 Alpha virt. eigenvalues --    0.17199   0.17965   0.28936   0.32921   0.33079
 Alpha virt. eigenvalues --    0.36994   0.39327   0.39622   0.39840   0.43094

 Mulliken charges:
               1
     1  C    0.063485
     2  O   -0.379906
     3  H    0.050957
     4  H    0.045708
     5  H    0.077860
     6  H    0.141895
 Sum of Mulliken charges =   0.00000

 Dipole moment (field-independent basis, Debye):
    X=             -0.8747    Y=             -1.3163    Z=              0.1216  Tot=              1.5852
 Quadrupole moment (field-independent basis, Debye-Ang):
   XX=            -12.9588   YY=            -12.5163   ZZ=            -13.6507
   XY=             -2.1870   XZ=              0.1166   YZ=             -0.0844

 Normal termination of Gaussian 09 at Wed Aug 26 20:46:29 2020.
