 Gaussian 09, Revision D.01,
 Gaussian 09:  ES64L-G09RevD.01 24-Apr-2013

 --------------------
 #p B2PLYPD3/Def2QZVP
 --------------------

 --------
 methanol
 --------
 Symbolic Z-matrix:
 Charge =  0 Multiplicity = 1

                         Standard orientation:
 ---------------------------------------------------------------------
 Center     Atomic      Atomic             Coordinates (Angstroms)
 Number     Number       Type             X           Y           Z
 ---------------------------------------------------------------------
      1          6           0        0.628257    0.075304    0.000677
      2          8           0       -0.702360   -0.201921   -0.007756
      3          1           0        0.962575    0.450935    0.778383
      4          1           0        0.908371    0.579972   -0.759365
      5          1           0        1.289254   -0.848211   -0.020968
      6          1           0       -1.310864    0.980847    0.059937
 ---------------------------------------------------------------------

 SCF Done:  E(RB2PLYPD3) =  -115.439884220     A.U. after   11 cycles
 E2(B2PLYPD3) =    -0.1528322336D+00 E(B2PLYPD3) =    -0.11559271645316D+03

 The electronic state is 1-A.
 Alpha  occ. eigenvalues --  -19.74809 -10.61671  -1.14218  -0.79698  -0.55663
 Alpha  occ. eigenvalues --   -0.54882  -0.49841  -0.37869  -0.35333
 Alpha virt. eigenvalues --   -0.00297   0.07300   0.12914   0.13094   0.14779
 Alpha virt. eigenvalues --    0.18240   0.18709   0.22985   0.29269   0.33463
 Alpha virt. eigenvalues --    0.35400   0.38624   0.41178   0.42836   0.45814

 Mulliken charges:
               1
     1  C    0.094105
     2  O   -0.475942
     3  H    0.049914
     4  H    0.045850
     5  H    0.036170
     6  H    0.249903
 Sum of Mulliken charges =   0.00000

 Dipole moment (field-independent basis, Debye):
    X=              0.6724    Y=              1.8748    Z=              0.1399  Tot=              1.9967
 Quadrupole moment (field-independent basis, Debye-Ang):
   XX=            -12.3749   YY=            -12.1082   ZZ=            -13.8605
   XY=             -2.5836   XZ=             -0.0308   YZ=              0.0275

 Normal termination of Gaussian 09 at Wed Aug 26 21:34:33 2020.
