 Gaussian 09, Revision D.01,
 Gaussian 09:  ES64L-G09RevD.01 24-Apr-2013

 --------------------
 #p B2PLYPD3/Def2QZVP
 --------------------

 --------
 methanol
 --------
 Symbolic Z-matrix:
 Charge =  0 Multiplicity = 1

                         Standard orientation:
 ---------------------------------------------------------------------
 Center     Atomic      Atomic             Coordinates (Angstroms)
 Number     Number       Type             X           Y           Z
 ---------------------------------------------------------------------
      1          6           0        0.651076    0.016667   -0.006585
      2          8           0       -0.748635   -0.167924    0.009114
      3          1           0        0.981327    0.621166    0.831920
      4          1           0        1.156588    0.447881   -0.791191
      5          1           0        1.137206   -0.854402    0.038889
      6          1           0       -1.192494    1.028743   -0.113023
 ---------------------------------------------------------------------

 SCF Done:  E(RB2PLYPD3) =  -115.479735114     A.U. after   11 cycles
 E2(B2PLYPD3) =    -0.1534713509D+00 E(B2PLYPD3) =    -0.11563320646509D+03

 The electronic state is 1-A.
 Alpha  occ. eigenvalues --  -19.75301 -10.63433  -1.12768  -0.79230  -0.55216
 Alpha  occ. eigenvalues --   -0.51815  -0.49425  -0.40282  -0.34930
 Alpha virt. eigenvalues --    0.00734   0.07344   0.12761   0.12778   0.14884
 Alpha virt. eigenvalues --    0.17838   0.18651   0.24098   0.29617   0.32853
 Alpha virt. eigenvalues --    0.34976   0.38563   0.39204   0.41806   0.43833

 Mulliken charges:
               1
     1  C    0.085556
     2  O   -0.477437
     3  H    0.035348
     4  H    0.038853
     5  H    0.061443
     6  H    0.256237
 Sum of Mulliken charges =   0.00000

 Dipole moment (field-independent basis, Debye):
    X=              0.9221    Y=              1.6854    Z=             -0.2328  Tot=              1.9352
 Quadrupole moment (field-independent basis, Debye-Ang):
   XX=            -12.8466   YY=            -11.7522   ZZ=            -14.1791
   XY=             -2.5516   XZ=              0.0270   YZ=             -0.1508

 Normal termination of Gaussian 09 at Wed Aug 26 23:57:00 2020.
