 Gaussian 09, Revision D.01,
 Gaussian 09:  ES64L-G09RevD.01 24-Apr-2013

 --------------------
 #p B2PLYPD3/Def2QZVP
 --------------------

 --------
 methanol
 --------
 Symbolic Z-matrix:
 Charge =  0 Multiplicity = 1

                         Standard orientation:
 ---------------------------------------------------------------------
 Center     Atomic      Atomic             Coordinates (Angstroms)
 Number     Number       Type             X           Y           Z
 ---------------------------------------------------------------------
      1          6           0        0.656419   -0.014366    0.014723
      2          8           0       -0.740282    0.131643   -0.011004
      3          1           0        1.058857   -0.607210   -0.854473
      4          1           0        0.993087   -0.513967    0.865474
      5          1           0        1.103805    0.953646   -0.040044
      6          1           0       -1.172008   -0.799417    0.028737
 ---------------------------------------------------------------------

 SCF Done:  E(RB2PLYPD3) =  -115.545277714     A.U. after   10 cycles
 E2(B2PLYPD3) =    -0.1481277366D+00 E(B2PLYPD3) =    -0.11569340545066D+03

 The electronic state is 1-A.
 Alpha  occ. eigenvalues --  -19.73151 -10.64993  -1.15400  -0.78515  -0.58404
 Alpha  occ. eigenvalues --   -0.51529  -0.50235  -0.40935  -0.34959
 Alpha virt. eigenvalues --    0.04444   0.07988   0.12537   0.12588   0.15036
 Alpha virt. eigenvalues --    0.17473   0.18053   0.29237   0.32350   0.33267
 Alpha virt. eigenvalues --    0.34439   0.38965   0.39800   0.41059   0.44320

 Mulliken charges:
               1
     1  C    0.075733
     2  O   -0.471342
     3  H    0.034245
     4  H    0.046904
     5  H    0.071016
     6  H    0.243443
 Sum of Mulliken charges =   0.00000

 Dipole moment (field-independent basis, Debye):
    X=              0.7844    Y=             -1.5465    Z=              0.1461  Tot=              1.7402
 Quadrupole moment (field-independent basis, Debye-Ang):
   XX=            -12.8785   YY=            -12.1290   ZZ=            -13.9476
   XY=              2.3867   XZ=             -0.0510   YZ=             -0.1323

 Normal termination of Gaussian 09 at Thu Aug 27 00:11:40 2020.
