 Gaussian 09, Revision D.01,
 Gaussian 09:  ES64L-G09RevD.01 24-Apr-2013

 --------------------
 #p B2PLYPD3/Def2QZVP
 --------------------

 --------
 methanol
 --------
 Symbolic Z-matrix:
 Charge =  0 Multiplicity = 1

                         Standard orientation:
 ---------------------------------------------------------------------
 Center     Atomic      Atomic             Coordinates (Angstroms)
 Number     Number       Type             X           Y           Z
 ---------------------------------------------------------------------
      1          6           0       -0.652806    0.024256    0.003568
      2          8           0        0.746125   -0.162733   -0.008489
      3          1           0       -1.023415    0.581391   -0.810120
      4          1           0       -1.054132    0.452190    0.822083
      5          1           0       -1.114104   -0.886659   -0.027863
      6          1           0        1.139481    1.009406    0.062397
 ---------------------------------------------------------------------

 SCF Done:  E(RB2PLYPD3) =  -115.494260923     A.U. after   11 cycles
 E2(B2PLYPD3) =    -0.1522910425D+00 E(B2PLYPD3) =    -0.11564655196548D+03

 The electronic state is 1-A.
 Alpha  occ. eigenvalues --  -19.74841 -10.63058  -1.13070  -0.79236  -0.55772
 Alpha  occ. eigenvalues --   -0.52251  -0.49607  -0.40528  -0.35242
 Alpha virt. eigenvalues --    0.01632   0.07573   0.12689   0.12823   0.14905
 Alpha virt. eigenvalues --    0.17777   0.18472   0.25177   0.29522   0.33555
 Alpha virt. eigenvalues --    0.34678   0.38944   0.40021   0.42201   0.43899

 Mulliken charges:
               1
     1  C    0.092436
     2  O   -0.482607
     3  H    0.038698
     4  H    0.040862
     5  H    0.057517
     6  H    0.253095
 Sum of Mulliken charges =   0.00000

 Dipole moment (field-independent basis, Debye):
    X=             -1.0023    Y=              1.7055    Z=              0.1490  Tot=              1.9838
 Quadrupole moment (field-independent basis, Debye-Ang):
   XX=            -13.1106   YY=            -11.6948   ZZ=            -13.9932
   XY=              2.3851   XZ=              0.0448   YZ=              0.0877

 Normal termination of Gaussian 09 at Wed Aug 26 16:24:13 2020.
