 Gaussian 09, Revision D.01,
 Gaussian 09:  ES64L-G09RevD.01 24-Apr-2013

 --------------------
 #p B2PLYPD3/Def2QZVP
 --------------------

 --------
 methanol
 --------
 Symbolic Z-matrix:
 Charge =  0 Multiplicity = 1

                         Standard orientation:
 ---------------------------------------------------------------------
 Center     Atomic      Atomic             Coordinates (Angstroms)
 Number     Number       Type             X           Y           Z
 ---------------------------------------------------------------------
      1          6           0        0.671801    0.045188   -0.026146
      2          8           0       -0.739292   -0.216637    0.014812
      3          1           0        1.133036    0.517564    0.733965
      4          1           0        0.837872    0.546085   -0.704982
      5          1           0        1.238332   -0.771952   -0.013834
      6          1           0       -1.325713    1.170269    0.023231
 ---------------------------------------------------------------------

 SCF Done:  E(RB2PLYPD3) =  -115.370759915     A.U. after   12 cycles
 E2(B2PLYPD3) =    -0.1579802475D+00 E(B2PLYPD3) =    -0.11552874016262D+03

 The electronic state is 1-A.
 Alpha  occ. eigenvalues --  -19.75855 -10.60677  -1.10940  -0.82100  -0.56336
 Alpha  occ. eigenvalues --   -0.51907  -0.48727  -0.38795  -0.35283
 Alpha virt. eigenvalues --   -0.03562   0.07209   0.12585   0.13333   0.14456
 Alpha virt. eigenvalues --    0.18066   0.18694   0.21139   0.29659   0.32109
 Alpha virt. eigenvalues --    0.34063   0.38666   0.40262   0.42712   0.44654

 Mulliken charges:
               1
     1  C    0.067824
     2  O   -0.478259
     3  H    0.036680
     4  H    0.093594
     5  H    0.054403
     6  H    0.225758
 Sum of Mulliken charges =   0.00000

 Dipole moment (field-independent basis, Debye):
    X=              1.0988    Y=              1.8244    Z=             -0.0543  Tot=              2.1304
 Quadrupole moment (field-independent basis, Debye-Ang):
   XX=            -12.3884   YY=            -11.4529   ZZ=            -14.1276
   XY=             -2.7014   XZ=              0.1315   YZ=             -0.1359

 Normal termination of Gaussian 09 at Wed Aug 26 23:00:27 2020.
