 Gaussian 09, Revision D.01,
 Gaussian 09:  ES64L-G09RevD.01 24-Apr-2013

 --------------------
 #p B2PLYPD3/Def2QZVP
 --------------------

 --------
 methanol
 --------
 Symbolic Z-matrix:
 Charge =  0 Multiplicity = 1

                         Standard orientation:
 ---------------------------------------------------------------------
 Center     Atomic      Atomic             Coordinates (Angstroms)
 Number     Number       Type             X           Y           Z
 ---------------------------------------------------------------------
      1          6           0       -0.660450   -0.018533   -0.002727
      2          8           0        0.752395    0.112242   -0.000404
      3          1           0       -1.031113   -0.552743    0.892955
      4          1           0       -1.036782   -0.545865   -0.887966
      5          1           0       -1.082836    1.022552    0.011137
      6          1           0        1.094268   -0.710678    0.003466
 ---------------------------------------------------------------------

 SCF Done:  E(RB2PLYPD3) =  -115.547788747     A.U. after   10 cycles
 E2(B2PLYPD3) =    -0.1463129449D+00 E(B2PLYPD3) =    -0.11569410169173D+03

 The electronic state is 1-A.
 Alpha  occ. eigenvalues --  -19.72094 -10.66314  -1.17987  -0.78859  -0.59814
 Alpha  occ. eigenvalues --   -0.51671  -0.49704  -0.41409  -0.35611
 Alpha virt. eigenvalues --    0.05193   0.08505   0.12194   0.12312   0.14900
 Alpha virt. eigenvalues --    0.17295   0.17979   0.29065   0.33294   0.33315
 Alpha virt. eigenvalues --    0.37030   0.38158   0.39899   0.40508   0.43322

 Mulliken charges:
               1
     1  C    0.066356
     2  O   -0.423281
     3  H    0.046732
     4  H    0.049220
     5  H    0.068818
     6  H    0.192155
 Sum of Mulliken charges =   0.00000

 Dipole moment (field-independent basis, Debye):
    X=             -0.9161    Y=             -1.4693    Z=              0.0001  Tot=              1.7315
 Quadrupole moment (field-independent basis, Debye-Ang):
   XX=            -13.1814   YY=            -12.2421   ZZ=            -13.7874
   XY=             -2.1052   XZ=              0.0210   YZ=              0.0129

 Normal termination of Gaussian 09 at Thu Aug 27 00:10:59 2020.
