 Gaussian 09, Revision D.01,
 Gaussian 09:  ES64L-G09RevD.01 24-Apr-2013

 --------------------
 #p B2PLYPD3/Def2QZVP
 --------------------

 --------
 methanol
 --------
 Symbolic Z-matrix:
 Charge =  0 Multiplicity = 1

                         Standard orientation:
 ---------------------------------------------------------------------
 Center     Atomic      Atomic             Coordinates (Angstroms)
 Number     Number       Type             X           Y           Z
 ---------------------------------------------------------------------
      1          6           0       -0.668756   -0.025823    0.005107
      2          8           0        0.751425    0.102152   -0.006920
      3          1           0       -0.976038   -0.542386    0.913779
      4          1           0       -1.021576   -0.562986   -0.912459
      5          1           0       -1.088309    1.059078    0.001662
      6          1           0        1.087060   -0.615983    0.021744
 ---------------------------------------------------------------------

 SCF Done:  E(RB2PLYPD3) =  -115.511842459     A.U. after   10 cycles
 E2(B2PLYPD3) =    -0.1448876839D+00 E(B2PLYPD3) =    -0.11565673014242D+03

 The electronic state is 1-A.
 Alpha  occ. eigenvalues --  -19.70709 -10.67050  -1.20502  -0.79814  -0.60674
 Alpha  occ. eigenvalues --   -0.52249  -0.49483  -0.41148  -0.35933
 Alpha virt. eigenvalues --    0.05377   0.08955   0.11966   0.12120   0.14637
 Alpha virt. eigenvalues --    0.17123   0.17763   0.28942   0.32703   0.33173
 Alpha virt. eigenvalues --    0.36964   0.38738   0.40079   0.40590   0.43158

 Mulliken charges:
               1
     1  C    0.064348
     2  O   -0.351949
     3  H    0.055113
     4  H    0.052049
     5  H    0.069719
     6  H    0.110720
 Sum of Mulliken charges =   0.00000

 Dipole moment (field-independent basis, Debye):
    X=             -0.9535    Y=             -1.3909    Z=              0.0845  Tot=              1.6885
 Quadrupole moment (field-independent basis, Debye-Ang):
   XX=            -13.2197   YY=            -12.3703   ZZ=            -13.5806
   XY=             -2.0111   XZ=              0.0781   YZ=             -0.0537

 Normal termination of Gaussian 09 at Wed Aug 26 09:56:16 2020.
