 Gaussian 09, Revision D.01,
 Gaussian 09:  ES64L-G09RevD.01 24-Apr-2013

 --------------------
 #p B2PLYPD3/Def2QZVP
 --------------------

 --------
 methanol
 --------
 Symbolic Z-matrix:
 Charge =  0 Multiplicity = 1

                         Standard orientation:
 ---------------------------------------------------------------------
 Center     Atomic      Atomic             Coordinates (Angstroms)
 Number     Number       Type             X           Y           Z
 ---------------------------------------------------------------------
      1          6           0        0.649988    0.058161   -0.009761
      2          8           0       -0.735517   -0.179180    0.001531
      3          1           0        1.140674    0.404480    0.824870
      4          1           0        1.101207    0.601681   -0.705470
      5          1           0        1.105774   -0.930791   -0.087721
      6          1           0       -1.363447    1.009102    0.014642
 ---------------------------------------------------------------------

 SCF Done:  E(RB2PLYPD3) =  -115.461642711     A.U. after   12 cycles
 E2(B2PLYPD3) =    -0.1547861082D+00 E(B2PLYPD3) =    -0.11561642881901D+03

 The electronic state is 1-A.
 Alpha  occ. eigenvalues --  -19.75682 -10.63387  -1.12522  -0.79329  -0.55250
 Alpha  occ. eigenvalues --   -0.51516  -0.49029  -0.39035  -0.35261
 Alpha virt. eigenvalues --   -0.00328   0.07107   0.12293   0.13341   0.15295
 Alpha virt. eigenvalues --    0.17100   0.18927   0.22862   0.29321   0.34286
 Alpha virt. eigenvalues --    0.34842   0.37207   0.39257   0.42349   0.44840

 Mulliken charges:
               1
     1  C    0.078990
     2  O   -0.471259
     3  H    0.046311
     4  H    0.047966
     5  H    0.050419
     6  H    0.247573
 Sum of Mulliken charges =   0.00000

 Dipole moment (field-independent basis, Debye):
    X=              0.7311    Y=              1.7491    Z=             -0.0033  Tot=              1.8957
 Quadrupole moment (field-independent basis, Debye-Ang):
   XX=            -12.1392   YY=            -11.9825   ZZ=            -14.3087
   XY=             -2.5089   XZ=             -0.0199   YZ=             -0.0548

 Normal termination of Gaussian 09 at Wed Aug 26 22:08:45 2020.
