 Gaussian 09, Revision D.01,
 Gaussian 09:  ES64L-G09RevD.01 24-Apr-2013

 --------------------
 #p B2PLYPD3/Def2QZVP
 --------------------

 --------
 methanol
 --------
 Symbolic Z-matrix:
 Charge =  0 Multiplicity = 1

                         Standard orientation:
 ---------------------------------------------------------------------
 Center     Atomic      Atomic             Coordinates (Angstroms)
 Number     Number       Type             X           Y           Z
 ---------------------------------------------------------------------
      1          6           0       -0.683588    0.008651   -0.004062
      2          8           0        0.753473   -0.144961   -0.008884
      3          1           0       -1.058436    0.581209   -0.821590
      4          1           0       -0.989628    0.504889    0.875006
      5          1           0       -1.048690   -0.900651    0.007197
      6          1           0        1.170503    0.922335    0.034830
 ---------------------------------------------------------------------

 SCF Done:  E(RB2PLYPD3) =  -115.516498625     A.U. after   11 cycles
 E2(B2PLYPD3) =    -0.1507093075D+00 E(B2PLYPD3) =    -0.11566720793261D+03

 The electronic state is 1-A.
 Alpha  occ. eigenvalues --  -19.73767 -10.63663  -1.12451  -0.79239  -0.56546
 Alpha  occ. eigenvalues --   -0.51491  -0.49578  -0.41347  -0.34989
 Alpha virt. eigenvalues --    0.03221   0.07773   0.12548   0.12727   0.14793
 Alpha virt. eigenvalues --    0.17273   0.18119   0.28024   0.29749   0.32997
 Alpha virt. eigenvalues --    0.33580   0.38796   0.40923   0.41280   0.43764

 Mulliken charges:
               1
     1  C    0.086691
     2  O   -0.501530
     3  H    0.045665
     4  H    0.043607
     5  H    0.074760
     6  H    0.250806
 Sum of Mulliken charges =   0.00000

 Dipole moment (field-independent basis, Debye):
    X=             -1.0319    Y=              1.6193    Z=              0.0905  Tot=              1.9223
 Quadrupole moment (field-independent basis, Debye-Ang):
   XX=            -13.0449   YY=            -11.7469   ZZ=            -13.9086
   XY=              2.4165   XZ=              0.1183   YZ=              0.0208

 Normal termination of Gaussian 09 at Wed Aug 26 15:07:16 2020.
