 Gaussian 09, Revision D.01,
 Gaussian 09:  ES64L-G09RevD.01 24-Apr-2013

 --------------------
 #p B2PLYPD3/Def2QZVP
 --------------------

 --------
 methanol
 --------
 Symbolic Z-matrix:
 Charge =  0 Multiplicity = 1

                         Standard orientation:
 ---------------------------------------------------------------------
 Center     Atomic      Atomic             Coordinates (Angstroms)
 Number     Number       Type             X           Y           Z
 ---------------------------------------------------------------------
      1          6           0        0.675448    0.031642   -0.024127
      2          8           0       -0.740668   -0.195491    0.007921
      3          1           0        1.114602    0.405494    0.798150
      4          1           0        0.807429    0.637481   -0.709481
      5          1           0        1.122896   -0.812631   -0.078677
      6          1           0       -1.172273    1.143734    0.071404
 ---------------------------------------------------------------------

 SCF Done:  E(RB2PLYPD3) =  -115.416213056     A.U. after   12 cycles
 E2(B2PLYPD3) =    -0.1559278237D+00 E(B2PLYPD3) =    -0.11557214087998D+03

 The electronic state is 1-A.
 Alpha  occ. eigenvalues --  -19.75218 -10.60970  -1.11381  -0.80923  -0.57230
 Alpha  occ. eigenvalues --   -0.52691  -0.48200  -0.39826  -0.35042
 Alpha virt. eigenvalues --   -0.01508   0.07529   0.12467   0.13083   0.14536
 Alpha virt. eigenvalues --    0.17607   0.18371   0.22286   0.29532   0.31847
 Alpha virt. eigenvalues --    0.34140   0.39257   0.40313   0.43167   0.45192

 Mulliken charges:
               1
     1  C    0.106141
     2  O   -0.486189
     3  H    0.034773
     4  H    0.053823
     5  H    0.061191
     6  H    0.230261
 Sum of Mulliken charges =   0.00000

 Dipole moment (field-independent basis, Debye):
    X=              1.2175    Y=              1.7591    Z=              0.0473  Tot=              2.1398
 Quadrupole moment (field-independent basis, Debye-Ang):
   XX=            -13.1502   YY=            -11.2427   ZZ=            -13.9997
   XY=             -2.4917   XZ=              0.1012   YZ=             -0.0469

 Normal termination of Gaussian 09 at Wed Aug 26 23:32:50 2020.
