 Gaussian 09, Revision D.01,
 Gaussian 09:  ES64L-G09RevD.01 24-Apr-2013

 --------------------
 #p B2PLYPD3/Def2QZVP
 --------------------

 --------
 methanol
 --------
 Symbolic Z-matrix:
 Charge =  0 Multiplicity = 1

                         Standard orientation:
 ---------------------------------------------------------------------
 Center     Atomic      Atomic             Coordinates (Angstroms)
 Number     Number       Type             X           Y           Z
 ---------------------------------------------------------------------
      1          6           0       -0.676734   -0.025094   -0.004419
      2          8           0        0.752991    0.100146    0.001130
      3          1           0       -0.994229   -0.586728    0.911349
      4          1           0       -1.055283   -0.515848   -0.909630
      5          1           0       -1.059807    1.065805    0.043810
      6          1           0        1.145794   -0.613835   -0.028053
 ---------------------------------------------------------------------

 SCF Done:  E(RB2PLYPD3) =  -115.522646669     A.U. after   10 cycles
 E2(B2PLYPD3) =    -0.1453171684D+00 E(B2PLYPD3) =    -0.11566796383724D+03

 The electronic state is 1-A.
 Alpha  occ. eigenvalues --  -19.70838 -10.67172  -1.19166  -0.79762  -0.60326
 Alpha  occ. eigenvalues --   -0.51789  -0.49273  -0.40809  -0.35825
 Alpha virt. eigenvalues --    0.05386   0.08755   0.11955   0.12186   0.14704
 Alpha virt. eigenvalues --    0.16900   0.17890   0.29039   0.32402   0.33398
 Alpha virt. eigenvalues --    0.37108   0.38786   0.39821   0.40395   0.42488

 Mulliken charges:
               1
     1  C    0.063347
     2  O   -0.380134
     3  H    0.053283
     4  H    0.057587
     5  H    0.072845
     6  H    0.133072
 Sum of Mulliken charges =   0.00000

 Dipole moment (field-independent basis, Debye):
    X=             -0.9008    Y=             -1.3847    Z=             -0.0740  Tot=              1.6536
 Quadrupole moment (field-independent basis, Debye-Ang):
   XX=            -12.9758   YY=            -12.4176   ZZ=            -13.6429
   XY=             -2.0389   XZ=              0.0023   YZ=              0.0607

 Normal termination of Gaussian 09 at Wed Aug 26 10:20:24 2020.
