 Gaussian 09, Revision D.01,
 Gaussian 09:  ES64L-G09RevD.01 24-Apr-2013

 --------------------
 #p B2PLYPD3/Def2QZVP
 --------------------

 --------
 methanol
 --------
 Symbolic Z-matrix:
 Charge =  0 Multiplicity = 1

                         Standard orientation:
 ---------------------------------------------------------------------
 Center     Atomic      Atomic             Coordinates (Angstroms)
 Number     Number       Type             X           Y           Z
 ---------------------------------------------------------------------
      1          6           0        0.660390    0.019559   -0.011503
      2          8           0       -0.747124   -0.140900    0.007430
      3          1           0        1.064132    0.555573    0.858507
      4          1           0        0.983472    0.530744   -0.854746
      5          1           0        1.125363   -0.928944    0.010411
      6          1           0       -1.158314    0.852474   -0.004595
 ---------------------------------------------------------------------

 SCF Done:  E(RB2PLYPD3) =  -115.537820019     A.U. after   11 cycles
 E2(B2PLYPD3) =    -0.1491326944D+00 E(B2PLYPD3) =    -0.11568695271385D+03

 The electronic state is 1-A.
 Alpha  occ. eigenvalues --  -19.73575 -10.64528  -1.14370  -0.78609  -0.57352
 Alpha  occ. eigenvalues --   -0.51853  -0.49914  -0.40948  -0.35150
 Alpha virt. eigenvalues --    0.04010   0.07839   0.12584   0.12642   0.14881
 Alpha virt. eigenvalues --    0.17650   0.18190   0.29059   0.30744   0.33326
 Alpha virt. eigenvalues --    0.34078   0.39111   0.40103   0.41418   0.43905

 Mulliken charges:
               1
     1  C    0.079015
     2  O   -0.481645
     3  H    0.039029
     4  H    0.046807
     5  H    0.067148
     6  H    0.249646
 Sum of Mulliken charges =   0.00000

 Dipole moment (field-independent basis, Debye):
    X=              0.8888    Y=              1.6028    Z=             -0.0732  Tot=              1.8342
 Quadrupole moment (field-independent basis, Debye-Ang):
   XX=            -12.9449   YY=            -12.0519   ZZ=            -13.9149
   XY=             -2.4123   XZ=              0.0289   YZ=             -0.0755

 Normal termination of Gaussian 09 at Thu Aug 27 00:13:49 2020.
