 Gaussian 09, Revision D.01,
 Gaussian 09:  ES64L-G09RevD.01 24-Apr-2013

 --------------------
 #p B2PLYPD3/Def2QZVP
 --------------------

 --------
 methanol
 --------
 Symbolic Z-matrix:
 Charge =  0 Multiplicity = 1

                         Standard orientation:
 ---------------------------------------------------------------------
 Center     Atomic      Atomic             Coordinates (Angstroms)
 Number     Number       Type             X           Y           Z
 ---------------------------------------------------------------------
      1          6           0       -0.671768    0.027068    0.004905
      2          8           0        0.744685   -0.147435   -0.008843
      3          1           0       -0.970487    0.583017   -0.858022
      4          1           0       -1.024703    0.461011    0.858353
      5          1           0       -1.094110   -0.911569   -0.031762
      6          1           0        1.162424    0.884613    0.072745
 ---------------------------------------------------------------------

 SCF Done:  E(RB2PLYPD3) =  -115.527011007     A.U. after   11 cycles
 E2(B2PLYPD3) =    -0.1498223990D+00 E(B2PLYPD3) =    -0.11567683340616D+03

 The electronic state is 1-A.
 Alpha  occ. eigenvalues --  -19.73557 -10.63696  -1.13387  -0.79002  -0.56566
 Alpha  occ. eigenvalues --   -0.52696  -0.49510  -0.40858  -0.35202
 Alpha virt. eigenvalues --    0.03623   0.07885   0.12522   0.12724   0.14748
 Alpha virt. eigenvalues --    0.17455   0.18258   0.28631   0.29952   0.33187
 Alpha virt. eigenvalues --    0.33988   0.39350   0.40285   0.42221   0.44089

 Mulliken charges:
               1
     1  C    0.084280
     2  O   -0.493173
     3  H    0.046402
     4  H    0.047104
     5  H    0.065572
     6  H    0.249815
 Sum of Mulliken charges =   0.00000

 Dipole moment (field-independent basis, Debye):
    X=             -0.9688    Y=              1.6172    Z=              0.1701  Tot=              1.8928
 Quadrupole moment (field-independent basis, Debye-Ang):
   XX=            -13.0207   YY=            -11.9688   ZZ=            -13.7578
   XY=              2.4265   XZ=              0.0665   YZ=              0.1062

 Normal termination of Gaussian 09 at Wed Aug 26 16:26:01 2020.
