 Gaussian 09, Revision D.01,
 Gaussian 09:  ES64L-G09RevD.01 24-Apr-2013

 --------------------
 #p B2PLYPD3/Def2QZVP
 --------------------

 --------
 methanol
 --------
 Symbolic Z-matrix:
 Charge =  0 Multiplicity = 1

                         Standard orientation:
 ---------------------------------------------------------------------
 Center     Atomic      Atomic             Coordinates (Angstroms)
 Number     Number       Type             X           Y           Z
 ---------------------------------------------------------------------
      1          6           0        0.644174   -0.029402    0.014608
      2          8           0       -0.746094    0.085006   -0.008561
      3          1           0        0.985779   -0.747950   -0.857363
      4          1           0        1.080197   -0.364025    0.983218
      5          1           0        1.120035    1.094270   -0.218588
      6          1           0       -1.082307   -0.485935    0.073578
 ---------------------------------------------------------------------

 SCF Done:  E(RB2PLYPD3) =  -115.365314817     A.U. after   11 cycles
 E2(B2PLYPD3) =    -0.1436846320D+00 E(B2PLYPD3) =    -0.11550899944889D+03

 The electronic state is 1-A.
 Alpha  occ. eigenvalues --  -19.69822 -10.68873  -1.26485  -0.81814  -0.62675
 Alpha  occ. eigenvalues --   -0.52140  -0.49930  -0.40032  -0.36338
 Alpha virt. eigenvalues --    0.05222   0.09269   0.11489   0.11975   0.14575
 Alpha virt. eigenvalues --    0.17043   0.17918   0.28474   0.32655   0.33683
 Alpha virt. eigenvalues --    0.34811   0.37792   0.39746   0.40737   0.42588

 Mulliken charges:
               1
     1  C    0.044567
     2  O   -0.206798
     3  H    0.044206
     4  H    0.060961
     5  H    0.063649
     6  H   -0.006584
 Sum of Mulliken charges =   0.00000

 Dipole moment (field-independent basis, Debye):
    X=              0.7982    Y=             -1.2335    Z=              0.2442  Tot=              1.4894
 Quadrupole moment (field-independent basis, Debye-Ang):
   XX=            -13.0596   YY=            -12.7265   ZZ=            -13.5514
   XY=              1.8282   XZ=             -0.0970   YZ=             -0.1410

 Normal termination of Gaussian 09 at Wed Aug 26 12:13:31 2020.
