 Gaussian 09, Revision D.01,
 Gaussian 09:  ES64L-G09RevD.01 24-Apr-2013

 --------------------
 #p B2PLYPD3/Def2QZVP
 --------------------

 --------
 methanol
 --------
 Symbolic Z-matrix:
 Charge =  0 Multiplicity = 1

                         Standard orientation:
 ---------------------------------------------------------------------
 Center     Atomic      Atomic             Coordinates (Angstroms)
 Number     Number       Type             X           Y           Z
 ---------------------------------------------------------------------
      1          6           0       -0.665734    0.009265    0.022595
      2          8           0        0.730998   -0.192716   -0.044145
      3          1           0       -1.047014    0.741683   -0.760045
      4          1           0       -0.894111    0.288527    0.826289
      5          1           0       -1.139724   -0.692439   -0.044651
      6          1           0        1.227266    1.148364    0.195995
 ---------------------------------------------------------------------

 SCF Done:  E(RB2PLYPD3) =  -115.351138578     A.U. after   12 cycles
 E2(B2PLYPD3) =    -0.1563811930D+00 E(B2PLYPD3) =    -0.11550751977054D+03

 The electronic state is 1-A.
 Alpha  occ. eigenvalues --  -19.75406 -10.60495  -1.11910  -0.82712  -0.55805
 Alpha  occ. eigenvalues --   -0.52417  -0.50076  -0.38993  -0.35009
 Alpha virt. eigenvalues --   -0.02535   0.07450   0.12495   0.13079   0.14583
 Alpha virt. eigenvalues --    0.17883   0.18902   0.21936   0.29526   0.32812
 Alpha virt. eigenvalues --    0.34009   0.37740   0.40637   0.42666   0.46204

 Mulliken charges:
               1
     1  C    0.021211
     2  O   -0.478416
     3  H    0.039636
     4  H    0.068965
     5  H    0.108875
     6  H    0.239729
 Sum of Mulliken charges =   0.00000

 Dipole moment (field-independent basis, Debye):
    X=             -1.0548    Y=              1.6166    Z=              0.5195  Tot=              1.9989
 Quadrupole moment (field-independent basis, Debye-Ang):
   XX=            -12.8893   YY=            -11.4650   ZZ=            -13.7791
   XY=              2.7708   XZ=              0.2525   YZ=              0.3063

 Normal termination of Gaussian 09 at Wed Aug 26 19:48:43 2020.
