 Gaussian 09, Revision D.01,
 Gaussian 09:  ES64L-G09RevD.01 24-Apr-2013

 --------------------
 #p B2PLYPD3/Def2QZVP
 --------------------

 --------
 methanol
 --------
 Symbolic Z-matrix:
 Charge =  0 Multiplicity = 1

                         Standard orientation:
 ---------------------------------------------------------------------
 Center     Atomic      Atomic             Coordinates (Angstroms)
 Number     Number       Type             X           Y           Z
 ---------------------------------------------------------------------
      1          6           0       -0.671812   -0.021889    0.001617
      2          8           0        0.748935    0.096763   -0.005275
      3          1           0       -1.034976   -0.512328    0.929971
      4          1           0       -0.995294   -0.586123   -0.920406
      5          1           0       -1.050038    1.056267   -0.027132
      6          1           0        1.119699   -0.600587    0.050063
 ---------------------------------------------------------------------

 SCF Done:  E(RB2PLYPD3) =  -115.511375254     A.U. after   10 cycles
 E2(B2PLYPD3) =    -0.1448576120D+00 E(B2PLYPD3) =    -0.11565623286575D+03

 The electronic state is 1-A.
 Alpha  occ. eigenvalues --  -19.70581 -10.67200  -1.20290  -0.80032  -0.60567
 Alpha  occ. eigenvalues --   -0.51900  -0.49692  -0.40910  -0.35819
 Alpha virt. eigenvalues --    0.05412   0.08928   0.12047   0.12083   0.14634
 Alpha virt. eigenvalues --    0.16908   0.17854   0.28987   0.32651   0.33314
 Alpha virt. eigenvalues --    0.37416   0.38780   0.40074   0.40221   0.42704

 Mulliken charges:
               1
     1  C    0.061331
     2  O   -0.351558
     3  H    0.053572
     4  H    0.052879
     5  H    0.074516
     6  H    0.109260
 Sum of Mulliken charges =   0.00000

 Dipole moment (field-independent basis, Debye):
    X=             -0.8970    Y=             -1.3401    Z=              0.1252  Tot=              1.6174
 Quadrupole moment (field-independent basis, Debye-Ang):
   XX=            -13.0946   YY=            -12.4265   ZZ=            -13.5770
   XY=             -2.0221   XZ=              0.0832   YZ=             -0.0692

 Normal termination of Gaussian 09 at Wed Aug 26 19:50:57 2020.
