 Gaussian 09, Revision D.01,
 Gaussian 09:  ES64L-G09RevD.01 24-Apr-2013

 --------------------
 #p B2PLYPD3/Def2QZVP
 --------------------

 --------
 methanol
 --------
 Symbolic Z-matrix:
 Charge =  0 Multiplicity = 1

                         Standard orientation:
 ---------------------------------------------------------------------
 Center     Atomic      Atomic             Coordinates (Angstroms)
 Number     Number       Type             X           Y           Z
 ---------------------------------------------------------------------
      1          6           0       -0.660283    0.026566    0.002304
      2          8           0        0.742197   -0.143292   -0.004115
      3          1           0       -1.043236    0.570841   -0.827573
      4          1           0       -1.047193    0.503182    0.843915
      5          1           0       -1.086876   -0.954039   -0.022131
      6          1           0        1.201427    0.866954    0.024882
 ---------------------------------------------------------------------

 SCF Done:  E(RB2PLYPD3) =  -115.531652317     A.U. after   11 cycles
 E2(B2PLYPD3) =    -0.1497030724D+00 E(B2PLYPD3) =    -0.11568135538964D+03

 The electronic state is 1-A.
 Alpha  occ. eigenvalues --  -19.73800 -10.64237  -1.13960  -0.78582  -0.57274
 Alpha  occ. eigenvalues --   -0.51781  -0.49542  -0.40725  -0.35162
 Alpha virt. eigenvalues --    0.03651   0.07741   0.12508   0.12795   0.15123
 Alpha virt. eigenvalues --    0.17330   0.18301   0.28723   0.30057   0.33623
 Alpha virt. eigenvalues --    0.34436   0.38883   0.39494   0.41862   0.44241

 Mulliken charges:
               1
     1  C    0.078026
     2  O   -0.484305
     3  H    0.043581
     4  H    0.045864
     5  H    0.064972
     6  H    0.251861
 Sum of Mulliken charges =   0.00000

 Dipole moment (field-independent basis, Debye):
    X=             -0.8268    Y=              1.6389    Z=              0.0680  Tot=              1.8369
 Quadrupole moment (field-independent basis, Debye-Ang):
   XX=            -12.7843   YY=            -12.0121   ZZ=            -13.9763
   XY=              2.3787   XZ=              0.0333   YZ=              0.0416

 Normal termination of Gaussian 09 at Wed Aug 26 23:57:20 2020.
