 Gaussian 09, Revision D.01,
 Gaussian 09:  ES64L-G09RevD.01 24-Apr-2013

 --------------------
 #p B2PLYPD3/Def2QZVP
 --------------------

 --------
 methanol
 --------
 Symbolic Z-matrix:
 Charge =  0 Multiplicity = 1

                         Standard orientation:
 ---------------------------------------------------------------------
 Center     Atomic      Atomic             Coordinates (Angstroms)
 Number     Number       Type             X           Y           Z
 ---------------------------------------------------------------------
      1          6           0       -0.686276    0.009832   -0.003004
      2          8           0        0.755916   -0.139654   -0.011909
      3          1           0       -1.071846    0.587042   -0.835341
      4          1           0       -0.982459    0.454310    0.923994
      5          1           0       -1.036268   -0.883400   -0.019783
      6          1           0        1.160899    0.900283    0.044427
 ---------------------------------------------------------------------

 SCF Done:  E(RB2PLYPD3) =  -115.519109676     A.U. after   11 cycles
 E2(B2PLYPD3) =    -0.1502609448D+00 E(B2PLYPD3) =    -0.11566937062072D+03

 The electronic state is 1-A.
 Alpha  occ. eigenvalues --  -19.73558 -10.63844  -1.12642  -0.79411  -0.56360
 Alpha  occ. eigenvalues --   -0.51651  -0.49830  -0.41320  -0.35104
 Alpha virt. eigenvalues --    0.03632   0.07813   0.12362   0.12855   0.14632
 Alpha virt. eigenvalues --    0.17212   0.18302   0.28549   0.30095   0.32711
 Alpha virt. eigenvalues --    0.33575   0.38495   0.40893   0.41580   0.43496

 Mulliken charges:
               1
     1  C    0.078013
     2  O   -0.500343
     3  H    0.048105
     4  H    0.047116
     5  H    0.077311
     6  H    0.249798
 Sum of Mulliken charges =   0.00000

 Dipole moment (field-independent basis, Debye):
    X=             -1.0453    Y=              1.5635    Z=              0.1074  Tot=              1.8838
 Quadrupole moment (field-independent basis, Debye-Ang):
   XX=            -13.0720   YY=            -11.8775   ZZ=            -13.7801
   XY=              2.4314   XZ=              0.1785   YZ=              0.0352

 Normal termination of Gaussian 09 at Wed Aug 26 15:25:19 2020.
