 Gaussian 09, Revision D.01,
 Gaussian 09:  ES64L-G09RevD.01 24-Apr-2013

 --------------------
 #p B2PLYPD3/Def2QZVP
 --------------------

 --------
 methanol
 --------
 Symbolic Z-matrix:
 Charge =  0 Multiplicity = 1

                         Standard orientation:
 ---------------------------------------------------------------------
 Center     Atomic      Atomic             Coordinates (Angstroms)
 Number     Number       Type             X           Y           Z
 ---------------------------------------------------------------------
      1          6           0        0.655986    0.035110   -0.019600
      2          8           0       -0.732896   -0.145836    0.006750
      3          1           0        0.986942    0.529282    0.891101
      4          1           0        1.008152    0.511278   -0.812364
      5          1           0        1.089078   -0.947848    0.017243
      6          1           0       -1.156919    0.863316   -0.032378
 ---------------------------------------------------------------------

 SCF Done:  E(RB2PLYPD3) =  -115.529188883     A.U. after   11 cycles
 E2(B2PLYPD3) =    -0.1491808667D+00 E(B2PLYPD3) =    -0.11567836974975D+03

 The electronic state is 1-A.
 Alpha  occ. eigenvalues --  -19.73524 -10.63838  -1.14630  -0.78690  -0.57682
 Alpha  occ. eigenvalues --   -0.52787  -0.49591  -0.40611  -0.35138
 Alpha virt. eigenvalues --    0.03810   0.07967   0.12517   0.12675   0.14936
 Alpha virt. eigenvalues --    0.17426   0.18336   0.28862   0.30296   0.33323
 Alpha virt. eigenvalues --    0.34916   0.38910   0.39788   0.42196   0.45176

 Mulliken charges:
               1
     1  C    0.079676
     2  O   -0.478117
     3  H    0.041461
     4  H    0.048330
     5  H    0.060187
     6  H    0.248463
 Sum of Mulliken charges =   0.00000

 Dipole moment (field-independent basis, Debye):
    X=              0.8447    Y=              1.6357    Z=             -0.1359  Tot=              1.8460
 Quadrupole moment (field-independent basis, Debye-Ang):
   XX=            -13.0397   YY=            -12.0309   ZZ=            -13.7853
   XY=             -2.3486   XZ=             -0.0338   YZ=             -0.1481

 Normal termination of Gaussian 09 at Wed Aug 26 10:55:54 2020.
