 Gaussian 09, Revision D.01,
 Gaussian 09:  ES64L-G09RevD.01 24-Apr-2013

 --------------------
 #p B2PLYPD3/Def2QZVP
 --------------------

 --------
 methanol
 --------
 Symbolic Z-matrix:
 Charge =  0 Multiplicity = 1

                         Standard orientation:
 ---------------------------------------------------------------------
 Center     Atomic      Atomic             Coordinates (Angstroms)
 Number     Number       Type             X           Y           Z
 ---------------------------------------------------------------------
      1          6           0        0.674897   -0.010115   -0.003617
      2          8           0       -0.755354    0.101338   -0.010192
      3          1           0        1.023552   -0.692181   -0.840789
      4          1           0        1.033008   -0.399022    0.998133
      5          1           0        1.052428    0.993842   -0.128133
      6          1           0       -1.115541   -0.652648    0.074028
 ---------------------------------------------------------------------

 SCF Done:  E(RB2PLYPD3) =  -115.534207510     A.U. after   10 cycles
 E2(B2PLYPD3) =    -0.1456231487D+00 E(B2PLYPD3) =    -0.11567983065893D+03

 The electronic state is 1-A.
 Alpha  occ. eigenvalues --  -19.71235 -10.66815  -1.18625  -0.79579  -0.59692
 Alpha  occ. eigenvalues --   -0.51301  -0.50315  -0.41364  -0.35567
 Alpha virt. eigenvalues --    0.05354   0.08674   0.11998   0.12388   0.14605
 Alpha virt. eigenvalues --    0.17036   0.17935   0.29006   0.32568   0.33115
 Alpha virt. eigenvalues --    0.37205   0.39360   0.39560   0.40170   0.43216

 Mulliken charges:
               1
     1  C    0.066430
     2  O   -0.400342
     3  H    0.048514
     4  H    0.048661
     5  H    0.080172
     6  H    0.156566
 Sum of Mulliken charges =   0.00000

 Dipole moment (field-independent basis, Debye):
    X=              0.9487    Y=             -1.3385    Z=              0.1484  Tot=              1.6473
 Quadrupole moment (field-independent basis, Debye-Ang):
   XX=            -13.1216   YY=            -12.3395   ZZ=            -13.6595
   XY=              2.1423   XZ=             -0.2314   YZ=             -0.0871

 Normal termination of Gaussian 09 at Thu Aug 27 00:15:12 2020.
