 Gaussian 09, Revision D.01,
 Gaussian 09:  ES64L-G09RevD.01 24-Apr-2013

 --------------------
 #p B2PLYPD3/Def2QZVP
 --------------------

 --------
 methanol
 --------
 Symbolic Z-matrix:
 Charge =  0 Multiplicity = 1

                         Standard orientation:
 ---------------------------------------------------------------------
 Center     Atomic      Atomic             Coordinates (Angstroms)
 Number     Number       Type             X           Y           Z
 ---------------------------------------------------------------------
      1          6           0       -0.664729    0.020245   -0.000728
      2          8           0        0.742286   -0.140461   -0.007909
      3          1           0       -1.050290    0.555581   -0.857248
      4          1           0       -1.021332    0.509882    0.872185
      5          1           0       -1.077434   -0.920224    0.012607
      6          1           0        1.199141    0.856983    0.040096
 ---------------------------------------------------------------------

 SCF Done:  E(RB2PLYPD3) =  -115.533723045     A.U. after   11 cycles
 E2(B2PLYPD3) =    -0.1494381337D+00 E(B2PLYPD3) =    -0.11568316117823D+03

 The electronic state is 1-A.
 Alpha  occ. eigenvalues --  -19.73579 -10.64232  -1.13921  -0.78694  -0.57039
 Alpha  occ. eigenvalues --   -0.51725  -0.50070  -0.40752  -0.35082
 Alpha virt. eigenvalues --    0.03808   0.07811   0.12594   0.12739   0.14954
 Alpha virt. eigenvalues --    0.17319   0.18326   0.28895   0.30315   0.33479
 Alpha virt. eigenvalues --    0.34194   0.39043   0.40329   0.41427   0.43762

 Mulliken charges:
               1
     1  C    0.076712
     2  O   -0.487297
     3  H    0.045171
     4  H    0.043907
     5  H    0.069631
     6  H    0.251877
 Sum of Mulliken charges =   0.00000

 Dipole moment (field-independent basis, Debye):
    X=             -0.8410    Y=              1.5795    Z=              0.1045  Tot=              1.7925
 Quadrupole moment (field-independent basis, Debye-Ang):
   XX=            -12.8050   YY=            -12.0657   ZZ=            -13.8845
   XY=              2.4536   XZ=              0.0925   YZ=              0.0397

 Normal termination of Gaussian 09 at Thu Aug 27 00:11:18 2020.
