 Gaussian 09, Revision D.01,
 Gaussian 09:  ES64L-G09RevD.01 24-Apr-2013

 --------------------
 #p B2PLYPD3/Def2QZVP
 --------------------

 --------
 methanol
 --------
 Symbolic Z-matrix:
 Charge =  0 Multiplicity = 1

                         Standard orientation:
 ---------------------------------------------------------------------
 Center     Atomic      Atomic             Coordinates (Angstroms)
 Number     Number       Type             X           Y           Z
 ---------------------------------------------------------------------
      1          6           0        0.686247    0.021298    0.002015
      2          8           0       -0.747654   -0.147436    0.002580
      3          1           0        0.991601    0.508517    0.882900
      4          1           0        1.053482    0.544116   -0.827265
      5          1           0        1.037155   -0.908011   -0.046331
      6          1           0       -1.218488    0.907074   -0.042031
 ---------------------------------------------------------------------

 SCF Done:  E(RB2PLYPD3) =  -115.516221792     A.U. after   11 cycles
 E2(B2PLYPD3) =    -0.1507582260D+00 E(B2PLYPD3) =    -0.11566698001762D+03

 The electronic state is 1-A.
 Alpha  occ. eigenvalues --  -19.73673 -10.63533  -1.12265  -0.79173  -0.56271
 Alpha  occ. eigenvalues --   -0.52204  -0.49137  -0.40878  -0.35086
 Alpha virt. eigenvalues --    0.03190   0.07749   0.12600   0.12707   0.14809
 Alpha virt. eigenvalues --    0.17077   0.18247   0.27906   0.29629   0.33011
 Alpha virt. eigenvalues --    0.33822   0.38933   0.40263   0.42133   0.43938

 Mulliken charges:
               1
     1  C    0.083977
     2  O   -0.505042
     3  H    0.051375
     4  H    0.046109
     5  H    0.073020
     6  H    0.250562
 Sum of Mulliken charges =   0.00000

 Dipole moment (field-independent basis, Debye):
    X=              0.9713    Y=              1.6158    Z=             -0.0832  Tot=              1.8871
 Quadrupole moment (field-independent basis, Debye-Ang):
   XX=            -12.8521   YY=            -11.8828   ZZ=            -13.8238
   XY=             -2.4583   XZ=              0.0130   YZ=             -0.0286

 Normal termination of Gaussian 09 at Wed Aug 26 15:52:30 2020.
