 Gaussian 09, Revision D.01,
 Gaussian 09:  ES64L-G09RevD.01 24-Apr-2013

 --------------------
 #p B2PLYPD3/Def2QZVP
 --------------------

 --------
 methanol
 --------
 Symbolic Z-matrix:
 Charge =  0 Multiplicity = 1

                         Standard orientation:
 ---------------------------------------------------------------------
 Center     Atomic      Atomic             Coordinates (Angstroms)
 Number     Number       Type             X           Y           Z
 ---------------------------------------------------------------------
      1          6           0        0.662031   -0.019507   -0.001141
      2          8           0       -0.750552    0.128774    0.001140
      3          1           0        1.029568   -0.532420   -0.888675
      4          1           0        1.015592   -0.535526    0.900614
      5          1           0        1.115150    0.943886   -0.001945
      6          1           0       -1.128080   -0.789093   -0.012270
 ---------------------------------------------------------------------

 SCF Done:  E(RB2PLYPD3) =  -115.550682556     A.U. after   10 cycles
 E2(B2PLYPD3) =    -0.1478231214D+00 E(B2PLYPD3) =    -0.11569850567780D+03

 The electronic state is 1-A.
 Alpha  occ. eigenvalues --  -19.72940 -10.65325  -1.15613  -0.78609  -0.58071
 Alpha  occ. eigenvalues --   -0.51820  -0.50137  -0.41035  -0.35369
 Alpha virt. eigenvalues --    0.04747   0.08101   0.12320   0.12649   0.14701
 Alpha virt. eigenvalues --    0.17564   0.18211   0.29075   0.33037   0.33368
 Alpha virt. eigenvalues --    0.34135   0.39041   0.40326   0.40911   0.44027

 Mulliken charges:
               1
     1  C    0.070548
     2  O   -0.466170
     3  H    0.046366
     4  H    0.045985
     5  H    0.069087
     6  H    0.234183
 Sum of Mulliken charges =   0.00000

 Dipole moment (field-independent basis, Debye):
    X=              0.9122    Y=             -1.5169    Z=             -0.0315  Tot=              1.7703
 Quadrupole moment (field-independent basis, Debye-Ang):
   XX=            -13.0529   YY=            -12.2240   ZZ=            -13.7813
   XY=              2.3425   XZ=              0.0042   YZ=              0.0217

 Normal termination of Gaussian 09 at Wed Aug 26 23:59:38 2020.
