 Gaussian 09, Revision D.01,
 Gaussian 09:  ES64L-G09RevD.01 24-Apr-2013

 --------------------
 #p B2PLYPD3/Def2QZVP
 --------------------

 --------
 methanol
 --------
 Symbolic Z-matrix:
 Charge =  0 Multiplicity = 1

                         Standard orientation:
 ---------------------------------------------------------------------
 Center     Atomic      Atomic             Coordinates (Angstroms)
 Number     Number       Type             X           Y           Z
 ---------------------------------------------------------------------
      1          6           0        0.658452   -0.009365    0.006585
      2          8           0       -0.746796    0.095062   -0.007661
      3          1           0        1.018343   -0.658101   -0.890963
      4          1           0        1.034822   -0.429491    0.984101
      5          1           0        1.035528    1.012949   -0.123229
      6          1           0       -1.065039   -0.629660    0.051869
 ---------------------------------------------------------------------

 SCF Done:  E(RB2PLYPD3) =  -115.512530621     A.U. after   10 cycles
 E2(B2PLYPD3) =    -0.1448190802D+00 E(B2PLYPD3) =    -0.11565734970141D+03

 The electronic state is 1-A.
 Alpha  occ. eigenvalues --  -19.70959 -10.67095  -1.21130  -0.79875  -0.60661
 Alpha  occ. eigenvalues --   -0.51613  -0.50602  -0.41425  -0.35662
 Alpha virt. eigenvalues --    0.05381   0.08948   0.11921   0.12300   0.14638
 Alpha virt. eigenvalues --    0.17069   0.17929   0.28803   0.32938   0.33451
 Alpha virt. eigenvalues --    0.36935   0.39407   0.39634   0.40524   0.43164

 Mulliken charges:
               1
     1  C    0.057656
     2  O   -0.340252
     3  H    0.041201
     4  H    0.049972
     5  H    0.077482
     6  H    0.113940
 Sum of Mulliken charges =   0.00000

 Dipole moment (field-independent basis, Debye):
    X=              0.8950    Y=             -1.2899    Z=              0.1368  Tot=              1.5759
 Quadrupole moment (field-independent basis, Debye-Ang):
   XX=            -13.3206   YY=            -12.3881   ZZ=            -13.5989
   XY=              2.0443   XZ=             -0.1169   YZ=             -0.1241

 Normal termination of Gaussian 09 at Wed Aug 26 14:09:35 2020.
