 Gaussian 09, Revision D.01,
 Gaussian 09:  ES64L-G09RevD.01 24-Apr-2013

 --------------------
 #p B2PLYPD3/Def2QZVP
 --------------------

 --------
 methanol
 --------
 Symbolic Z-matrix:
 Charge =  0 Multiplicity = 1

                         Standard orientation:
 ---------------------------------------------------------------------
 Center     Atomic      Atomic             Coordinates (Angstroms)
 Number     Number       Type             X           Y           Z
 ---------------------------------------------------------------------
      1          6           0       -0.673863   -0.011910   -0.004359
      2          8           0        0.747811    0.096184    0.001238
      3          1           0       -0.963360   -0.618681    0.935029
      4          1           0       -1.114470   -0.476721   -0.934224
      5          1           0       -1.002927    1.028026    0.085367
      6          1           0        1.141448   -0.630639   -0.069923
 ---------------------------------------------------------------------

 SCF Done:  E(RB2PLYPD3) =  -115.527846287     A.U. after   10 cycles
 E2(B2PLYPD3) =    -0.1455098852D+00 E(B2PLYPD3) =    -0.11567335617190D+03

 The electronic state is 1-A.
 Alpha  occ. eigenvalues --  -19.71043 -10.67108  -1.19010  -0.79702  -0.59972
 Alpha  occ. eigenvalues --   -0.51331  -0.50025  -0.41007  -0.35458
 Alpha virt. eigenvalues --    0.05366   0.08688   0.12002   0.12261   0.14655
 Alpha virt. eigenvalues --    0.16766   0.18026   0.29026   0.32325   0.33680
 Alpha virt. eigenvalues --    0.37180   0.38932   0.39684   0.40118   0.42743

 Mulliken charges:
               1
     1  C    0.058213
     2  O   -0.386022
     3  H    0.046891
     4  H    0.052834
     5  H    0.080244
     6  H    0.147838
 Sum of Mulliken charges =   0.00000

 Dipole moment (field-independent basis, Debye):
    X=             -0.8440    Y=             -1.3116    Z=             -0.1526  Tot=              1.5671
 Quadrupole moment (field-independent basis, Debye-Ang):
   XX=            -13.0490   YY=            -12.4157   ZZ=            -13.6525
   XY=             -2.0984   XZ=             -0.0190   YZ=              0.1338

 Normal termination of Gaussian 09 at Wed Aug 26 13:55:57 2020.
