 Gaussian 09, Revision D.01,
 Gaussian 09:  ES64L-G09RevD.01 24-Apr-2013

 --------------------
 #p B2PLYPD3/Def2QZVP
 --------------------

 --------
 methanol
 --------
 Symbolic Z-matrix:
 Charge =  0 Multiplicity = 1

                         Standard orientation:
 ---------------------------------------------------------------------
 Center     Atomic      Atomic             Coordinates (Angstroms)
 Number     Number       Type             X           Y           Z
 ---------------------------------------------------------------------
      1          6           0        0.674241    0.013317    0.003599
      2          8           0       -0.754036   -0.128944   -0.006687
      3          1           0        1.044002    0.492553    0.897965
      4          1           0        1.032010    0.602978   -0.867027
      5          1           0        1.100996   -0.933781   -0.042093
      6          1           0       -1.190166    0.789903    0.043059
 ---------------------------------------------------------------------

 SCF Done:  E(RB2PLYPD3) =  -115.546788058     A.U. after   10 cycles
 E2(B2PLYPD3) =    -0.1483314342D+00 E(B2PLYPD3) =    -0.11569511949184D+03

 The electronic state is 1-A.
 Alpha  occ. eigenvalues --  -19.72980 -10.65234  -1.14413  -0.78829  -0.57569
 Alpha  occ. eigenvalues --   -0.51174  -0.50259  -0.41000  -0.35185
 Alpha virt. eigenvalues --    0.04602   0.07913   0.12415   0.12662   0.14783
 Alpha virt. eigenvalues --    0.17382   0.18158   0.29171   0.32873   0.33060
 Alpha virt. eigenvalues --    0.33442   0.38937   0.40358   0.40689   0.43831

 Mulliken charges:
               1
     1  C    0.075689
     2  O   -0.483418
     3  H    0.047906
     4  H    0.043901
     5  H    0.074976
     6  H    0.240946
 Sum of Mulliken charges =   0.00000

 Dipole moment (field-independent basis, Debye):
    X=              0.8912    Y=              1.5118    Z=              0.1110  Tot=              1.7585
 Quadrupole moment (field-independent basis, Debye-Ang):
   XX=            -12.7845   YY=            -12.1987   ZZ=            -13.8662
   XY=             -2.4285   XZ=             -0.0767   YZ=              0.0780

 Normal termination of Gaussian 09 at Wed Aug 26 13:55:04 2020.
