 Gaussian 09, Revision D.01,
 Gaussian 09:  ES64L-G09RevD.01 24-Apr-2013

 --------------------
 #p B2PLYPD3/Def2QZVP
 --------------------

 --------
 methanol
 --------
 Symbolic Z-matrix:
 Charge =  0 Multiplicity = 1

                         Standard orientation:
 ---------------------------------------------------------------------
 Center     Atomic      Atomic             Coordinates (Angstroms)
 Number     Number       Type             X           Y           Z
 ---------------------------------------------------------------------
      1          6           0        0.666283   -0.014810    0.000307
      2          8           0       -0.751003    0.113413   -0.002252
      3          1           0        1.015010   -0.599462   -0.885616
      4          1           0        1.011308   -0.521752    0.928177
      5          1           0        1.118109    0.985732   -0.037493
      6          1           0       -1.134102   -0.682962    0.011108
 ---------------------------------------------------------------------

 SCF Done:  E(RB2PLYPD3) =  -115.546862662     A.U. after   10 cycles
 E2(B2PLYPD3) =    -0.1460928912D+00 E(B2PLYPD3) =    -0.11569295555316D+03

 The electronic state is 1-A.
 Alpha  occ. eigenvalues --  -19.71784 -10.66440  -1.17747  -0.79126  -0.59537
 Alpha  occ. eigenvalues --   -0.51499  -0.50324  -0.41028  -0.35441
 Alpha virt. eigenvalues --    0.05255   0.08488   0.12200   0.12423   0.14675
 Alpha virt. eigenvalues --    0.17385   0.17889   0.29105   0.33090   0.33182
 Alpha virt. eigenvalues --    0.36610   0.39309   0.39693   0.40144   0.43561

 Mulliken charges:
               1
     1  C    0.069701
     2  O   -0.428045
     3  H    0.045769
     4  H    0.047536
     5  H    0.075206
     6  H    0.189833
 Sum of Mulliken charges =   0.00000

 Dipole moment (field-independent basis, Debye):
    X=              0.8887    Y=             -1.4166    Z=              0.0266  Tot=              1.6725
 Quadrupole moment (field-independent basis, Debye-Ang):
   XX=            -12.9883   YY=            -12.3583   ZZ=            -13.7507
   XY=              2.2542   XZ=             -0.0422   YZ=             -0.0184

 Normal termination of Gaussian 09 at Wed Aug 26 09:58:08 2020.
