 Gaussian 09, Revision D.01,
 Gaussian 09:  ES64L-G09RevD.01 24-Apr-2013

 --------------------
 #p B2PLYPD3/Def2QZVP
 --------------------

 --------
 methanol
 --------
 Symbolic Z-matrix:
 Charge =  0 Multiplicity = 1

                         Standard orientation:
 ---------------------------------------------------------------------
 Center     Atomic      Atomic             Coordinates (Angstroms)
 Number     Number       Type             X           Y           Z
 ---------------------------------------------------------------------
      1          6           0       -0.659294   -0.014444    0.002067
      2          8           0        0.752486    0.100826   -0.010976
      3          1           0       -1.018271   -0.470707    0.962880
      4          1           0       -1.041085   -0.652693   -0.875059
      5          1           0       -1.111661    1.022967   -0.070971
      6          1           0        1.106888   -0.619507    0.058557
 ---------------------------------------------------------------------

 SCF Done:  E(RB2PLYPD3) =  -115.518815757     A.U. after   10 cycles
 E2(B2PLYPD3) =    -0.1451211627D+00 E(B2PLYPD3) =    -0.11566393691951D+03

 The electronic state is 1-A.
 Alpha  occ. eigenvalues --  -19.71171 -10.67394  -1.20395  -0.79642  -0.60712
 Alpha  occ. eigenvalues --   -0.51375  -0.50261  -0.41039  -0.35700
 Alpha virt. eigenvalues --    0.05364   0.08765   0.12049   0.12211   0.14666
 Alpha virt. eigenvalues --    0.17270   0.17881   0.28908   0.33028   0.33222
 Alpha virt. eigenvalues --    0.37026   0.38785   0.39558   0.39825   0.42927

 Mulliken charges:
               1
     1  C    0.061681
     2  O   -0.357837
     3  H    0.048653
     4  H    0.045269
     5  H    0.074667
     6  H    0.127567
 Sum of Mulliken charges =   0.00000

 Dipole moment (field-independent basis, Debye):
    X=             -0.8795    Y=             -1.3315    Z=              0.1596  Tot=              1.6037
 Quadrupole moment (field-independent basis, Debye-Ang):
   XX=            -13.0614   YY=            -12.4643   ZZ=            -13.7171
   XY=             -2.1072   XZ=              0.1755   YZ=             -0.0885

 Normal termination of Gaussian 09 at Wed Aug 26 13:39:22 2020.
