 Gaussian 09, Revision D.01,
 Gaussian 09:  ES64L-G09RevD.01 24-Apr-2013

 --------------------
 #p B2PLYPD3/Def2QZVP
 --------------------

 --------
 methanol
 --------
 Symbolic Z-matrix:
 Charge =  0 Multiplicity = 1

                         Standard orientation:
 ---------------------------------------------------------------------
 Center     Atomic      Atomic             Coordinates (Angstroms)
 Number     Number       Type             X           Y           Z
 ---------------------------------------------------------------------
      1          6           0        0.665758    0.029846    0.020346
      2          8           0       -0.734716   -0.166013   -0.014373
      3          1           0        0.976467    0.449758    0.835607
      4          1           0        1.072445    0.615254   -0.800884
      5          1           0        1.116670   -0.869611   -0.073536
      6          1           0       -1.282403    0.953625    0.031718
 ---------------------------------------------------------------------

 SCF Done:  E(RB2PLYPD3) =  -115.487947106     A.U. after   11 cycles
 E2(B2PLYPD3) =    -0.1520736715D+00 E(B2PLYPD3) =    -0.11564002077800D+03

 The electronic state is 1-A.
 Alpha  occ. eigenvalues --  -19.74408 -10.62884  -1.12480  -0.79333  -0.55862
 Alpha  occ. eigenvalues --   -0.52142  -0.49735  -0.39967  -0.34992
 Alpha virt. eigenvalues --    0.01591   0.07526   0.12815   0.12885   0.14935
 Alpha virt. eigenvalues --    0.17505   0.18414   0.25156   0.29540   0.33437
 Alpha virt. eigenvalues --    0.34514   0.38842   0.40129   0.42057   0.44508

 Mulliken charges:
               1
     1  C    0.090627
     2  O   -0.497030
     3  H    0.049801
     4  H    0.036885
     5  H    0.064133
     6  H    0.255583
 Sum of Mulliken charges =   0.00000

 Dipole moment (field-independent basis, Debye):
    X=              0.8258    Y=              1.6646    Z=              0.1573  Tot=              1.8648
 Quadrupole moment (field-independent basis, Debye-Ang):
   XX=            -12.4929   YY=            -11.9353   ZZ=            -13.9582
   XY=             -2.6383   XZ=             -0.0709   YZ=              0.1467

 Normal termination of Gaussian 09 at Wed Aug 26 11:14:14 2020.
