 Gaussian 09, Revision D.01,
 Gaussian 09:  ES64L-G09RevD.01 24-Apr-2013

 --------------------
 #p B2PLYPD3/Def2QZVP
 --------------------

 --------
 methanol
 --------
 Symbolic Z-matrix:
 Charge =  0 Multiplicity = 1

                         Standard orientation:
 ---------------------------------------------------------------------
 Center     Atomic      Atomic             Coordinates (Angstroms)
 Number     Number       Type             X           Y           Z
 ---------------------------------------------------------------------
      1          6           0        0.665479   -0.023855   -0.000176
      2          8           0       -0.750681    0.100904   -0.001203
      3          1           0        1.027093   -0.614549   -0.880247
      4          1           0        1.080020   -0.496877    0.921613
      5          1           0        1.069375    1.070042   -0.059778
      6          1           0       -1.163908   -0.622720    0.029092
 ---------------------------------------------------------------------

 SCF Done:  E(RB2PLYPD3) =  -115.529222352     A.U. after   10 cycles
 E2(B2PLYPD3) =    -0.1456130128D+00 E(B2PLYPD3) =    -0.11567483536455D+03

 The electronic state is 1-A.
 Alpha  occ. eigenvalues --  -19.71339 -10.67359  -1.19061  -0.79460  -0.60580
 Alpha  occ. eigenvalues --   -0.51381  -0.49378  -0.40594  -0.35731
 Alpha virt. eigenvalues --    0.05344   0.08577   0.11919   0.12290   0.14895
 Alpha virt. eigenvalues --    0.16951   0.18000   0.29030   0.33028   0.33450
 Alpha virt. eigenvalues --    0.36757   0.38703   0.39580   0.40026   0.42099

 Mulliken charges:
               1
     1  C    0.060015
     2  O   -0.387736
     3  H    0.051542
     4  H    0.053290
     5  H    0.070377
     6  H    0.152512
 Sum of Mulliken charges =   0.00000

 Dipole moment (field-independent basis, Debye):
    X=              0.8005    Y=             -1.3952    Z=              0.0613  Tot=              1.6097
 Quadrupole moment (field-independent basis, Debye-Ang):
   XX=            -12.8485   YY=            -12.4658   ZZ=            -13.7856
   XY=              2.0481   XZ=             -0.0329   YZ=             -0.0317

 Normal termination of Gaussian 09 at Wed Aug 26 23:59:46 2020.
