 Gaussian 09, Revision D.01,
 Gaussian 09:  ES64L-G09RevD.01 24-Apr-2013

 --------------------
 #p B2PLYPD3/Def2QZVP
 --------------------

 --------
 methanol
 --------
 Symbolic Z-matrix:
 Charge =  0 Multiplicity = 1

                         Standard orientation:
 ---------------------------------------------------------------------
 Center     Atomic      Atomic             Coordinates (Angstroms)
 Number     Number       Type             X           Y           Z
 ---------------------------------------------------------------------
      1          6           0        0.686590    0.049927   -0.017553
      2          8           0       -0.732386   -0.207049    0.015752
      3          1           0        0.853371    0.557304    0.851688
      4          1           0        0.976338    0.406000   -0.732716
      5          1           0        1.142649   -0.760117   -0.008005
      6          1           0       -1.232810    1.153647   -0.131670
 ---------------------------------------------------------------------

 SCF Done:  E(RB2PLYPD3) =  -115.366723106     A.U. after   12 cycles
 E2(B2PLYPD3) =    -0.1568050838D+00 E(B2PLYPD3) =    -0.11552352819019D+03

 The electronic state is 1-A.
 Alpha  occ. eigenvalues --  -19.75155 -10.60016  -1.10848  -0.82407  -0.56269
 Alpha  occ. eigenvalues --   -0.54390  -0.48079  -0.38978  -0.35293
 Alpha virt. eigenvalues --   -0.02252   0.07570   0.12449   0.12863   0.14381
 Alpha virt. eigenvalues --    0.17763   0.18456   0.21907   0.29435   0.32240
 Alpha virt. eigenvalues --    0.34072   0.39246   0.39960   0.43639   0.46726

 Mulliken charges:
               1
     1  C    0.050949
     2  O   -0.484023
     3  H    0.061547
     4  H    0.092361
     5  H    0.055795
     6  H    0.223372
 Sum of Mulliken charges =   0.00000

 Dipole moment (field-independent basis, Debye):
    X=              1.2357    Y=              1.7062    Z=             -0.2783  Tot=              2.1250
 Quadrupole moment (field-independent basis, Debye-Ang):
   XX=            -12.9696   YY=            -11.4868   ZZ=            -13.6152
   XY=             -2.6171   XZ=             -0.0390   YZ=             -0.1788

 Normal termination of Gaussian 09 at Wed Aug 26 18:59:40 2020.
