 Gaussian 09, Revision D.01,
 Gaussian 09:  ES64L-G09RevD.01 24-Apr-2013

 --------------------
 #p B2PLYPD3/Def2QZVP
 --------------------

 --------
 methanol
 --------
 Symbolic Z-matrix:
 Charge =  0 Multiplicity = 1

                         Standard orientation:
 ---------------------------------------------------------------------
 Center     Atomic      Atomic             Coordinates (Angstroms)
 Number     Number       Type             X           Y           Z
 ---------------------------------------------------------------------
      1          6           0       -0.664178    0.023495   -0.002192
      2          8           0        0.741919   -0.144307   -0.005161
      3          1           0       -1.012647    0.584712   -0.840498
      4          1           0       -1.073108    0.483960    0.859247
      5          1           0       -1.079483   -0.927737   -0.021559
      6          1           0        1.214952    0.872554    0.057253
 ---------------------------------------------------------------------

 SCF Done:  E(RB2PLYPD3) =  -115.528728342     A.U. after   11 cycles
 E2(B2PLYPD3) =    -0.1499408198D+00 E(B2PLYPD3) =    -0.11567866916145D+03

 The electronic state is 1-A.
 Alpha  occ. eigenvalues --  -19.73794 -10.64140  -1.13629  -0.78628  -0.56870
 Alpha  occ. eigenvalues --   -0.51814  -0.49696  -0.40660  -0.35075
 Alpha virt. eigenvalues --    0.03505   0.07721   0.12638   0.12717   0.15023
 Alpha virt. eigenvalues --    0.17287   0.18363   0.28505   0.29851   0.33430
 Alpha virt. eigenvalues --    0.34405   0.39047   0.39773   0.41755   0.43869

 Mulliken charges:
               1
     1  C    0.077535
     2  O   -0.488647
     3  H    0.045267
     4  H    0.044212
     5  H    0.068161
     6  H    0.253472
 Sum of Mulliken charges =   0.00000

 Dipole moment (field-independent basis, Debye):
    X=             -0.8290    Y=              1.6078    Z=              0.1123  Tot=              1.8125
 Quadrupole moment (field-independent basis, Debye-Ang):
   XX=            -12.7438   YY=            -12.0325   ZZ=            -13.9421
   XY=              2.4562   XZ=              0.0697   YZ=              0.0505

 Normal termination of Gaussian 09 at Wed Aug 26 23:06:22 2020.
