 Gaussian 09, Revision D.01,
 Gaussian 09:  ES64L-G09RevD.01 24-Apr-2013

 --------------------
 #p B2PLYPD3/Def2QZVP
 --------------------

 --------
 methanol
 --------
 Symbolic Z-matrix:
 Charge =  0 Multiplicity = 1

                         Standard orientation:
 ---------------------------------------------------------------------
 Center     Atomic      Atomic             Coordinates (Angstroms)
 Number     Number       Type             X           Y           Z
 ---------------------------------------------------------------------
      1          6           0       -0.657424   -0.025795    0.000607
      2          8           0        0.741867    0.108965   -0.005060
      3          1           0       -0.980068   -0.553576    0.927010
      4          1           0       -1.036645   -0.537244   -0.925500
      5          1           0       -1.111692    1.010531    0.026072
      6          1           0        1.138012   -0.636656    0.009251
 ---------------------------------------------------------------------

 SCF Done:  E(RB2PLYPD3) =  -115.535875581     A.U. after   10 cycles
 E2(B2PLYPD3) =    -0.1453862066D+00 E(B2PLYPD3) =    -0.11568126178759D+03

 The electronic state is 1-A.
 Alpha  occ. eigenvalues --  -19.71379 -10.66799  -1.19301  -0.79432  -0.60281
 Alpha  occ. eigenvalues --   -0.52062  -0.50199  -0.40416  -0.35622
 Alpha virt. eigenvalues --    0.05361   0.08671   0.12142   0.12352   0.14584
 Alpha virt. eigenvalues --    0.17255   0.18043   0.28926   0.33092   0.33775
 Alpha virt. eigenvalues --    0.36964   0.38938   0.39799   0.40362   0.43340

 Mulliken charges:
               1
     1  C    0.062120
     2  O   -0.393151
     3  H    0.048975
     4  H    0.049660
     5  H    0.069998
     6  H    0.162398
 Sum of Mulliken charges =   0.00000

 Dipole moment (field-independent basis, Debye):
    X=             -0.7911    Y=             -1.3782    Z=              0.0412  Tot=              1.5897
 Quadrupole moment (field-independent basis, Debye-Ang):
   XX=            -12.9580   YY=            -12.5395   ZZ=            -13.6423
   XY=             -2.1872   XZ=              0.0672   YZ=             -0.0106

 Normal termination of Gaussian 09 at Wed Aug 26 23:38:57 2020.
