 Gaussian 09, Revision D.01,
 Gaussian 09:  ES64L-G09RevD.01 24-Apr-2013

 --------------------
 #p B2PLYPD3/Def2QZVP
 --------------------

 --------
 methanol
 --------
 Symbolic Z-matrix:
 Charge =  0 Multiplicity = 1

                         Standard orientation:
 ---------------------------------------------------------------------
 Center     Atomic      Atomic             Coordinates (Angstroms)
 Number     Number       Type             X           Y           Z
 ---------------------------------------------------------------------
      1          6           0        0.662638    0.024211    0.002306
      2          8           0       -0.748828   -0.145832   -0.007504
      3          1           0        1.060265    0.451980    0.859524
      4          1           0        1.016648    0.604003   -0.825542
      5          1           0        1.101199   -0.928856   -0.049438
      6          1           0       -1.163317    0.894259    0.061651
 ---------------------------------------------------------------------

 SCF Done:  E(RB2PLYPD3) =  -115.528172202     A.U. after   11 cycles
 E2(B2PLYPD3) =    -0.1500956327D+00 E(B2PLYPD3) =    -0.11567826783507D+03

 The electronic state is 1-A.
 Alpha  occ. eigenvalues --  -19.73953 -10.64114  -1.13643  -0.78741  -0.56754
 Alpha  occ. eigenvalues --   -0.51967  -0.49506  -0.40924  -0.35258
 Alpha virt. eigenvalues --    0.03495   0.07737   0.12580   0.12696   0.14940
 Alpha virt. eigenvalues --    0.17494   0.18357   0.28390   0.29841   0.33456
 Alpha virt. eigenvalues --    0.34178   0.39053   0.39804   0.41820   0.43959

 Mulliken charges:
               1
     1  C    0.080628
     2  O   -0.485987
     3  H    0.045979
     4  H    0.043133
     5  H    0.064145
     6  H    0.252102
 Sum of Mulliken charges =   0.00000

 Dipole moment (field-independent basis, Debye):
    X=              0.9282    Y=              1.6357    Z=              0.1407  Tot=              1.8860
 Quadrupole moment (field-independent basis, Debye-Ang):
   XX=            -12.9603   YY=            -11.9579   ZZ=            -13.9249
   XY=             -2.3847   XZ=             -0.0690   YZ=              0.0818

 Normal termination of Gaussian 09 at Wed Aug 26 22:14:47 2020.
