 Gaussian 09, Revision D.01,
 Gaussian 09:  ES64L-G09RevD.01 24-Apr-2013

 --------------------
 #p B2PLYPD3/Def2QZVP
 --------------------

 --------
 methanol
 --------
 Symbolic Z-matrix:
 Charge =  0 Multiplicity = 1

                         Standard orientation:
 ---------------------------------------------------------------------
 Center     Atomic      Atomic             Coordinates (Angstroms)
 Number     Number       Type             X           Y           Z
 ---------------------------------------------------------------------
      1          6           0       -0.679044   -0.016585   -0.001103
      2          8           0        0.782080   -0.032602   -0.051847
      3          1           0       -1.225349    1.117460   -0.236646
      4          1           0       -1.065170   -0.405813    1.063842
      5          1           0       -0.974982   -0.706450   -0.778689
      6          1           0        1.083118    0.355134    0.372890
 ---------------------------------------------------------------------

 SCF Done:  E(RB2PLYPD3) =  -115.322147764     A.U. after   11 cycles
 E2(B2PLYPD3) =    -0.1445610841D+00 E(B2PLYPD3) =    -0.11546670884850D+03

 The electronic state is 1-A.
 Alpha  occ. eigenvalues --  -19.69609 -10.69744  -1.25818  -0.81608  -0.61109
 Alpha  occ. eigenvalues --   -0.50895  -0.49314  -0.41824  -0.36186
 Alpha virt. eigenvalues --    0.05145   0.08703   0.11151   0.12123   0.14375
 Alpha virt. eigenvalues --    0.16668   0.18059   0.28210   0.30504   0.32004
 Alpha virt. eigenvalues --    0.33965   0.37028   0.40246   0.40936   0.42069

 Mulliken charges:
               1
     1  C    0.042138
     2  O   -0.215695
     3  H    0.041362
     4  H    0.054387
     5  H    0.100023
     6  H   -0.022214
 Sum of Mulliken charges =   0.00000

 Dipole moment (field-independent basis, Debye):
    X=             -1.0727    Y=              0.6324    Z=              0.8346  Tot=              1.4991
 Quadrupole moment (field-independent basis, Debye-Ang):
   XX=            -13.1353   YY=            -13.1495   ZZ=            -13.0055
   XY=              1.2408   XZ=              1.3915   YZ=              0.5391

 Normal termination of Gaussian 09 at Wed Aug 26 18:42:50 2020.
