 Gaussian 09, Revision D.01,
 Gaussian 09:  ES64L-G09RevD.01 24-Apr-2013

 --------------------
 #p B2PLYPD3/Def2QZVP
 --------------------

 --------
 methanol
 --------
 Symbolic Z-matrix:
 Charge =  0 Multiplicity = 1

                         Standard orientation:
 ---------------------------------------------------------------------
 Center     Atomic      Atomic             Coordinates (Angstroms)
 Number     Number       Type             X           Y           Z
 ---------------------------------------------------------------------
      1          6           0       -0.668523    0.002995    0.010756
      2          8           0        0.758926   -0.078401   -0.028142
      3          1           0       -1.069338    0.937628   -0.666623
      4          1           0       -1.053797    0.121724    1.081856
      5          1           0       -1.094439   -0.950311   -0.415633
      6          1           0        1.157307    0.500191    0.161003
 ---------------------------------------------------------------------

 SCF Done:  E(RB2PLYPD3) =  -115.450291126     A.U. after   11 cycles
 E2(B2PLYPD3) =    -0.1445457501D+00 E(B2PLYPD3) =    -0.11559483687639D+03

 The electronic state is 1-A.
 Alpha  occ. eigenvalues --  -19.70126 -10.68821  -1.22417  -0.81040  -0.61127
 Alpha  occ. eigenvalues --   -0.50815  -0.50376  -0.40368  -0.35833
 Alpha virt. eigenvalues --    0.05344   0.08897   0.11642   0.12200   0.14396
 Alpha virt. eigenvalues --    0.16975   0.17895   0.28790   0.32224   0.32633
 Alpha virt. eigenvalues --    0.35845   0.38088   0.39097   0.40479   0.42221

 Mulliken charges:
               1
     1  C    0.055718
     2  O   -0.281625
     3  H    0.037982
     4  H    0.056955
     5  H    0.086721
     6  H    0.044249
 Sum of Mulliken charges =   0.00000

 Dipole moment (field-independent basis, Debye):
    X=             -0.8633    Y=              1.0748    Z=              0.4231  Tot=              1.4421
 Quadrupole moment (field-independent basis, Debye-Ang):
   XX=            -12.7932   YY=            -12.7889   ZZ=            -13.5657
   XY=              1.9991   XZ=              0.5923   YZ=              0.3048

 Normal termination of Gaussian 09 at Wed Aug 26 15:02:22 2020.
