 Gaussian 09, Revision D.01,
 Gaussian 09:  ES64L-G09RevD.01 24-Apr-2013

 --------------------
 #p B2PLYPD3/Def2QZVP
 --------------------

 --------
 methanol
 --------
 Symbolic Z-matrix:
 Charge =  0 Multiplicity = 1

                         Standard orientation:
 ---------------------------------------------------------------------
 Center     Atomic      Atomic             Coordinates (Angstroms)
 Number     Number       Type             X           Y           Z
 ---------------------------------------------------------------------
      1          6           0       -0.672638    0.012675   -0.004987
      2          8           0        0.742825   -0.139475   -0.006607
      3          1           0       -1.032843    0.562379   -0.841249
      4          1           0       -1.024906    0.509434    0.864625
      5          1           0       -1.016448   -0.925147    0.015077
      6          1           0        1.167426    0.893083    0.044326
 ---------------------------------------------------------------------

 SCF Done:  E(RB2PLYPD3) =  -115.526104193     A.U. after   11 cycles
 E2(B2PLYPD3) =    -0.1498742041D+00 E(B2PLYPD3) =    -0.11567597839759D+03

 The electronic state is 1-A.
 Alpha  occ. eigenvalues --  -19.73575 -10.63738  -1.13493  -0.78913  -0.57212
 Alpha  occ. eigenvalues --   -0.51795  -0.49626  -0.41258  -0.34988
 Alpha virt. eigenvalues --    0.03582   0.07909   0.12587   0.12680   0.15013
 Alpha virt. eigenvalues --    0.17107   0.18171   0.28687   0.30080   0.33465
 Alpha virt. eigenvalues --    0.34019   0.38807   0.40425   0.41619   0.44013

 Mulliken charges:
               1
     1  C    0.080826
     2  O   -0.491084
     3  H    0.045851
     4  H    0.041769
     5  H    0.073453
     6  H    0.249185
 Sum of Mulliken charges =   0.00000

 Dipole moment (field-independent basis, Debye):
    X=             -0.9347    Y=              1.5980    Z=              0.0936  Tot=              1.8537
 Quadrupole moment (field-independent basis, Debye-Ang):
   XX=            -13.0519   YY=            -11.8208   ZZ=            -13.8796
   XY=              2.3550   XZ=              0.0939   YZ=              0.0222

 Normal termination of Gaussian 09 at Thu Aug 27 00:10:40 2020.
