 Gaussian 09, Revision D.01,
 Gaussian 09:  ES64L-G09RevD.01 24-Apr-2013

 --------------------
 #p B2PLYPD3/Def2QZVP
 --------------------

 --------
 methanol
 --------
 Symbolic Z-matrix:
 Charge =  0 Multiplicity = 1

                         Standard orientation:
 ---------------------------------------------------------------------
 Center     Atomic      Atomic             Coordinates (Angstroms)
 Number     Number       Type             X           Y           Z
 ---------------------------------------------------------------------
      1          6           0       -0.661242   -0.014639    0.011943
      2          8           0        0.742101    0.076765   -0.038989
      3          1           0       -0.906899   -0.254498    1.089062
      4          1           0       -1.056145   -0.821756   -0.776795
      5          1           0       -1.068561    1.030932   -0.245262
      6          1           0        1.062244   -0.480967    0.173255
 ---------------------------------------------------------------------

 SCF Done:  E(RB2PLYPD3) =  -115.387104959     A.U. after   11 cycles
 E2(B2PLYPD3) =    -0.1435485824D+00 E(B2PLYPD3) =    -0.11553065354171D+03

 The electronic state is 1-A.
 Alpha  occ. eigenvalues --  -19.69310 -10.68317  -1.25490  -0.81620  -0.61453
 Alpha  occ. eigenvalues --   -0.52066  -0.50647  -0.40742  -0.35950
 Alpha virt. eigenvalues --    0.05338   0.09391   0.11659   0.12033   0.14201
 Alpha virt. eigenvalues --    0.16903   0.17675   0.28488   0.32582   0.33007
 Alpha virt. eigenvalues --    0.36502   0.37814   0.39500   0.40894   0.43379

 Mulliken charges:
               1
     1  C    0.052628
     2  O   -0.228736
     3  H    0.051617
     4  H    0.046129
     5  H    0.079328
     6  H   -0.000965
 Sum of Mulliken charges =   0.00000

 Dipole moment (field-independent basis, Debye):
    X=             -0.8917    Y=             -1.0812    Z=              0.4953  Tot=              1.4864
 Quadrupole moment (field-independent basis, Debye-Ang):
   XX=            -13.3238   YY=            -12.6278   ZZ=            -13.3245
   XY=             -1.8379   XZ=              0.7227   YZ=             -0.2464

 Normal termination of Gaussian 09 at Wed Aug 26 16:33:36 2020.
