 Gaussian 09, Revision D.01,
 Gaussian 09:  ES64L-G09RevD.01 24-Apr-2013

 --------------------
 #p B2PLYPD3/Def2QZVP
 --------------------

 --------
 methanol
 --------
 Symbolic Z-matrix:
 Charge =  0 Multiplicity = 1

                         Standard orientation:
 ---------------------------------------------------------------------
 Center     Atomic      Atomic             Coordinates (Angstroms)
 Number     Number       Type             X           Y           Z
 ---------------------------------------------------------------------
      1          6           0       -0.662589    0.026730    0.001111
      2          8           0        0.742253   -0.142588   -0.005778
      3          1           0       -0.998959    0.571228   -0.826453
      4          1           0       -1.020205    0.487093    0.838908
      5          1           0       -1.064707   -0.964277   -0.017657
      6          1           0        1.121381    0.886279    0.044761
 ---------------------------------------------------------------------

 SCF Done:  E(RB2PLYPD3) =  -115.531321568     A.U. after   11 cycles
 E2(B2PLYPD3) =    -0.1494586493D+00 E(B2PLYPD3) =    -0.11568078021700D+03

 The electronic state is 1-A.
 Alpha  occ. eigenvalues --  -19.73593 -10.63793  -1.14202  -0.78793  -0.57472
 Alpha  occ. eigenvalues --   -0.52665  -0.49138  -0.41170  -0.35273
 Alpha virt. eigenvalues --    0.03776   0.07995   0.12425   0.12699   0.15051
 Alpha virt. eigenvalues --    0.17365   0.18134   0.28868   0.30271   0.33487
 Alpha virt. eigenvalues --    0.34457   0.38878   0.39859   0.42465   0.44595

 Mulliken charges:
               1
     1  C    0.084086
     2  O   -0.482190
     3  H    0.044091
     4  H    0.044526
     5  H    0.063320
     6  H    0.246167
 Sum of Mulliken charges =   0.00000

 Dipole moment (field-independent basis, Debye):
    X=             -0.9627    Y=              1.6589    Z=              0.1070  Tot=              1.9210
 Quadrupole moment (field-independent basis, Debye-Ang):
   XX=            -13.2089   YY=            -11.8328   ZZ=            -13.8491
   XY=              2.2358   XZ=              0.0475   YZ=              0.0575

 Normal termination of Gaussian 09 at Thu Aug 27 00:03:38 2020.
