 Gaussian 09, Revision D.01,
 Gaussian 09:  ES64L-G09RevD.01 24-Apr-2013

 --------------------
 #p B2PLYPD3/Def2QZVP
 --------------------

 --------
 methanol
 --------
 Symbolic Z-matrix:
 Charge =  0 Multiplicity = 1

                         Standard orientation:
 ---------------------------------------------------------------------
 Center     Atomic      Atomic             Coordinates (Angstroms)
 Number     Number       Type             X           Y           Z
 ---------------------------------------------------------------------
      1          6           0        0.659114   -0.012193   -0.006270
      2          8           0       -0.752959    0.095151   -0.000872
      3          1           0        1.038042   -0.662153   -0.877363
      4          1           0        1.162171   -0.393028    0.994474
      5          1           0        1.014503    1.011982   -0.142832
      6          1           0       -1.145728   -0.644855    0.070317
 ---------------------------------------------------------------------

 SCF Done:  E(RB2PLYPD3) =  -115.529432316     A.U. after   10 cycles
 E2(B2PLYPD3) =    -0.1459290639D+00 E(B2PLYPD3) =    -0.11567536138027D+03

 The electronic state is 1-A.
 Alpha  occ. eigenvalues --  -19.71770 -10.67517  -1.19277  -0.79401  -0.60164
 Alpha  occ. eigenvalues --   -0.50931  -0.50044  -0.40923  -0.35564
 Alpha virt. eigenvalues --    0.05343   0.08384   0.12009   0.12303   0.14833
 Alpha virt. eigenvalues --    0.16856   0.18352   0.28796   0.32861   0.33656
 Alpha virt. eigenvalues --    0.36132   0.38792   0.39341   0.39907   0.42630

 Mulliken charges:
               1
     1  C    0.052356
     2  O   -0.383471
     3  H    0.047407
     4  H    0.044201
     5  H    0.078590
     6  H    0.160916
 Sum of Mulliken charges =   0.00000

 Dipole moment (field-independent basis, Debye):
    X=              0.7720    Y=             -1.2933    Z=              0.0785  Tot=              1.5082
 Quadrupole moment (field-independent basis, Debye-Ang):
   XX=            -12.9320   YY=            -12.5275   ZZ=            -13.7974
   XY=              2.1199   XZ=             -0.1550   YZ=             -0.0702

 Normal termination of Gaussian 09 at Wed Aug 26 14:43:12 2020.
