 Gaussian 09, Revision D.01,
 Gaussian 09:  ES64L-G09RevD.01 24-Apr-2013

 --------------------
 #p B2PLYPD3/Def2QZVP
 --------------------

 --------
 methanol
 --------
 Symbolic Z-matrix:
 Charge =  0 Multiplicity = 1

                         Standard orientation:
 ---------------------------------------------------------------------
 Center     Atomic      Atomic             Coordinates (Angstroms)
 Number     Number       Type             X           Y           Z
 ---------------------------------------------------------------------
      1          6           0        0.669973    0.008821   -0.007991
      2          8           0       -0.757304    0.069881   -0.007182
      3          1           0        1.087890   -0.688799   -0.878927
      4          1           0        1.047118   -0.456994    1.038601
      5          1           0        0.984620    1.061578   -0.097508
      6          1           0       -1.081036   -0.527755    0.043237
 ---------------------------------------------------------------------

 SCF Done:  E(RB2PLYPD3) =  -115.391146899     A.U. after   11 cycles
 E2(B2PLYPD3) =    -0.1440157688D+00 E(B2PLYPD3) =    -0.11553516266821D+03

 The electronic state is 1-A.
 Alpha  occ. eigenvalues --  -19.69584 -10.68816  -1.24738  -0.81559  -0.61252
 Alpha  occ. eigenvalues --   -0.51001  -0.50339  -0.41593  -0.35706
 Alpha virt. eigenvalues --    0.05300   0.09157   0.11544   0.12020   0.14580
 Alpha virt. eigenvalues --    0.16662   0.17668   0.28675   0.32155   0.32672
 Alpha virt. eigenvalues --    0.35825   0.37619   0.39665   0.40792   0.42107

 Mulliken charges:
               1
     1  C    0.050907
     2  O   -0.235982
     3  H    0.046676
     4  H    0.041530
     5  H    0.093968
     6  H    0.002901
 Sum of Mulliken charges =   0.00000

 Dipole moment (field-independent basis, Debye):
    X=              0.9397    Y=             -1.1272    Z=              0.0729  Tot=              1.4693
 Quadrupole moment (field-independent basis, Debye-Ang):
   XX=            -13.2477   YY=            -12.3636   ZZ=            -13.6682
   XY=              1.8728   XZ=             -0.2242   YZ=             -0.0477

 Normal termination of Gaussian 09 at Wed Aug 26 12:24:16 2020.
