 Gaussian 09, Revision D.01,
 Gaussian 09:  ES64L-G09RevD.01 24-Apr-2013

 --------------------
 #p B2PLYPD3/Def2QZVP
 --------------------

 --------
 methanol
 --------
 Symbolic Z-matrix:
 Charge =  0 Multiplicity = 1

                         Standard orientation:
 ---------------------------------------------------------------------
 Center     Atomic      Atomic             Coordinates (Angstroms)
 Number     Number       Type             X           Y           Z
 ---------------------------------------------------------------------
      1          6           0       -0.660864   -0.025941    0.023201
      2          8           0        0.750170    0.105971   -0.014460
      3          1           0       -1.034229   -0.461576    0.888386
      4          1           0       -1.113111   -0.614927   -0.872949
      5          1           0       -1.035427    1.073052   -0.078167
      6          1           0        1.146588   -0.688672    0.039198
 ---------------------------------------------------------------------

 SCF Done:  E(RB2PLYPD3) =  -115.539658903     A.U. after   10 cycles
 E2(B2PLYPD3) =    -0.1465277595D+00 E(B2PLYPD3) =    -0.11568618666204D+03

 The electronic state is 1-A.
 Alpha  occ. eigenvalues --  -19.72176 -10.66729  -1.17920  -0.78974  -0.60377
 Alpha  occ. eigenvalues --   -0.51454  -0.49058  -0.40838  -0.35674
 Alpha virt. eigenvalues --    0.05192   0.08352   0.11845   0.12399   0.15131
 Alpha virt. eigenvalues --    0.16939   0.18216   0.28996   0.33291   0.33469
 Alpha virt. eigenvalues --    0.36624   0.37589   0.38939   0.40913   0.43001

 Mulliken charges:
               1
     1  C    0.059190
     2  O   -0.418867
     3  H    0.061845
     4  H    0.041151
     5  H    0.064863
     6  H    0.191819
 Sum of Mulliken charges =   0.00000

 Dipole moment (field-independent basis, Debye):
    X=             -0.7892    Y=             -1.4628    Z=              0.2128  Tot=              1.6756
 Quadrupole moment (field-independent basis, Debye-Ang):
   XX=            -12.9765   YY=            -12.3668   ZZ=            -13.8359
   XY=             -2.0286   XZ=              0.0539   YZ=             -0.1822

 Normal termination of Gaussian 09 at Wed Aug 26 15:05:06 2020.
