 Gaussian 09, Revision D.01,
 Gaussian 09:  ES64L-G09RevD.01 24-Apr-2013

 --------------------
 #p B2PLYPD3/Def2QZVP
 --------------------

 --------
 methanol
 --------
 Symbolic Z-matrix:
 Charge =  0 Multiplicity = 1

                         Standard orientation:
 ---------------------------------------------------------------------
 Center     Atomic      Atomic             Coordinates (Angstroms)
 Number     Number       Type             X           Y           Z
 ---------------------------------------------------------------------
      1          6           0        0.656089   -0.005436   -0.014947
      2          8           0       -0.738655   -0.008631    0.079467
      3          1           0        0.951609    1.069989   -0.533241
      4          1           0        0.961246   -1.007057   -0.609869
      5          1           0        1.167469   -0.016213    1.003657
      6          1           0       -1.107618    0.054942   -0.406603
 ---------------------------------------------------------------------

 SCF Done:  E(RB2PLYPD3) =  -115.241721563     A.U. after   11 cycles
 E2(B2PLYPD3) =    -0.1433491768D+00 E(B2PLYPD3) =    -0.11538507073942D+03

 The electronic state is 1-A.
 Alpha  occ. eigenvalues --  -19.68658 -10.69754  -1.28145  -0.83623  -0.61710
 Alpha  occ. eigenvalues --   -0.51944  -0.51462  -0.39238  -0.35869
 Alpha virt. eigenvalues --    0.05139   0.09542   0.11195   0.12215   0.13504
 Alpha virt. eigenvalues --    0.17157   0.17663   0.28063   0.32112   0.32331
 Alpha virt. eigenvalues --    0.35867   0.37392   0.37806   0.41478   0.43480

 Mulliken charges:
               1
     1  C    0.050851
     2  O   -0.164350
     3  H    0.039348
     4  H    0.050067
     5  H    0.089636
     6  H   -0.065553
 Sum of Mulliken charges =   0.00000

 Dipole moment (field-independent basis, Debye):
    X=              0.8052    Y=              0.1136    Z=             -0.9625  Tot=              1.2600
 Quadrupole moment (field-independent basis, Debye-Ang):
   XX=            -12.9991   YY=            -13.3095   ZZ=            -12.9581
   XY=             -0.2524   XZ=              2.1089   YZ=             -0.0135

 Normal termination of Gaussian 09 at Wed Aug 26 22:45:53 2020.
