 Gaussian 09, Revision D.01,
 Gaussian 09:  ES64L-G09RevD.01 24-Apr-2013

 --------------------
 #p B2PLYPD3/Def2QZVP
 --------------------

 --------
 methanol
 --------
 Symbolic Z-matrix:
 Charge =  0 Multiplicity = 1

                         Standard orientation:
 ---------------------------------------------------------------------
 Center     Atomic      Atomic             Coordinates (Angstroms)
 Number     Number       Type             X           Y           Z
 ---------------------------------------------------------------------
      1          6           0       -0.617248    0.006992    0.005554
      2          8           0        0.724185   -0.169857   -0.025314
      3          1           0       -1.081426    0.676439   -0.783325
      4          1           0       -1.020675    0.346212    0.885169
      5          1           0       -1.136626   -0.768732   -0.063986
      6          1           0        1.148735    1.062984    0.131326
 ---------------------------------------------------------------------

 SCF Done:  E(RB2PLYPD3) =  -115.454869970     A.U. after   11 cycles
 E2(B2PLYPD3) =    -0.1532639888D+00 E(B2PLYPD3) =    -0.11560813395854D+03

 The electronic state is 1-A.
 Alpha  occ. eigenvalues --  -19.75466 -10.62663  -1.14951  -0.79509  -0.55436
 Alpha  occ. eigenvalues --   -0.52286  -0.51582  -0.39250  -0.34602
 Alpha virt. eigenvalues --   -0.00207   0.07422   0.12644   0.13242   0.14959
 Alpha virt. eigenvalues --    0.18235   0.18833   0.23346   0.29394   0.33125
 Alpha virt. eigenvalues --    0.35856   0.38513   0.41320   0.42102   0.43465

 Mulliken charges:
               1
     1  C    0.074805
     2  O   -0.458007
     3  H    0.021938
     4  H    0.035259
     5  H    0.063605
     6  H    0.262401
 Sum of Mulliken charges =   0.00000

 Dipole moment (field-independent basis, Debye):
    X=             -0.7779    Y=              1.6035    Z=              0.3356  Tot=              1.8135
 Quadrupole moment (field-independent basis, Debye-Ang):
   XX=            -13.0410   YY=            -11.7542   ZZ=            -14.0821
   XY=              2.6597   XZ=              0.1822   YZ=              0.2212

 Normal termination of Gaussian 09 at Wed Aug 26 23:32:06 2020.
