 Gaussian 09, Revision D.01,
 Gaussian 09:  ES64L-G09RevD.01 24-Apr-2013

 --------------------
 #p B2PLYPD3/Def2QZVP
 --------------------

 --------
 methanol
 --------
 Symbolic Z-matrix:
 Charge =  0 Multiplicity = 1

                         Standard orientation:
 ---------------------------------------------------------------------
 Center     Atomic      Atomic             Coordinates (Angstroms)
 Number     Number       Type             X           Y           Z
 ---------------------------------------------------------------------
      1          6           0        0.675699   -0.018722   -0.000885
      2          8           0       -0.752463    0.101445   -0.005236
      3          1           0        1.042228   -0.614406   -0.881373
      4          1           0        0.998425   -0.493514    0.964185
      5          1           0        1.076116    1.028192   -0.050733
      6          1           0       -1.151259   -0.619502    0.015122
 ---------------------------------------------------------------------

 SCF Done:  E(RB2PLYPD3) =  -115.527921663     A.U. after   10 cycles
 E2(B2PLYPD3) =    -0.1453692798D+00 E(B2PLYPD3) =    -0.11567329094257D+03

 The electronic state is 1-A.
 Alpha  occ. eigenvalues --  -19.70927 -10.67124  -1.18908  -0.79730  -0.60013
 Alpha  occ. eigenvalues --   -0.51513  -0.49940  -0.40797  -0.35655
 Alpha virt. eigenvalues --    0.05399   0.08708   0.12075   0.12230   0.14588
 Alpha virt. eigenvalues --    0.16999   0.17888   0.29041   0.32516   0.33229
 Alpha virt. eigenvalues --    0.37471   0.39099   0.39609   0.39909   0.42804

 Mulliken charges:
               1
     1  C    0.065669
     2  O   -0.389787
     3  H    0.051736
     4  H    0.052293
     5  H    0.077332
     6  H    0.142756
 Sum of Mulliken charges =   0.00000

 Dipole moment (field-independent basis, Debye):
    X=              0.8933    Y=             -1.3504    Z=              0.0395  Tot=              1.6196
 Quadrupole moment (field-independent basis, Debye-Ang):
   XX=            -12.9396   YY=            -12.4459   ZZ=            -13.6494
   XY=              2.1364   XZ=             -0.1057   YZ=             -0.0098

 Normal termination of Gaussian 09 at Wed Aug 26 09:58:03 2020.
