 Gaussian 09, Revision D.01,
 Gaussian 09:  ES64L-G09RevD.01 24-Apr-2013

 --------------------
 #p B2PLYPD3/Def2QZVP
 --------------------

 --------
 methanol
 --------
 Symbolic Z-matrix:
 Charge =  0 Multiplicity = 1

                         Standard orientation:
 ---------------------------------------------------------------------
 Center     Atomic      Atomic             Coordinates (Angstroms)
 Number     Number       Type             X           Y           Z
 ---------------------------------------------------------------------
      1          6           0        0.657208   -0.015839    0.001167
      2          8           0       -0.743348    0.112553   -0.005022
      3          1           0        1.026123   -0.600355   -0.893753
      4          1           0        1.014374   -0.507270    0.940986
      5          1           0        1.114603    0.975406   -0.038864
      6          1           0       -1.151562   -0.673166    0.024801
 ---------------------------------------------------------------------

 SCF Done:  E(RB2PLYPD3) =  -115.546655679     A.U. after   10 cycles
 E2(B2PLYPD3) =    -0.1459642005D+00 E(B2PLYPD3) =    -0.11569261987925D+03

 The electronic state is 1-A.
 Alpha  occ. eigenvalues --  -19.71874 -10.66457  -1.18151  -0.79151  -0.59785
 Alpha  occ. eigenvalues --   -0.51532  -0.50674  -0.40627  -0.35352
 Alpha virt. eigenvalues --    0.05261   0.08462   0.12192   0.12539   0.14689
 Alpha virt. eigenvalues --    0.17367   0.18034   0.29028   0.33067   0.33854
 Alpha virt. eigenvalues --    0.36392   0.39365   0.39836   0.40120   0.43514

 Mulliken charges:
               1
     1  C    0.065659
     2  O   -0.422761
     3  H    0.043539
     4  H    0.045555
     5  H    0.074721
     6  H    0.193288
 Sum of Mulliken charges =   0.00000

 Dipole moment (field-independent basis, Debye):
    X=              0.7827    Y=             -1.3849    Z=              0.0642  Tot=              1.5921
 Quadrupole moment (field-independent basis, Debye-Ang):
   XX=            -12.8856   YY=            -12.4668   ZZ=            -13.7521
   XY=              2.2887   XZ=             -0.0820   YZ=             -0.0387

 Normal termination of Gaussian 09 at Wed Aug 26 10:35:08 2020.
