 Gaussian 09, Revision D.01,
 Gaussian 09:  ES64L-G09RevD.01 24-Apr-2013

 --------------------
 #p B2PLYPD3/Def2QZVP
 --------------------

 --------
 methanol
 --------
 Symbolic Z-matrix:
 Charge =  0 Multiplicity = 1

                         Standard orientation:
 ---------------------------------------------------------------------
 Center     Atomic      Atomic             Coordinates (Angstroms)
 Number     Number       Type             X           Y           Z
 ---------------------------------------------------------------------
      1          6           0       -0.675685   -0.028777    0.007788
      2          8           0        0.746392    0.099008   -0.005604
      3          1           0       -0.986343   -0.548571    0.915199
      4          1           0       -1.048988   -0.568963   -0.911194
      5          1           0       -1.062469    1.085016   -0.008410
      6          1           0        1.180769   -0.586887    0.002514
 ---------------------------------------------------------------------

 SCF Done:  E(RB2PLYPD3) =  -115.518062942     A.U. after   10 cycles
 E2(B2PLYPD3) =    -0.1452389446D+00 E(B2PLYPD3) =    -0.11566330188629D+03

 The electronic state is 1-A.
 Alpha  occ. eigenvalues --  -19.70647 -10.67443  -1.19228  -0.79906  -0.60462
 Alpha  occ. eigenvalues --   -0.51880  -0.49189  -0.40206  -0.35740
 Alpha virt. eigenvalues --    0.05378   0.08761   0.11832   0.12213   0.14706
 Alpha virt. eigenvalues --    0.16813   0.17837   0.29066   0.32709   0.33229
 Alpha virt. eigenvalues --    0.36569   0.38942   0.39691   0.40457   0.42341

 Mulliken charges:
               1
     1  C    0.062510
     2  O   -0.376812
     3  H    0.058984
     4  H    0.053131
     5  H    0.072403
     6  H    0.129784
 Sum of Mulliken charges =   0.00000

 Dipole moment (field-independent basis, Debye):
    X=             -0.8076    Y=             -1.3720    Z=              0.0504  Tot=              1.5929
 Quadrupole moment (field-independent basis, Debye-Ang):
   XX=            -12.8437   YY=            -12.4967   ZZ=            -13.6543
   XY=             -2.0343   XZ=              0.0404   YZ=             -0.0460

 Normal termination of Gaussian 09 at Wed Aug 26 13:14:20 2020.
