 Gaussian 09, Revision D.01,
 Gaussian 09:  ES64L-G09RevD.01 24-Apr-2013

 --------------------
 #p B2PLYPD3/Def2QZVP
 --------------------

 --------
 methanol
 --------
 Symbolic Z-matrix:
 Charge =  0 Multiplicity = 1

                         Standard orientation:
 ---------------------------------------------------------------------
 Center     Atomic      Atomic             Coordinates (Angstroms)
 Number     Number       Type             X           Y           Z
 ---------------------------------------------------------------------
      1          6           0        0.665810   -0.017408    0.004486
      2          8           0       -0.753185    0.107806   -0.003209
      3          1           0        1.001352   -0.606844   -0.892386
      4          1           0        1.053065   -0.461239    0.932857
      5          1           0        1.051692    1.008843   -0.080337
      6          1           0       -1.075490   -0.698764    0.038619
 ---------------------------------------------------------------------

 SCF Done:  E(RB2PLYPD3) =  -115.543690100     A.U. after   10 cycles
 E2(B2PLYPD3) =    -0.1460215099D+00 E(B2PLYPD3) =    -0.11568971160981D+03

 The electronic state is 1-A.
 Alpha  occ. eigenvalues --  -19.71751 -10.66336  -1.18386  -0.79096  -0.59694
 Alpha  occ. eigenvalues --   -0.51852  -0.49813  -0.41544  -0.35693
 Alpha virt. eigenvalues --    0.05272   0.08638   0.12127   0.12307   0.14711
 Alpha virt. eigenvalues --    0.17184   0.18048   0.28975   0.32887   0.33365
 Alpha virt. eigenvalues --    0.37267   0.38516   0.40085   0.40577   0.43511

 Mulliken charges:
               1
     1  C    0.063964
     2  O   -0.412420
     3  H    0.046817
     4  H    0.052327
     5  H    0.071725
     6  H    0.177587
 Sum of Mulliken charges =   0.00000

 Dipole moment (field-independent basis, Debye):
    X=              0.9649    Y=             -1.4154    Z=              0.0916  Tot=              1.7155
 Quadrupole moment (field-independent basis, Debye-Ang):
   XX=            -13.2940   YY=            -12.2724   ZZ=            -13.6529
   XY=              2.0909   XZ=             -0.0361   YZ=             -0.0790

 Normal termination of Gaussian 09 at Thu Aug 27 00:07:55 2020.
