 Gaussian 09, Revision D.01,
 Gaussian 09:  ES64L-G09RevD.01 24-Apr-2013

 --------------------
 #p B2PLYPD3/Def2QZVP
 --------------------

 --------
 methanol
 --------
 Symbolic Z-matrix:
 Charge =  0 Multiplicity = 1

                         Standard orientation:
 ---------------------------------------------------------------------
 Center     Atomic      Atomic             Coordinates (Angstroms)
 Number     Number       Type             X           Y           Z
 ---------------------------------------------------------------------
      1          6           0        0.672130   -0.028993    0.002230
      2          8           0       -0.746249    0.108974   -0.002611
      3          1           0        1.005781   -0.556887   -0.906562
      4          1           0        0.964956   -0.550971    0.915682
      5          1           0        1.108420    1.034274    0.000798
      6          1           0       -1.141944   -0.624249   -0.002404
 ---------------------------------------------------------------------

 SCF Done:  E(RB2PLYPD3) =  -115.531388488     A.U. after   10 cycles
 E2(B2PLYPD3) =    -0.1452868416D+00 E(B2PLYPD3) =    -0.11567667532970D+03

 The electronic state is 1-A.
 Alpha  occ. eigenvalues --  -19.70925 -10.66703  -1.18887  -0.79668  -0.60088
 Alpha  occ. eigenvalues --   -0.52359  -0.49637  -0.40594  -0.35705
 Alpha virt. eigenvalues --    0.05385   0.08769   0.12146   0.12196   0.14576
 Alpha virt. eigenvalues --    0.17142   0.17799   0.29065   0.32843   0.33213
 Alpha virt. eigenvalues --    0.37176   0.38648   0.40004   0.40775   0.43406

 Mulliken charges:
               1
     1  C    0.068845
     2  O   -0.396825
     3  H    0.052856
     4  H    0.054378
     5  H    0.070837
     6  H    0.149909
 Sum of Mulliken charges =   0.00000

 Dipole moment (field-independent basis, Debye):
    X=              0.8813    Y=             -1.4093    Z=              0.0103  Tot=              1.6622
 Quadrupole moment (field-independent basis, Debye-Ang):
   XX=            -12.9877   YY=            -12.4405   ZZ=            -13.5945
   XY=              2.1447   XZ=             -0.0296   YZ=             -0.0071

 Normal termination of Gaussian 09 at Thu Aug 27 00:03:24 2020.
