 Gaussian 09, Revision D.01,
 Gaussian 09:  ES64L-G09RevD.01 24-Apr-2013

 --------------------
 #p B2PLYPD3/Def2QZVP
 --------------------

 --------
 methanol
 --------
 Symbolic Z-matrix:
 Charge =  0 Multiplicity = 1

                         Standard orientation:
 ---------------------------------------------------------------------
 Center     Atomic      Atomic             Coordinates (Angstroms)
 Number     Number       Type             X           Y           Z
 ---------------------------------------------------------------------
      1          6           0       -0.669068    0.023923    0.000556
      2          8           0        0.747288   -0.142627   -0.007689
      3          1           0       -1.060554    0.567437   -0.834292
      4          1           0       -0.984601    0.508174    0.876470
      5          1           0       -1.114737   -0.927974   -0.003128
      6          1           0        1.195998    0.849838    0.019125
 ---------------------------------------------------------------------

 SCF Done:  E(RB2PLYPD3) =  -115.535857302     A.U. after   11 cycles
 E2(B2PLYPD3) =    -0.1493816349D+00 E(B2PLYPD3) =    -0.11568523893645D+03

 The electronic state is 1-A.
 Alpha  occ. eigenvalues --  -19.73497 -10.64337  -1.13693  -0.78754  -0.56915
 Alpha  occ. eigenvalues --   -0.51923  -0.49781  -0.40774  -0.35181
 Alpha virt. eigenvalues --    0.03923   0.07790   0.12587   0.12695   0.14853
 Alpha virt. eigenvalues --    0.17475   0.18235   0.29008   0.30501   0.33321
 Alpha virt. eigenvalues --    0.33859   0.39350   0.40031   0.41609   0.43795

 Mulliken charges:
               1
     1  C    0.080109
     2  O   -0.490897
     3  H    0.045615
     4  H    0.046819
     5  H    0.067812
     6  H    0.250542
 Sum of Mulliken charges =   0.00000

 Dipole moment (field-independent basis, Debye):
    X=             -0.8881    Y=              1.6077    Z=              0.0690  Tot=              1.8380
 Quadrupole moment (field-independent basis, Debye-Ang):
   XX=            -12.7939   YY=            -12.0752   ZZ=            -13.8809
   XY=              2.4480   XZ=              0.0934   YZ=              0.0255

 Normal termination of Gaussian 09 at Thu Aug 27 00:11:34 2020.
