 Gaussian 09, Revision D.01,
 Gaussian 09:  ES64L-G09RevD.01 24-Apr-2013

 --------------------
 #p B2PLYPD3/Def2QZVP
 --------------------

 --------
 methanol
 --------
 Symbolic Z-matrix:
 Charge =  0 Multiplicity = 1

                         Standard orientation:
 ---------------------------------------------------------------------
 Center     Atomic      Atomic             Coordinates (Angstroms)
 Number     Number       Type             X           Y           Z
 ---------------------------------------------------------------------
      1          6           0       -0.664323   -0.005882   -0.005284
      2          8           0        0.757072    0.092154   -0.019335
      3          1           0       -1.001241   -0.390129    1.038917
      4          1           0       -0.982207   -0.768610   -0.831142
      5          1           0       -1.170082    0.986161   -0.152270
      6          1           0        1.082888   -0.529365    0.130876
 ---------------------------------------------------------------------

 SCF Done:  E(RB2PLYPD3) =  -115.444246257     A.U. after   11 cycles
 E2(B2PLYPD3) =    -0.1441419375D+00 E(B2PLYPD3) =    -0.11558838819420D+03

 The electronic state is 1-A.
 Alpha  occ. eigenvalues --  -19.70006 -10.68268  -1.23396  -0.80772  -0.61257
 Alpha  occ. eigenvalues --   -0.51531  -0.50763  -0.40974  -0.35780
 Alpha virt. eigenvalues --    0.05361   0.09095   0.11706   0.12270   0.14248
 Alpha virt. eigenvalues --    0.17317   0.17684   0.28646   0.32311   0.32712
 Alpha virt. eigenvalues --    0.36590   0.38265   0.38707   0.40568   0.43494

 Mulliken charges:
               1
     1  C    0.061665
     2  O   -0.274264
     3  H    0.042129
     4  H    0.046184
     5  H    0.085407
     6  H    0.038880
 Sum of Mulliken charges =   0.00000

 Dipole moment (field-independent basis, Debye):
    X=             -0.9832    Y=             -1.1701    Z=              0.2981  Tot=              1.5572
 Quadrupole moment (field-independent basis, Debye-Ang):
   XX=            -13.1006   YY=            -12.5757   ZZ=            -13.5869
   XY=             -2.1095   XZ=              0.4328   YZ=             -0.1558

 Normal termination of Gaussian 09 at Wed Aug 26 12:21:16 2020.
