 Gaussian 09, Revision D.01,
 Gaussian 09:  ES64L-G09RevD.01 24-Apr-2013

 --------------------
 #p B2PLYPD3/Def2QZVP
 --------------------

 --------
 methanol
 --------
 Symbolic Z-matrix:
 Charge =  0 Multiplicity = 1

                         Standard orientation:
 ---------------------------------------------------------------------
 Center     Atomic      Atomic             Coordinates (Angstroms)
 Number     Number       Type             X           Y           Z
 ---------------------------------------------------------------------
      1          6           0        0.682576    0.041218   -0.021583
      2          8           0       -0.756642   -0.183636    0.009696
      3          1           0        1.078926    0.521519    0.792019
      4          1           0        1.124643    0.550783   -0.662158
      5          1           0        1.091091   -0.931873   -0.027572
      6          1           0       -1.336976    1.081350   -0.050361
 ---------------------------------------------------------------------

 SCF Done:  E(RB2PLYPD3) =  -115.433333554     A.U. after   11 cycles
 E2(B2PLYPD3) =    -0.1564194137D+00 E(B2PLYPD3) =    -0.11558975296770D+03

 The electronic state is 1-A.
 Alpha  occ. eigenvalues --  -19.75780 -10.62681  -1.10534  -0.80912  -0.55302
 Alpha  occ. eigenvalues --   -0.50897  -0.47965  -0.39988  -0.35307
 Alpha virt. eigenvalues --   -0.01103   0.07135   0.12099   0.13460   0.14864
 Alpha virt. eigenvalues --    0.17262   0.18533   0.22300   0.29176   0.32798
 Alpha virt. eigenvalues --    0.34565   0.37381   0.38674   0.41908   0.45464

 Mulliken charges:
               1
     1  C    0.087037
     2  O   -0.483744
     3  H    0.044011
     4  H    0.056000
     5  H    0.058934
     6  H    0.237762
 Sum of Mulliken charges =   0.00000

 Dipole moment (field-independent basis, Debye):
    X=              1.0034    Y=              1.8005    Z=             -0.1337  Tot=              2.0656
 Quadrupole moment (field-independent basis, Debye-Ang):
   XX=            -12.3757   YY=            -11.5151   ZZ=            -14.3706
   XY=             -2.4204   XZ=              0.0246   YZ=             -0.1237

 Normal termination of Gaussian 09 at Wed Aug 26 23:49:37 2020.
