 Gaussian 09, Revision D.01,
 Gaussian 09:  ES64L-G09RevD.01 24-Apr-2013

 --------------------
 #p B2PLYPD3/Def2QZVP
 --------------------

 --------
 methanol
 --------
 Symbolic Z-matrix:
 Charge =  0 Multiplicity = 1

                         Standard orientation:
 ---------------------------------------------------------------------
 Center     Atomic      Atomic             Coordinates (Angstroms)
 Number     Number       Type             X           Y           Z
 ---------------------------------------------------------------------
      1          6           0        0.663534   -0.016348   -0.010877
      2          8           0       -0.753811    0.094519    0.006997
      3          1           0        1.015826   -0.551332   -0.917164
      4          1           0        1.103677   -0.533753    0.934584
      5          1           0        1.035568    1.053737   -0.010879
      6          1           0       -1.105786   -0.626716    0.002743
 ---------------------------------------------------------------------

 SCF Done:  E(RB2PLYPD3) =  -115.516258541     A.U. after   10 cycles
 E2(B2PLYPD3) =    -0.1452101985D+00 E(B2PLYPD3) =    -0.11566146873975D+03

 The electronic state is 1-A.
 Alpha  occ. eigenvalues --  -19.71132 -10.67394  -1.20349  -0.79710  -0.60697
 Alpha  occ. eigenvalues --   -0.51383  -0.49766  -0.41211  -0.35818
 Alpha virt. eigenvalues --    0.05382   0.08740   0.12063   0.12086   0.14801
 Alpha virt. eigenvalues --    0.16941   0.18048   0.28885   0.32897   0.33285
 Alpha virt. eigenvalues --    0.37010   0.38774   0.39594   0.40135   0.42525

 Mulliken charges:
               1
     1  C    0.056340
     2  O   -0.353425
     3  H    0.054594
     4  H    0.045498
     5  H    0.074451
     6  H    0.122543
 Sum of Mulliken charges =   0.00000

 Dipole moment (field-independent basis, Debye):
    X=              0.8809    Y=             -1.3363    Z=             -0.0641  Tot=              1.6018
 Quadrupole moment (field-independent basis, Debye-Ang):
   XX=            -13.1124   YY=            -12.4177   ZZ=            -13.6984
   XY=              2.0060   XZ=              0.0194   YZ=              0.0623

 Normal termination of Gaussian 09 at Thu Aug 27 00:05:03 2020.
