 Gaussian 09, Revision D.01,
 Gaussian 09:  ES64L-G09RevD.01 24-Apr-2013

 --------------------
 #p B2PLYPD3/Def2QZVP
 --------------------

 --------
 methanol
 --------
 Symbolic Z-matrix:
 Charge =  0 Multiplicity = 1

                         Standard orientation:
 ---------------------------------------------------------------------
 Center     Atomic      Atomic             Coordinates (Angstroms)
 Number     Number       Type             X           Y           Z
 ---------------------------------------------------------------------
      1          6           0       -0.634598    0.004837    0.021338
      2          8           0        0.733591   -0.062522   -0.033714
      3          1           0       -0.943455    1.179256   -0.367419
      4          1           0       -1.175477   -0.267355    1.027490
      5          1           0       -1.066180   -0.766628   -0.786660
      6          1           0        1.123967    0.325885    0.268275
 ---------------------------------------------------------------------

 SCF Done:  E(RB2PLYPD3) =  -115.271134167     A.U. after   11 cycles
 E2(B2PLYPD3) =    -0.1437473971D+00 E(B2PLYPD3) =    -0.11541488156408D+03

 The electronic state is 1-A.
 Alpha  occ. eigenvalues --  -19.69601 -10.70190  -1.28472  -0.84009  -0.62362
 Alpha  occ. eigenvalues --   -0.51705  -0.51011  -0.39075  -0.35681
 Alpha virt. eigenvalues --    0.05060   0.09183   0.11286   0.11886   0.14355
 Alpha virt. eigenvalues --    0.16723   0.18128   0.28289   0.31464   0.34214
 Alpha virt. eigenvalues --    0.34985   0.37146   0.37712   0.41012   0.42717

 Mulliken charges:
               1
     1  C    0.033390
     2  O   -0.143797
     3  H    0.025254
     4  H    0.057970
     5  H    0.077016
     6  H   -0.049832
 Sum of Mulliken charges =   0.00000

 Dipole moment (field-independent basis, Debye):
    X=             -0.5694    Y=              0.7116    Z=              0.6983  Tot=              1.1481
 Quadrupole moment (field-independent basis, Debye-Ang):
   XX=            -12.8740   YY=            -13.2690   ZZ=            -13.3407
   XY=              1.7002   XZ=              0.8971   YZ=              0.3177

 Normal termination of Gaussian 09 at Wed Aug 26 22:20:36 2020.
