 Gaussian 09, Revision D.01,
 Gaussian 09:  ES64L-G09RevD.01 24-Apr-2013

 --------------------
 #p B2PLYPD3/Def2QZVP
 --------------------

 --------
 methanol
 --------
 Symbolic Z-matrix:
 Charge =  0 Multiplicity = 1

                         Standard orientation:
 ---------------------------------------------------------------------
 Center     Atomic      Atomic             Coordinates (Angstroms)
 Number     Number       Type             X           Y           Z
 ---------------------------------------------------------------------
      1          6           0        0.679252    0.012475   -0.008619
      2          8           0       -0.734382   -0.151681    0.005510
      3          1           0        1.060287    0.481455    0.885971
      4          1           0        0.992884    0.609335   -0.799768
      5          1           0        1.007391   -0.880426   -0.077979
      6          1           0       -1.261021    0.928236   -0.000594
 ---------------------------------------------------------------------

 SCF Done:  E(RB2PLYPD3) =  -115.498700752     A.U. after   11 cycles
 E2(B2PLYPD3) =    -0.1512910420D+00 E(B2PLYPD3) =    -0.11564999179402D+03

 The electronic state is 1-A.
 Alpha  occ. eigenvalues --  -19.73864 -10.63107  -1.12484  -0.79152  -0.56745
 Alpha  occ. eigenvalues --   -0.51426  -0.49921  -0.40642  -0.34675
 Alpha virt. eigenvalues --    0.02430   0.07721   0.12696   0.12850   0.14953
 Alpha virt. eigenvalues --    0.17034   0.18167   0.26670   0.29530   0.33315
 Alpha virt. eigenvalues --    0.34162   0.38451   0.40952   0.41434   0.44048

 Mulliken charges:
               1
     1  C    0.081315
     2  O   -0.501922
     3  H    0.044272
     4  H    0.043224
     5  H    0.080001
     6  H    0.253109
 Sum of Mulliken charges =   0.00000

 Dipole moment (field-independent basis, Debye):
    X=              0.8497    Y=              1.6138    Z=             -0.0609  Tot=              1.8249
 Quadrupole moment (field-independent basis, Debye-Ang):
   XX=            -12.7063   YY=            -11.7925   ZZ=            -13.9473
   XY=             -2.5426   XZ=             -0.0051   YZ=             -0.0202

 Normal termination of Gaussian 09 at Wed Aug 26 14:48:38 2020.
