 Gaussian 09, Revision D.01,
 Gaussian 09:  ES64L-G09RevD.01 24-Apr-2013

 --------------------
 #p B2PLYPD3/Def2QZVP
 --------------------

 --------
 methanol
 --------
 Symbolic Z-matrix:
 Charge =  0 Multiplicity = 1

                         Standard orientation:
 ---------------------------------------------------------------------
 Center     Atomic      Atomic             Coordinates (Angstroms)
 Number     Number       Type             X           Y           Z
 ---------------------------------------------------------------------
      1          6           0       -0.643163    0.011428    0.002929
      2          8           0        0.742612   -0.132625   -0.009192
      3          1           0       -1.065997    0.597260   -0.857174
      4          1           0       -1.026380    0.464929    0.918625
      5          1           0       -1.107418   -0.909476   -0.045460
      6          1           0        1.117884    0.839720    0.039968
 ---------------------------------------------------------------------

 SCF Done:  E(RB2PLYPD3) =  -115.541760525     A.U. after   11 cycles
 E2(B2PLYPD3) =    -0.1485336271D+00 E(B2PLYPD3) =    -0.11569029415222D+03

 The electronic state is 1-A.
 Alpha  occ. eigenvalues --  -19.73657 -10.64972  -1.15873  -0.78360  -0.57981
 Alpha  occ. eigenvalues --   -0.51467  -0.50905  -0.40872  -0.35074
 Alpha virt. eigenvalues --    0.04243   0.07920   0.12391   0.12818   0.14893
 Alpha virt. eigenvalues --    0.17726   0.18365   0.28963   0.31508   0.33235
 Alpha virt. eigenvalues --    0.34889   0.38699   0.40644   0.40891   0.43626

 Mulliken charges:
               1
     1  C    0.067228
     2  O   -0.460474
     3  H    0.035722
     4  H    0.040867
     5  H    0.068217
     6  H    0.248439
 Sum of Mulliken charges =   0.00000

 Dipole moment (field-independent basis, Debye):
    X=             -0.8153    Y=              1.5155    Z=              0.1103  Tot=              1.7244
 Quadrupole moment (field-independent basis, Debye-Ang):
   XX=            -13.0796   YY=            -12.1592   ZZ=            -13.9144
   XY=              2.4000   XZ=              0.1082   YZ=              0.0762

 Normal termination of Gaussian 09 at Wed Aug 26 13:19:15 2020.
