 Gaussian 09, Revision D.01,
 Gaussian 09:  ES64L-G09RevD.01 24-Apr-2013

 --------------------
 #p B2PLYPD3/Def2QZVP
 --------------------

 --------
 methanol
 --------
 Symbolic Z-matrix:
 Charge =  0 Multiplicity = 1

                         Standard orientation:
 ---------------------------------------------------------------------
 Center     Atomic      Atomic             Coordinates (Angstroms)
 Number     Number       Type             X           Y           Z
 ---------------------------------------------------------------------
      1          6           0        0.673393    0.024928    0.006234
      2          8           0       -0.740982   -0.145748   -0.006603
      3          1           0        0.995133    0.444819    0.892340
      4          1           0        1.026265    0.620889   -0.811469
      5          1           0        1.078814   -0.918302   -0.086806
      6          1           0       -1.212717    0.869010    0.021354
 ---------------------------------------------------------------------

 SCF Done:  E(RB2PLYPD3) =  -115.528355755     A.U. after   11 cycles
 E2(B2PLYPD3) =    -0.1497806061D+00 E(B2PLYPD3) =    -0.11567813636129D+03

 The electronic state is 1-A.
 Alpha  occ. eigenvalues --  -19.73485 -10.63862  -1.13277  -0.78828  -0.56673
 Alpha  occ. eigenvalues --   -0.52253  -0.49681  -0.40642  -0.35080
 Alpha virt. eigenvalues --    0.03600   0.07825   0.12595   0.12730   0.14878
 Alpha virt. eigenvalues --    0.17278   0.18205   0.28689   0.29940   0.33447
 Alpha virt. eigenvalues --    0.33912   0.39142   0.40233   0.42115   0.43945

 Mulliken charges:
               1
     1  C    0.082893
     2  O   -0.496710
     3  H    0.050286
     4  H    0.042880
     5  H    0.069211
     6  H    0.251439
 Sum of Mulliken charges =   0.00000

 Dipole moment (field-independent basis, Debye):
    X=              0.8809    Y=              1.6105    Z=              0.0699  Tot=              1.8370
 Quadrupole moment (field-independent basis, Debye-Ang):
   XX=            -12.8057   YY=            -12.0057   ZZ=            -13.8331
   XY=             -2.4707   XZ=             -0.0695   YZ=              0.0609

 Normal termination of Gaussian 09 at Wed Aug 26 10:01:03 2020.
