 Gaussian 09, Revision D.01,
 Gaussian 09:  ES64L-G09RevD.01 24-Apr-2013

 --------------------
 #p B2PLYPD3/Def2QZVP
 --------------------

 --------
 methanol
 --------
 Symbolic Z-matrix:
 Charge =  0 Multiplicity = 1

                         Standard orientation:
 ---------------------------------------------------------------------
 Center     Atomic      Atomic             Coordinates (Angstroms)
 Number     Number       Type             X           Y           Z
 ---------------------------------------------------------------------
      1          6           0        0.667427    0.015763    0.008055
      2          8           0       -0.736001   -0.156347   -0.031005
      3          1           0        1.087711    0.201666    0.949105
      4          1           0        1.054364    0.794690   -0.728530
      5          1           0        1.050350   -0.776369   -0.214610
      6          1           0       -1.308975    0.936217    0.193752
 ---------------------------------------------------------------------

 SCF Done:  E(RB2PLYPD3) =  -115.469079965     A.U. after   11 cycles
 E2(B2PLYPD3) =    -0.1524971052D+00 E(B2PLYPD3) =    -0.11562157706986D+03

 The electronic state is 1-A.
 Alpha  occ. eigenvalues --  -19.74552 -10.63207  -1.12476  -0.79757  -0.55071
 Alpha  occ. eigenvalues --   -0.51352  -0.50715  -0.39837  -0.34850
 Alpha virt. eigenvalues --    0.01412   0.07448   0.12492   0.13236   0.14870
 Alpha virt. eigenvalues --    0.17157   0.18854   0.24904   0.29267   0.33412
 Alpha virt. eigenvalues --    0.34505   0.37233   0.41256   0.41559   0.43160

 Mulliken charges:
               1
     1  C    0.058092
     2  O   -0.493760
     3  H    0.049962
     4  H    0.036180
     5  H    0.088873
     6  H    0.260653
 Sum of Mulliken charges =   0.00000

 Dipole moment (field-independent basis, Debye):
    X=              0.7490    Y=              1.4918    Z=              0.3720  Tot=              1.7102
 Quadrupole moment (field-independent basis, Debye-Ang):
   XX=            -12.3835   YY=            -12.0939   ZZ=            -13.9025
   XY=             -2.7781   XZ=             -0.4425   YZ=              0.2853

 Normal termination of Gaussian 09 at Wed Aug 26 21:40:46 2020.
