 Gaussian 09, Revision D.01,
 Gaussian 09:  ES64L-G09RevD.01 24-Apr-2013

 --------------------
 #p B2PLYPD3/Def2QZVP
 --------------------

 --------
 methanol
 --------
 Symbolic Z-matrix:
 Charge =  0 Multiplicity = 1

                         Standard orientation:
 ---------------------------------------------------------------------
 Center     Atomic      Atomic             Coordinates (Angstroms)
 Number     Number       Type             X           Y           Z
 ---------------------------------------------------------------------
      1          6           0       -0.653335   -0.016378   -0.000582
      2          8           0        0.746616    0.104596   -0.007224
      3          1           0       -1.031128   -0.518264    0.930271
      4          1           0       -1.027153   -0.592228   -0.904361
      5          1           0       -1.095024    1.020758   -0.014690
      6          1           0        1.100394   -0.648765    0.050064
 ---------------------------------------------------------------------

 SCF Done:  E(RB2PLYPD3) =  -115.532347144     A.U. after   10 cycles
 E2(B2PLYPD3) =    -0.1453617440D+00 E(B2PLYPD3) =    -0.11567770888837D+03

 The electronic state is 1-A.
 Alpha  occ. eigenvalues --  -19.71528 -10.66969  -1.19907  -0.79337  -0.60597
 Alpha  occ. eigenvalues --   -0.51625  -0.50296  -0.41012  -0.35599
 Alpha virt. eigenvalues --    0.05330   0.08712   0.12141   0.12250   0.14767
 Alpha virt. eigenvalues --    0.17277   0.17955   0.28926   0.33031   0.33822
 Alpha virt. eigenvalues --    0.37131   0.38798   0.39838   0.39951   0.43054

 Mulliken charges:
               1
     1  C    0.061137
     2  O   -0.378553
     3  H    0.045423
     4  H    0.046212
     5  H    0.071762
     6  H    0.154020
 Sum of Mulliken charges =   0.00000

 Dipole moment (field-independent basis, Debye):
    X=             -0.8352    Y=             -1.3688    Z=              0.1232  Tot=              1.6082
 Quadrupole moment (field-independent basis, Debye-Ang):
   XX=            -13.1145   YY=            -12.4233   ZZ=            -13.7311
   XY=             -2.1142   XZ=              0.1161   YZ=             -0.0577

 Normal termination of Gaussian 09 at Thu Aug 27 00:06:07 2020.
