 Gaussian 09, Revision D.01,
 Gaussian 09:  ES64L-G09RevD.01 24-Apr-2013

 --------------------
 #p B2PLYPD3/Def2QZVP
 --------------------

 --------
 methanol
 --------
 Symbolic Z-matrix:
 Charge =  0 Multiplicity = 1

                         Standard orientation:
 ---------------------------------------------------------------------
 Center     Atomic      Atomic             Coordinates (Angstroms)
 Number     Number       Type             X           Y           Z
 ---------------------------------------------------------------------
      1          6           0       -0.698516   -0.011339   -0.011271
      2          8           0        0.767770    0.102382    0.003149
      3          1           0       -0.955242   -0.629474    0.914201
      4          1           0       -1.179259   -0.444273   -0.871014
      5          1           0       -0.951875    1.038707    0.105211
      6          1           0        1.135307   -0.715987   -0.105963
 ---------------------------------------------------------------------

 SCF Done:  E(RB2PLYPD3) =  -115.542353189     A.U. after   11 cycles
 E2(B2PLYPD3) =    -0.1473425939D+00 E(B2PLYPD3) =    -0.11568969578290D+03

 The electronic state is 1-A.
 Alpha  occ. eigenvalues --  -19.71832 -10.66493  -1.15875  -0.79094  -0.58947
 Alpha  occ. eigenvalues --   -0.51084  -0.48381  -0.41952  -0.35486
 Alpha virt. eigenvalues --    0.05173   0.08223   0.12075   0.12184   0.14743
 Alpha virt. eigenvalues --    0.16602   0.18171   0.28621   0.31234   0.33996
 Alpha virt. eigenvalues --    0.37151   0.38137   0.39011   0.40832   0.42506

 Mulliken charges:
               1
     1  C    0.058582
     2  O   -0.446685
     3  H    0.050931
     4  H    0.062439
     5  H    0.079777
     6  H    0.194956
 Sum of Mulliken charges =   0.00000

 Dipole moment (field-independent basis, Debye):
    X=             -1.0395    Y=             -1.4274    Z=             -0.2373  Tot=              1.7817
 Quadrupole moment (field-independent basis, Debye-Ang):
   XX=            -13.1428   YY=            -12.1607   ZZ=            -13.7451
   XY=             -2.0292   XZ=              0.0155   YZ=              0.2124

 Normal termination of Gaussian 09 at Wed Aug 26 23:31:51 2020.
