 Gaussian 09, Revision D.01,
 Gaussian 09:  ES64L-G09RevD.01 24-Apr-2013

 --------------------
 #p B2PLYPD3/Def2QZVP
 --------------------

 --------
 methanol
 --------
 Symbolic Z-matrix:
 Charge =  0 Multiplicity = 1

                         Standard orientation:
 ---------------------------------------------------------------------
 Center     Atomic      Atomic             Coordinates (Angstroms)
 Number     Number       Type             X           Y           Z
 ---------------------------------------------------------------------
      1          6           0        0.666211    0.017580    0.006985
      2          8           0       -0.743515   -0.140042   -0.004415
      3          1           0        1.067799    0.484654    0.848731
      4          1           0        1.001986    0.599549   -0.846357
      5          1           0        1.067375   -0.933487   -0.054602
      6          1           0       -1.186306    0.864138    0.045638
 ---------------------------------------------------------------------

 SCF Done:  E(RB2PLYPD3) =  -115.532902878     A.U. after   11 cycles
 E2(B2PLYPD3) =    -0.1494957521D+00 E(B2PLYPD3) =    -0.11568239863058D+03

 The electronic state is 1-A.
 Alpha  occ. eigenvalues --  -19.73593 -10.64174  -1.13875  -0.78740  -0.57290
 Alpha  occ. eigenvalues --   -0.51625  -0.49836  -0.41027  -0.35026
 Alpha virt. eigenvalues --    0.03785   0.07842   0.12609   0.12670   0.15027
 Alpha virt. eigenvalues --    0.17302   0.18216   0.28933   0.30356   0.33292
 Alpha virt. eigenvalues --    0.34301   0.38983   0.39907   0.41588   0.44130

 Mulliken charges:
               1
     1  C    0.079247
     2  O   -0.486534
     3  H    0.046222
     4  H    0.040513
     5  H    0.070012
     6  H    0.250539
 Sum of Mulliken charges =   0.00000

 Dipole moment (field-independent basis, Debye):
    X=              0.8694    Y=              1.5983    Z=              0.1135  Tot=              1.8230
 Quadrupole moment (field-independent basis, Debye-Ang):
   XX=            -12.8769   YY=            -11.9691   ZZ=            -13.9317
   XY=             -2.4036   XZ=             -0.0142   YZ=              0.0988

 Normal termination of Gaussian 09 at Thu Aug 27 00:12:00 2020.
