 Gaussian 09, Revision D.01,
 Gaussian 09:  ES64L-G09RevD.01 24-Apr-2013

 --------------------
 #p B2PLYPD3/Def2QZVP
 --------------------

 --------
 methanol
 --------
 Symbolic Z-matrix:
 Charge =  0 Multiplicity = 1

                         Standard orientation:
 ---------------------------------------------------------------------
 Center     Atomic      Atomic             Coordinates (Angstroms)
 Number     Number       Type             X           Y           Z
 ---------------------------------------------------------------------
      1          6           0        0.679903    0.026183    0.001037
      2          8           0       -0.752478   -0.157742    0.005291
      3          1           0        1.017581    0.539796    0.832806
      4          1           0        1.090838    0.469483   -0.816052
      5          1           0        1.013666   -0.913244   -0.003106
      6          1           0       -1.181680    1.008802   -0.062198
 ---------------------------------------------------------------------

 SCF Done:  E(RB2PLYPD3) =  -115.490460797     A.U. after   11 cycles
 E2(B2PLYPD3) =    -0.1528608897D+00 E(B2PLYPD3) =    -0.11564332168664D+03

 The electronic state is 1-A.
 Alpha  occ. eigenvalues --  -19.74606 -10.62946  -1.11782  -0.79478  -0.55902
 Alpha  occ. eigenvalues --   -0.52362  -0.48291  -0.40870  -0.35352
 Alpha virt. eigenvalues --    0.01778   0.07594   0.12549   0.12769   0.14911
 Alpha virt. eigenvalues --    0.17051   0.18482   0.25324   0.29373   0.33174
 Alpha virt. eigenvalues --    0.34093   0.38825   0.39581   0.42509   0.44356

 Mulliken charges:
               1
     1  C    0.087451
     2  O   -0.494915
     3  H    0.048140
     4  H    0.045792
     5  H    0.067341
     6  H    0.246193
 Sum of Mulliken charges =   0.00000

 Dipole moment (field-independent basis, Debye):
    X=              1.0809    Y=              1.6733    Z=             -0.1190  Tot=              1.9956
 Quadrupole moment (field-independent basis, Debye-Ang):
   XX=            -13.0714   YY=            -11.6320   ZZ=            -13.9205
   XY=             -2.3291   XZ=              0.0330   YZ=             -0.0548

 Normal termination of Gaussian 09 at Wed Aug 26 11:49:29 2020.
