 Gaussian 09, Revision D.01,
 Gaussian 09:  ES64L-G09RevD.01 24-Apr-2013

 --------------------
 #p B2PLYPD3/Def2QZVP
 --------------------

 --------
 methanol
 --------
 Symbolic Z-matrix:
 Charge =  0 Multiplicity = 1

                         Standard orientation:
 ---------------------------------------------------------------------
 Center     Atomic      Atomic             Coordinates (Angstroms)
 Number     Number       Type             X           Y           Z
 ---------------------------------------------------------------------
      1          6           0       -0.677553   -0.014975    0.011926
      2          8           0        0.760904    0.095691   -0.031069
      3          1           0       -0.976326   -0.252537    1.019253
      4          1           0       -1.067909   -0.808164   -0.759305
      5          1           0       -1.074069    1.002143   -0.236268
      6          1           0        1.096393   -0.617117    0.153316
 ---------------------------------------------------------------------

 SCF Done:  E(RB2PLYPD3) =  -115.518869871     A.U. after   10 cycles
 E2(B2PLYPD3) =    -0.1453917349D+00 E(B2PLYPD3) =    -0.11566426160623D+03

 The electronic state is 1-A.
 Alpha  occ. eigenvalues --  -19.70930 -10.67156  -1.19482  -0.79706  -0.60001
 Alpha  occ. eigenvalues --   -0.51591  -0.49739  -0.41359  -0.35886
 Alpha virt. eigenvalues --    0.05372   0.08756   0.11867   0.12258   0.14513
 Alpha virt. eigenvalues --    0.17037   0.17960   0.28915   0.32033   0.33083
 Alpha virt. eigenvalues --    0.36976   0.38637   0.39440   0.40753   0.43362

 Mulliken charges:
               1
     1  C    0.064834
     2  O   -0.373855
     3  H    0.059287
     4  H    0.046363
     5  H    0.076026
     6  H    0.127344
 Sum of Mulliken charges =   0.00000

 Dipole moment (field-independent basis, Debye):
    X=             -1.0118    Y=             -1.2872    Z=              0.4261  Tot=              1.6918
 Quadrupole moment (field-independent basis, Debye-Ang):
   XX=            -13.1915   YY=            -12.4239   ZZ=            -13.5440
   XY=             -2.0275   XZ=              0.4854   YZ=             -0.2381

 Normal termination of Gaussian 09 at Wed Aug 26 13:27:26 2020.
