 Gaussian 09, Revision D.01,
 Gaussian 09:  ES64L-G09RevD.01 24-Apr-2013

 --------------------
 #p B2PLYPD3/Def2QZVP
 --------------------

 --------
 methanol
 --------
 Symbolic Z-matrix:
 Charge =  0 Multiplicity = 1

                         Standard orientation:
 ---------------------------------------------------------------------
 Center     Atomic      Atomic             Coordinates (Angstroms)
 Number     Number       Type             X           Y           Z
 ---------------------------------------------------------------------
      1          6           0        0.669593   -0.024320   -0.004127
      2          8           0       -0.757923    0.102415   -0.001407
      3          1           0        1.036519   -0.616636   -0.867908
      4          1           0        1.078560   -0.457360    0.949432
      5          1           0        1.062988    1.049868   -0.076478
      6          1           0       -1.132241   -0.649275    0.030972
 ---------------------------------------------------------------------

 SCF Done:  E(RB2PLYPD3) =  -115.533316636     A.U. after   10 cycles
 E2(B2PLYPD3) =    -0.1458287139D+00 E(B2PLYPD3) =    -0.11567914534977D+03

 The electronic state is 1-A.
 Alpha  occ. eigenvalues --  -19.71488 -10.67142  -1.18745  -0.79300  -0.60148
 Alpha  occ. eigenvalues --   -0.51476  -0.49304  -0.41030  -0.35881
 Alpha virt. eigenvalues --    0.05347   0.08553   0.12033   0.12210   0.14785
 Alpha virt. eigenvalues --    0.17002   0.18128   0.28947   0.32691   0.33408
 Alpha virt. eigenvalues --    0.37099   0.38554   0.39652   0.40071   0.42481

 Mulliken charges:
               1
     1  C    0.060250
     2  O   -0.395210
     3  H    0.054536
     4  H    0.053166
     5  H    0.070380
     6  H    0.156878
 Sum of Mulliken charges =   0.00000

 Dipole moment (field-independent basis, Debye):
    X=              0.9030    Y=             -1.4038    Z=              0.0457  Tot=              1.6698
 Quadrupole moment (field-independent basis, Debye-Ang):
   XX=            -12.9936   YY=            -12.4223   ZZ=            -13.7207
   XY=              2.0537   XZ=             -0.0699   YZ=             -0.0072

 Normal termination of Gaussian 09 at Wed Aug 26 12:54:53 2020.
