 Gaussian 09, Revision D.01,
 Gaussian 09:  ES64L-G09RevD.01 24-Apr-2013

 --------------------
 #p B2PLYPD3/Def2QZVP
 --------------------

 --------
 methanol
 --------
 Symbolic Z-matrix:
 Charge =  0 Multiplicity = 1

                         Standard orientation:
 ---------------------------------------------------------------------
 Center     Atomic      Atomic             Coordinates (Angstroms)
 Number     Number       Type             X           Y           Z
 ---------------------------------------------------------------------
      1          6           0        0.663548    0.027612   -0.013167
      2          8           0       -0.741565   -0.161942    0.000686
      3          1           0        1.050484    0.496461    0.838665
      4          1           0        0.916009    0.622386   -0.787848
      5          1           0        1.193561   -0.894516   -0.031388
      6          1           0       -1.208822    0.905532    0.054083
 ---------------------------------------------------------------------

 SCF Done:  E(RB2PLYPD3) =  -115.513949286     A.U. after   11 cycles
 E2(B2PLYPD3) =    -0.1506161931D+00 E(B2PLYPD3) =    -0.11566456547897D+03

 The electronic state is 1-A.
 Alpha  occ. eigenvalues --  -19.73965 -10.63594  -1.13131  -0.78898  -0.56251
 Alpha  occ. eigenvalues --   -0.52584  -0.49507  -0.40445  -0.34942
 Alpha virt. eigenvalues --    0.02824   0.07617   0.12630   0.12870   0.14784
 Alpha virt. eigenvalues --    0.17748   0.18307   0.27234   0.29713   0.33023
 Alpha virt. eigenvalues --    0.34114   0.39581   0.39923   0.42403   0.43411

 Mulliken charges:
               1
     1  C    0.092463
     2  O   -0.495035
     3  H    0.038658
     4  H    0.043868
     5  H    0.064289
     6  H    0.255757
 Sum of Mulliken charges =   0.00000

 Dipole moment (field-independent basis, Debye):
    X=              0.8886    Y=              1.7114    Z=              0.0674  Tot=              1.9295
 Quadrupole moment (field-independent basis, Debye-Ang):
   XX=            -12.7395   YY=            -11.9263   ZZ=            -13.9956
   XY=             -2.5568   XZ=             -0.0210   YZ=             -0.0142

 Normal termination of Gaussian 09 at Wed Aug 26 16:06:26 2020.
