 Gaussian 09, Revision D.01,
 Gaussian 09:  ES64L-G09RevD.01 24-Apr-2013

 --------------------
 #p B2PLYPD3/Def2QZVP
 --------------------

 --------
 methanol
 --------
 Symbolic Z-matrix:
 Charge =  0 Multiplicity = 1

                         Standard orientation:
 ---------------------------------------------------------------------
 Center     Atomic      Atomic             Coordinates (Angstroms)
 Number     Number       Type             X           Y           Z
 ---------------------------------------------------------------------
      1          6           0        0.647761   -0.037474    0.023710
      2          8           0       -0.752291   -0.037477   -0.059539
      3          1           0        1.013999   -0.227963    1.017233
      4          1           0        1.188704    1.163941   -0.381510
      5          1           0        1.002454   -0.806340   -0.651424
      6          1           0       -1.073396    0.395017    0.349751
 ---------------------------------------------------------------------

 SCF Done:  E(RB2PLYPD3) =  -115.367438489     A.U. after   11 cycles
 E2(B2PLYPD3) =    -0.1440906152D+00 E(B2PLYPD3) =    -0.11551152910409D+03

 The electronic state is 1-A.
 Alpha  occ. eigenvalues --  -19.70306 -10.68839  -1.26123  -0.82570  -0.62722
 Alpha  occ. eigenvalues --   -0.52195  -0.50018  -0.41780  -0.35191
 Alpha virt. eigenvalues --    0.05066   0.08878   0.10994   0.12249   0.14802
 Alpha virt. eigenvalues --    0.16872   0.17951   0.28130   0.30030   0.33414
 Alpha virt. eigenvalues --    0.34666   0.39289   0.40590   0.40838   0.42737

 Mulliken charges:
               1
     1  C    0.044942
     2  O   -0.211205
     3  H    0.062736
     4  H    0.005682
     5  H    0.093839
     6  H    0.004007
 Sum of Mulliken charges =   0.00000

 Dipole moment (field-independent basis, Debye):
    X=              0.7509    Y=              0.4739    Z=              0.9923  Tot=              1.3316
 Quadrupole moment (field-independent basis, Debye-Ang):
   XX=            -13.2572   YY=            -13.1947   ZZ=            -13.1279
   XY=             -1.7045   XZ=             -1.1017   YZ=              0.6017

 Normal termination of Gaussian 09 at Wed Aug 26 23:35:42 2020.
