 Gaussian 09, Revision D.01,
 Gaussian 09:  ES64L-G09RevD.01 24-Apr-2013

 --------------------
 #p B2PLYPD3/Def2QZVP
 --------------------

 --------
 methanol
 --------
 Symbolic Z-matrix:
 Charge =  0 Multiplicity = 1

                         Standard orientation:
 ---------------------------------------------------------------------
 Center     Atomic      Atomic             Coordinates (Angstroms)
 Number     Number       Type             X           Y           Z
 ---------------------------------------------------------------------
      1          6           0        0.660932   -0.002800    0.007258
      2          8           0       -0.754061    0.095734   -0.006748
      3          1           0        1.040494   -0.675264   -0.879566
      4          1           0        1.031304   -0.447931    0.985478
      5          1           0        1.073849    1.001933   -0.127114
      6          1           0       -1.078757   -0.627809    0.031639
 ---------------------------------------------------------------------

 SCF Done:  E(RB2PLYPD3) =  -115.511591660     A.U. after   10 cycles
 E2(B2PLYPD3) =    -0.1450006475D+00 E(B2PLYPD3) =    -0.11565659230798D+03

 The electronic state is 1-A.
 Alpha  occ. eigenvalues --  -19.71064 -10.67428  -1.20850  -0.79813  -0.60595
 Alpha  occ. eigenvalues --   -0.51219  -0.50654  -0.41469  -0.35605
 Alpha virt. eigenvalues --    0.05355   0.08844   0.11890   0.12307   0.14643
 Alpha virt. eigenvalues --    0.17215   0.17823   0.28847   0.32841   0.33066
 Alpha virt. eigenvalues --    0.36714   0.39051   0.39787   0.40012   0.42984

 Mulliken charges:
               1
     1  C    0.060627
     2  O   -0.344669
     3  H    0.037972
     4  H    0.049170
     5  H    0.080973
     6  H    0.115928
 Sum of Mulliken charges =   0.00000

 Dipole moment (field-independent basis, Debye):
    X=              0.9212    Y=             -1.2815    Z=              0.0986  Tot=              1.5813
 Quadrupole moment (field-independent basis, Debye-Ang):
   XX=            -13.2215   YY=            -12.3979   ZZ=            -13.6958
   XY=              2.1028   XZ=             -0.0957   YZ=             -0.1154

 Normal termination of Gaussian 09 at Thu Aug 27 00:06:41 2020.
