 Gaussian 09, Revision D.01,
 Gaussian 09:  ES64L-G09RevD.01 24-Apr-2013

 --------------------
 #p B2PLYPD3/Def2QZVP
 --------------------

 --------
 methanol
 --------
 Symbolic Z-matrix:
 Charge =  0 Multiplicity = 1

                         Standard orientation:
 ---------------------------------------------------------------------
 Center     Atomic      Atomic             Coordinates (Angstroms)
 Number     Number       Type             X           Y           Z
 ---------------------------------------------------------------------
      1          6           0        0.676972    0.012080   -0.000265
      2          8           0       -0.747127   -0.129472   -0.004684
      3          1           0        1.021807    0.464057    0.917509
      4          1           0        0.990622    0.633183   -0.843619
      5          1           0        1.066688   -0.932587   -0.075885
      6          1           0       -1.163935    0.798644    0.041054
 ---------------------------------------------------------------------

 SCF Done:  E(RB2PLYPD3) =  -115.546242306     A.U. after   10 cycles
 E2(B2PLYPD3) =    -0.1481354251D+00 E(B2PLYPD3) =    -0.11569437773101D+03

 The electronic state is 1-A.
 Alpha  occ. eigenvalues --  -19.72730 -10.64795  -1.14520  -0.78913  -0.57647
 Alpha  occ. eigenvalues --   -0.51652  -0.50316  -0.41155  -0.35060
 Alpha virt. eigenvalues --    0.04578   0.08117   0.12384   0.12657   0.14773
 Alpha virt. eigenvalues --    0.17258   0.17988   0.29222   0.32951   0.33164
 Alpha virt. eigenvalues --    0.33479   0.39056   0.40732   0.41062   0.43934

 Mulliken charges:
               1
     1  C    0.078564
     2  O   -0.484279
     3  H    0.047266
     4  H    0.044036
     5  H    0.075903
     6  H    0.238511
 Sum of Mulliken charges =   0.00000

 Dipole moment (field-independent basis, Debye):
    X=              0.9210    Y=              1.5198    Z=              0.0824  Tot=              1.7790
 Quadrupole moment (field-independent basis, Debye-Ang):
   XX=            -12.9928   YY=            -12.0711   ZZ=            -13.7898
   XY=             -2.3924   XZ=             -0.0809   YZ=              0.0626

 Normal termination of Gaussian 09 at Wed Aug 26 09:50:33 2020.
