 Gaussian 09, Revision D.01,
 Gaussian 09:  ES64L-G09RevD.01 24-Apr-2013

 --------------------
 #p B2PLYPD3/Def2QZVP
 --------------------

 --------
 methanol
 --------
 Symbolic Z-matrix:
 Charge =  0 Multiplicity = 1

                         Standard orientation:
 ---------------------------------------------------------------------
 Center     Atomic      Atomic             Coordinates (Angstroms)
 Number     Number       Type             X           Y           Z
 ---------------------------------------------------------------------
      1          6           0        0.660848    0.018331   -0.017799
      2          8           0       -0.740997   -0.161446    0.007865
      3          1           0        1.006115    0.557007    0.867059
      4          1           0        1.055829    0.500903   -0.797862
      5          1           0        1.092702   -0.863060    0.024979
      6          1           0       -1.191758    0.986732   -0.050300
 ---------------------------------------------------------------------

 SCF Done:  E(RB2PLYPD3) =  -115.491229155     A.U. after   11 cycles
 E2(B2PLYPD3) =    -0.1520441901D+00 E(B2PLYPD3) =    -0.11564327334472D+03

 The electronic state is 1-A.
 Alpha  occ. eigenvalues --  -19.74579 -10.62972  -1.12840  -0.79349  -0.56112
 Alpha  occ. eigenvalues --   -0.51697  -0.49984  -0.40637  -0.34909
 Alpha virt. eigenvalues --    0.01736   0.07610   0.12690   0.12886   0.14879
 Alpha virt. eigenvalues --    0.17631   0.18412   0.25408   0.29588   0.33225
 Alpha virt. eigenvalues --    0.34690   0.38664   0.40518   0.41704   0.44400

 Mulliken charges:
               1
     1  C    0.089874
     2  O   -0.487613
     3  H    0.035985
     4  H    0.042725
     5  H    0.064548
     6  H    0.254482
 Sum of Mulliken charges =   0.00000

 Dipole moment (field-independent basis, Debye):
    X=              0.9293    Y=              1.6588    Z=             -0.1612  Tot=              1.9082
 Quadrupole moment (field-independent basis, Debye-Ang):
   XX=            -12.9141   YY=            -11.7576   ZZ=            -13.9742
   XY=             -2.5255   XZ=             -0.0249   YZ=             -0.1545

 Normal termination of Gaussian 09 at Wed Aug 26 15:33:20 2020.
