 Gaussian 09, Revision D.01,
 Gaussian 09:  ES64L-G09RevD.01 24-Apr-2013

 --------------------
 #p B2PLYPD3/Def2QZVP
 --------------------

 --------
 methanol
 --------
 Symbolic Z-matrix:
 Charge =  0 Multiplicity = 1

                         Standard orientation:
 ---------------------------------------------------------------------
 Center     Atomic      Atomic             Coordinates (Angstroms)
 Number     Number       Type             X           Y           Z
 ---------------------------------------------------------------------
      1          6           0        0.658949    0.023986    0.003539
      2          8           0       -0.746239   -0.139132   -0.001782
      3          1           0        1.045627    0.504193    0.855137
      4          1           0        1.017309    0.559213   -0.851958
      5          1           0        1.095315   -0.951655   -0.028463
      6          1           0       -1.142030    0.857394    0.018303
 ---------------------------------------------------------------------

 SCF Done:  E(RB2PLYPD3) =  -115.539379181     A.U. after   11 cycles
 E2(B2PLYPD3) =    -0.1491105266D+00 E(B2PLYPD3) =    -0.11568848970771D+03

 The electronic state is 1-A.
 Alpha  occ. eigenvalues --  -19.73596 -10.64473  -1.14541  -0.78547  -0.57508
 Alpha  occ. eigenvalues --   -0.52015  -0.49636  -0.41012  -0.35282
 Alpha virt. eigenvalues --    0.04048   0.07900   0.12543   0.12610   0.14969
 Alpha virt. eigenvalues --    0.17487   0.18256   0.29009   0.30877   0.33484
 Alpha virt. eigenvalues --    0.34342   0.38949   0.39886   0.41727   0.44093

 Mulliken charges:
               1
     1  C    0.076576
     2  O   -0.478029
     3  H    0.046229
     4  H    0.043434
     5  H    0.064342
     6  H    0.247447
 Sum of Mulliken charges =   0.00000

 Dipole moment (field-independent basis, Debye):
    X=              0.9030    Y=              1.6161    Z=              0.0471  Tot=              1.8519
 Quadrupole moment (field-independent basis, Debye-Ang):
   XX=            -13.0416   YY=            -12.0158   ZZ=            -13.8895
   XY=             -2.3196   XZ=             -0.0023   YZ=              0.0409

 Normal termination of Gaussian 09 at Wed Aug 26 23:12:43 2020.
