 Gaussian 09, Revision D.01,
 Gaussian 09:  ES64L-G09RevD.01 24-Apr-2013

 --------------------
 #p B2PLYPD3/Def2QZVP
 --------------------

 --------
 methanol
 --------
 Symbolic Z-matrix:
 Charge =  0 Multiplicity = 1

                         Standard orientation:
 ---------------------------------------------------------------------
 Center     Atomic      Atomic             Coordinates (Angstroms)
 Number     Number       Type             X           Y           Z
 ---------------------------------------------------------------------
      1          6           0       -0.650492   -0.018222    0.013772
      2          8           0        0.742734    0.084274   -0.028585
      3          1           0       -0.902436   -0.376084    1.073438
      4          1           0       -1.080202   -0.741780   -0.846519
      5          1           0       -1.164543    1.023141   -0.161706
      6          1           0        1.108258   -0.470139    0.080832
 ---------------------------------------------------------------------

 SCF Done:  E(RB2PLYPD3) =  -115.375770162     A.U. after   11 cycles
 E2(B2PLYPD3) =    -0.1436508401D+00 E(B2PLYPD3) =    -0.11551942100175D+03

 The electronic state is 1-A.
 Alpha  occ. eigenvalues --  -19.69529 -10.68916  -1.25760  -0.82065  -0.61857
 Alpha  occ. eigenvalues --   -0.52097  -0.50656  -0.39840  -0.35933
 Alpha virt. eigenvalues --    0.05312   0.09226   0.11683   0.12115   0.14082
 Alpha virt. eigenvalues --    0.17227   0.17761   0.28404   0.32395   0.33424
 Alpha virt. eigenvalues --    0.35787   0.37247   0.39121   0.40797   0.43330

 Mulliken charges:
               1
     1  C    0.050941
     2  O   -0.218419
     3  H    0.051438
     4  H    0.042134
     5  H    0.078206
     6  H   -0.004300
 Sum of Mulliken charges =   0.00000

 Dipole moment (field-independent basis, Debye):
    X=             -0.7973    Y=             -1.1064    Z=              0.2848  Tot=              1.3932
 Quadrupole moment (field-independent basis, Debye-Ang):
   XX=            -12.9630   YY=            -12.8417   ZZ=            -13.4718
   XY=             -2.0119   XZ=              0.4892   YZ=             -0.1488

 Normal termination of Gaussian 09 at Wed Aug 26 18:30:57 2020.
