 Gaussian 09, Revision D.01,
 Gaussian 09:  ES64L-G09RevD.01 24-Apr-2013

 --------------------
 #p B2PLYPD3/Def2QZVP
 --------------------

 --------
 methanol
 --------
 Symbolic Z-matrix:
 Charge =  0 Multiplicity = 1

                         Standard orientation:
 ---------------------------------------------------------------------
 Center     Atomic      Atomic             Coordinates (Angstroms)
 Number     Number       Type             X           Y           Z
 ---------------------------------------------------------------------
      1          6           0        0.648329    0.040278   -0.008051
      2          8           0       -0.734302   -0.204085   -0.015993
      3          1           0        0.899697    0.465188    0.791384
      4          1           0        1.078257    0.574764   -0.716619
      5          1           0        1.244691   -0.789055    0.049828
      6          1           0       -1.238206    1.140117    0.051657
 ---------------------------------------------------------------------

 SCF Done:  E(RB2PLYPD3) =  -115.419995593     A.U. after   11 cycles
 E2(B2PLYPD3) =    -0.1560795978D+00 E(B2PLYPD3) =    -0.11557607519092D+03

 The electronic state is 1-A.
 Alpha  occ. eigenvalues --  -19.75717 -10.61333  -1.12264  -0.80858  -0.53734
 Alpha  occ. eigenvalues --   -0.53464  -0.49991  -0.38758  -0.35336
 Alpha virt. eigenvalues --   -0.02386   0.07283   0.12810   0.13159   0.14475
 Alpha virt. eigenvalues --    0.18263   0.18833   0.21705   0.29721   0.33252
 Alpha virt. eigenvalues --    0.34665   0.39323   0.40415   0.42805   0.43729

 Mulliken charges:
               1
     1  C    0.107242
     2  O   -0.473137
     3  H    0.046496
     4  H    0.036743
     5  H    0.044125
     6  H    0.238531
 Sum of Mulliken charges =   0.00000

 Dipole moment (field-independent basis, Debye):
    X=              1.0278    Y=              1.8387    Z=              0.1702  Tot=              2.1134
 Quadrupole moment (field-independent basis, Debye-Ang):
   XX=            -12.7255   YY=            -11.5614   ZZ=            -14.0451
   XY=             -2.5572   XZ=             -0.1228   YZ=              0.0441

 Normal termination of Gaussian 09 at Wed Aug 26 21:19:10 2020.
