 Gaussian 09, Revision D.01,
 Gaussian 09:  ES64L-G09RevD.01 24-Apr-2013

 --------------------
 #p B2PLYPD3/Def2QZVP
 --------------------

 --------
 methanol
 --------
 Symbolic Z-matrix:
 Charge =  0 Multiplicity = 1

                         Standard orientation:
 ---------------------------------------------------------------------
 Center     Atomic      Atomic             Coordinates (Angstroms)
 Number     Number       Type             X           Y           Z
 ---------------------------------------------------------------------
      1          6           0        0.664019    0.025036    0.018793
      2          8           0       -0.733708   -0.162160   -0.010851
      3          1           0        0.991746    0.473387    0.839312
      4          1           0        1.061529    0.604598   -0.817340
      5          1           0        1.107233   -0.870952   -0.069019
      6          1           0       -1.274955    0.940036    0.021097
 ---------------------------------------------------------------------

 SCF Done:  E(RB2PLYPD3) =  -115.495780427     A.U. after   11 cycles
 E2(B2PLYPD3) =    -0.1516658003D+00 E(B2PLYPD3) =    -0.11564744622719D+03

 The electronic state is 1-A.
 Alpha  occ. eigenvalues --  -19.74297 -10.63107  -1.12750  -0.79102  -0.56051
 Alpha  occ. eigenvalues --   -0.51939  -0.49966  -0.40076  -0.34877
 Alpha virt. eigenvalues --    0.01891   0.07564   0.12835   0.12853   0.14955
 Alpha virt. eigenvalues --    0.17488   0.18375   0.25625   0.29559   0.33427
 Alpha virt. eigenvalues --    0.34620   0.38761   0.40350   0.41954   0.44329

 Mulliken charges:
               1
     1  C    0.088889
     2  O   -0.495775
     3  H    0.047979
     4  H    0.035404
     5  H    0.066463
     6  H    0.257040
 Sum of Mulliken charges =   0.00000

 Dipole moment (field-independent basis, Debye):
    X=              0.7992    Y=              1.6482    Z=              0.1240  Tot=              1.8359
 Quadrupole moment (field-independent basis, Debye-Ang):
   XX=            -12.5210   YY=            -11.9484   ZZ=            -13.9752
   XY=             -2.6385   XZ=             -0.0370   YZ=              0.1346

 Normal termination of Gaussian 09 at Wed Aug 26 11:24:54 2020.
