 Gaussian 09, Revision D.01,
 Gaussian 09:  ES64L-G09RevD.01 24-Apr-2013

 --------------------
 #p B2PLYPD3/Def2QZVP
 --------------------

 --------
 methanol
 --------
 Symbolic Z-matrix:
 Charge =  0 Multiplicity = 1

                         Standard orientation:
 ---------------------------------------------------------------------
 Center     Atomic      Atomic             Coordinates (Angstroms)
 Number     Number       Type             X           Y           Z
 ---------------------------------------------------------------------
      1          6           0       -0.675564   -0.048548   -0.001864
      2          8           0        0.748826    0.092668   -0.020221
      3          1           0       -0.915042   -0.426508    1.011378
      4          1           0       -0.983629   -0.660731   -0.863588
      5          1           0       -1.147816    1.107144   -0.071628
      6          1           0        1.109263   -0.469963    0.096790
 ---------------------------------------------------------------------

 SCF Done:  E(RB2PLYPD3) =  -115.382808780     A.U. after   11 cycles
 E2(B2PLYPD3) =    -0.1437874451D+00 E(B2PLYPD3) =    -0.11552659622540D+03

 The electronic state is 1-A.
 Alpha  occ. eigenvalues --  -19.68931 -10.68343  -1.24454  -0.81606  -0.61433
 Alpha  occ. eigenvalues --   -0.53363  -0.48918  -0.39745  -0.36501
 Alpha virt. eigenvalues --    0.05253   0.09366   0.11513   0.11888   0.14068
 Alpha virt. eigenvalues --    0.16945   0.17706   0.28703   0.31925   0.33072
 Alpha virt. eigenvalues --    0.33981   0.39240   0.40500   0.40642   0.43254

 Mulliken charges:
               1
     1  C    0.059867
     2  O   -0.244960
     3  H    0.059838
     4  H    0.067698
     5  H    0.063740
     6  H   -0.006183
 Sum of Mulliken charges =   0.00000

 Dipole moment (field-independent basis, Debye):
    X=             -0.9502    Y=             -1.2906    Z=              0.2660  Tot=              1.6246
 Quadrupole moment (field-independent basis, Debye-Ang):
   XX=            -13.0973   YY=            -12.6810   ZZ=            -13.2840
   XY=             -1.8618   XZ=              0.4183   YZ=             -0.0296

 Normal termination of Gaussian 09 at Wed Aug 26 13:47:37 2020.
