 Gaussian 09, Revision D.01,
 Gaussian 09:  ES64L-G09RevD.01 24-Apr-2013

 --------------------
 #p B2PLYPD3/Def2QZVP
 --------------------

 --------
 methanol
 --------
 Symbolic Z-matrix:
 Charge =  0 Multiplicity = 1

                         Standard orientation:
 ---------------------------------------------------------------------
 Center     Atomic      Atomic             Coordinates (Angstroms)
 Number     Number       Type             X           Y           Z
 ---------------------------------------------------------------------
      1          6           0        0.702150    0.045865   -0.030026
      2          8           0       -0.750004   -0.173670    0.019222
      3          1           0        1.001071    0.562937    0.857535
      4          1           0        1.039139    0.443821   -0.738439
      5          1           0        1.038271   -0.910570    0.013300
      6          1           0       -1.291348    1.017977   -0.106017
 ---------------------------------------------------------------------

 SCF Done:  E(RB2PLYPD3) =  -115.440220459     A.U. after   11 cycles
 E2(B2PLYPD3) =    -0.1544562674D+00 E(B2PLYPD3) =    -0.11559467672667D+03

 The electronic state is 1-A.
 Alpha  occ. eigenvalues --  -19.74708 -10.62241  -1.10365  -0.80870  -0.56276
 Alpha  occ. eigenvalues --   -0.52522  -0.47419  -0.40285  -0.35311
 Alpha virt. eigenvalues --    0.00704   0.07472   0.12391   0.12806   0.14730
 Alpha virt. eigenvalues --    0.16911   0.18534   0.23987   0.29017   0.32336
 Alpha virt. eigenvalues --    0.34106   0.38356   0.39159   0.42054   0.46305

 Mulliken charges:
               1
     1  C    0.062871
     2  O   -0.503091
     3  H    0.054218
     4  H    0.080741
     5  H    0.066155
     6  H    0.239106
 Sum of Mulliken charges =   0.00000

 Dipole moment (field-independent basis, Debye):
    X=              1.0792    Y=              1.6865    Z=             -0.2833  Tot=              2.0222
 Quadrupole moment (field-independent basis, Debye-Ang):
   XX=            -12.7068   YY=            -11.6949   ZZ=            -13.8439
   XY=             -2.4679   XZ=              0.0509   YZ=             -0.2248

 Normal termination of Gaussian 09 at Wed Aug 26 19:48:37 2020.
