 Gaussian 09, Revision D.01,
 Gaussian 09:  ES64L-G09RevD.01 24-Apr-2013

 --------------------
 #p B2PLYPD3/Def2QZVP
 --------------------

 --------
 methanol
 --------
 Symbolic Z-matrix:
 Charge =  0 Multiplicity = 1

                         Standard orientation:
 ---------------------------------------------------------------------
 Center     Atomic      Atomic             Coordinates (Angstroms)
 Number     Number       Type             X           Y           Z
 ---------------------------------------------------------------------
      1          6           0       -0.686832   -0.035634    0.011246
      2          8           0        0.758773    0.083953   -0.016742
      3          1           0       -0.997872   -0.376448    0.981950
      4          1           0       -1.043883   -0.682542   -0.855158
      5          1           0       -1.029369    1.124467   -0.140768
      6          1           0        1.121935   -0.523297    0.080436
 ---------------------------------------------------------------------

 SCF Done:  E(RB2PLYPD3) =  -115.435377882     A.U. after   11 cycles
 E2(B2PLYPD3) =    -0.1443563480D+00 E(B2PLYPD3) =    -0.11557973423024D+03

 The electronic state is 1-A.
 Alpha  occ. eigenvalues --  -19.69447 -10.68112  -1.22444  -0.80956  -0.61139
 Alpha  occ. eigenvalues --   -0.52410  -0.48451  -0.40477  -0.36463
 Alpha virt. eigenvalues --    0.05325   0.09133   0.11466   0.12002   0.14477
 Alpha virt. eigenvalues --    0.16638   0.17884   0.28838   0.31392   0.33388
 Alpha virt. eigenvalues --    0.35284   0.38523   0.40599   0.41029   0.42101

 Mulliken charges:
               1
     1  C    0.054031
     2  O   -0.278414
     3  H    0.068218
     4  H    0.061476
     5  H    0.070524
     6  H    0.024165
 Sum of Mulliken charges =   0.00000

 Dipole moment (field-independent basis, Debye):
    X=             -0.9942    Y=             -1.3063    Z=              0.2613  Tot=              1.6623
 Quadrupole moment (field-independent basis, Debye-Ang):
   XX=            -13.0851   YY=            -12.5155   ZZ=            -13.4037
   XY=             -1.7853   XZ=              0.2560   YZ=             -0.1067

 Normal termination of Gaussian 09 at Wed Aug 26 18:32:18 2020.
