 Gaussian 09, Revision D.01,
 Gaussian 09:  ES64L-G09RevD.01 24-Apr-2013

 --------------------
 #p B2PLYPD3/Def2QZVP
 --------------------

 --------
 methanol
 --------
 Symbolic Z-matrix:
 Charge =  0 Multiplicity = 1

                         Standard orientation:
 ---------------------------------------------------------------------
 Center     Atomic      Atomic             Coordinates (Angstroms)
 Number     Number       Type             X           Y           Z
 ---------------------------------------------------------------------
      1          6           0       -0.669960   -0.022940    0.001404
      2          8           0        0.743457    0.095202   -0.000382
      3          1           0       -0.992783   -0.590935    0.909156
      4          1           0       -1.107576   -0.519483   -0.905083
      5          1           0       -1.015894    1.088145    0.036620
      6          1           0        1.188357   -0.601702   -0.046057
 ---------------------------------------------------------------------

 SCF Done:  E(RB2PLYPD3) =  -115.525394812     A.U. after   10 cycles
 E2(B2PLYPD3) =    -0.1454653599D+00 E(B2PLYPD3) =    -0.11567086017147D+03

 The electronic state is 1-A.
 Alpha  occ. eigenvalues --  -19.70996 -10.67389  -1.19041  -0.79734  -0.60579
 Alpha  occ. eigenvalues --   -0.51500  -0.49299  -0.40275  -0.35595
 Alpha virt. eigenvalues --    0.05370   0.08647   0.11854   0.12288   0.14921
 Alpha virt. eigenvalues --    0.16693   0.17972   0.29083   0.32752   0.33741
 Alpha virt. eigenvalues --    0.36985   0.38937   0.39573   0.39863   0.42109

 Mulliken charges:
               1
     1  C    0.057369
     2  O   -0.383894
     3  H    0.053627
     4  H    0.052903
     5  H    0.073575
     6  H    0.146420
 Sum of Mulliken charges =   0.00000

 Dipole moment (field-independent basis, Debye):
    X=             -0.7378    Y=             -1.3611    Z=             -0.0856  Tot=              1.5506
 Quadrupole moment (field-independent basis, Debye-Ang):
   XX=            -12.8003   YY=            -12.4726   ZZ=            -13.7519
   XY=             -1.9984   XZ=             -0.0233   YZ=              0.0453

 Normal termination of Gaussian 09 at Wed Aug 26 12:17:12 2020.
