 Gaussian 09, Revision D.01,
 Gaussian 09:  ES64L-G09RevD.01 24-Apr-2013

 --------------------
 #p B2PLYPD3/Def2QZVP
 --------------------

 --------
 methanol
 --------
 Symbolic Z-matrix:
 Charge =  0 Multiplicity = 1

                         Standard orientation:
 ---------------------------------------------------------------------
 Center     Atomic      Atomic             Coordinates (Angstroms)
 Number     Number       Type             X           Y           Z
 ---------------------------------------------------------------------
      1          6           0       -0.651797    0.006360   -0.010758
      2          8           0        0.760372   -0.162820    0.007699
      3          1           0       -1.100970    0.474272   -0.777277
      4          1           0       -0.949781    0.630576    0.824111
      5          1           0       -1.195812   -0.865546    0.050570
      6          1           0        1.074373    1.025102   -0.094443
 ---------------------------------------------------------------------

 SCF Done:  E(RB2PLYPD3) =  -115.490917981     A.U. after   11 cycles
 E2(B2PLYPD3) =    -0.1527062967D+00 E(B2PLYPD3) =    -0.11564362427804D+03

 The electronic state is 1-A.
 Alpha  occ. eigenvalues --  -19.75083 -10.63663  -1.12949  -0.79277  -0.55623
 Alpha  occ. eigenvalues --   -0.51735  -0.49516  -0.40961  -0.34983
 Alpha virt. eigenvalues --    0.01543   0.07455   0.12643   0.12696   0.14621
 Alpha virt. eigenvalues --    0.18132   0.18666   0.25189   0.29737   0.32577
 Alpha virt. eigenvalues --    0.34343   0.38772   0.39533   0.41436   0.43737

 Mulliken charges:
               1
     1  C    0.095183
     2  O   -0.478328
     3  H    0.036476
     4  H    0.030724
     5  H    0.058927
     6  H    0.257019
 Sum of Mulliken charges =   0.00000

 Dipole moment (field-independent basis, Debye):
    X=             -1.0961    Y=              1.7292    Z=             -0.2191  Tot=              2.0590
 Quadrupole moment (field-independent basis, Debye-Ang):
   XX=            -13.3002   YY=            -11.6078   ZZ=            -14.1554
   XY=              2.3552   XZ=              0.0263   YZ=             -0.1733

 Normal termination of Gaussian 09 at Wed Aug 26 18:34:46 2020.
