 Gaussian 09, Revision D.01,
 Gaussian 09:  ES64L-G09RevD.01 24-Apr-2013

 --------------------
 #p B2PLYPD3/Def2QZVP
 --------------------

 --------
 methanol
 --------
 Symbolic Z-matrix:
 Charge =  0 Multiplicity = 1

                         Standard orientation:
 ---------------------------------------------------------------------
 Center     Atomic      Atomic             Coordinates (Angstroms)
 Number     Number       Type             X           Y           Z
 ---------------------------------------------------------------------
      1          6           0        0.671426   -0.006016    0.016778
      2          8           0       -0.762364   -0.043895   -0.064772
      3          1           0        0.932859   -0.333235    1.047435
      4          1           0        1.001809    1.170620   -0.271824
      5          1           0        1.111035   -0.740222   -0.726950
      6          1           0       -0.975345    0.290091    0.368851
 ---------------------------------------------------------------------

 SCF Done:  E(RB2PLYPD3) =  -115.173303014     A.U. after   11 cycles
 E2(B2PLYPD3) =    -0.1432265889D+00 E(B2PLYPD3) =    -0.11531652960244D+03

 The electronic state is 1-A.
 Alpha  occ. eigenvalues --  -19.68589 -10.68970  -1.29915  -0.81987  -0.61973
 Alpha  occ. eigenvalues --   -0.51645  -0.50966  -0.42053  -0.36314
 Alpha virt. eigenvalues --    0.05190   0.09580   0.11079   0.12020   0.13982
 Alpha virt. eigenvalues --    0.17071   0.17489   0.27728   0.31378   0.32294
 Alpha virt. eigenvalues --    0.35304   0.37408   0.39765   0.40711   0.44483

 Mulliken charges:
               1
     1  C    0.057784
     2  O   -0.163420
     3  H    0.059170
     4  H    0.041106
     5  H    0.086469
     6  H   -0.081109
 Sum of Mulliken charges =   0.00000

 Dipole moment (field-independent basis, Debye):
    X=              1.1923    Y=              0.5476    Z=              0.9641  Tot=              1.6282
 Quadrupole moment (field-independent basis, Debye-Ang):
   XX=            -13.5989   YY=            -12.9257   ZZ=            -12.7703
   XY=             -1.3100   XZ=             -1.4123   YZ=              0.3875

 Normal termination of Gaussian 09 at Wed Aug 26 23:51:07 2020.
