 Gaussian 09, Revision D.01,
 Gaussian 09:  ES64L-G09RevD.01 24-Apr-2013

 --------------------
 #p B2PLYPD3/Def2QZVP
 --------------------

 --------
 methanol
 --------
 Symbolic Z-matrix:
 Charge =  0 Multiplicity = 1

                         Standard orientation:
 ---------------------------------------------------------------------
 Center     Atomic      Atomic             Coordinates (Angstroms)
 Number     Number       Type             X           Y           Z
 ---------------------------------------------------------------------
      1          6           0       -0.669949    0.015923   -0.005252
      2          8           0        0.743368   -0.142209    0.000658
      3          1           0       -1.010500    0.533640   -0.851757
      4          1           0       -1.033200    0.527437    0.860610
      5          1           0       -1.038077   -0.919351    0.007580
      6          1           0        1.154530    0.900410    0.009810
 ---------------------------------------------------------------------

 SCF Done:  E(RB2PLYPD3) =  -115.526199233     A.U. after   11 cycles
 E2(B2PLYPD3) =    -0.1499139251D+00 E(B2PLYPD3) =    -0.11567611315792D+03

 The electronic state is 1-A.
 Alpha  occ. eigenvalues --  -19.73645 -10.63705  -1.13552  -0.78890  -0.57029
 Alpha  occ. eigenvalues --   -0.51991  -0.49672  -0.41202  -0.35056
 Alpha virt. eigenvalues --    0.03533   0.07907   0.12596   0.12677   0.14944
 Alpha virt. eigenvalues --    0.17251   0.18193   0.28568   0.29976   0.33438
 Alpha virt. eigenvalues --    0.34068   0.38927   0.40530   0.41788   0.43965

 Mulliken charges:
               1
     1  C    0.081754
     2  O   -0.489942
     3  H    0.045470
     4  H    0.042269
     5  H    0.070848
     6  H    0.249601
 Sum of Mulliken charges =   0.00000

 Dipole moment (field-independent basis, Debye):
    X=             -0.9517    Y=              1.6068    Z=              0.0003  Tot=              1.8676
 Quadrupole moment (field-independent basis, Debye-Ang):
   XX=            -13.0949   YY=            -11.8362   ZZ=            -13.8535
   XY=              2.3691   XZ=              0.0166   YZ=             -0.0190

 Normal termination of Gaussian 09 at Wed Aug 26 09:48:19 2020.
