 Gaussian 09, Revision D.01,
 Gaussian 09:  ES64L-G09RevD.01 24-Apr-2013

 --------------------
 #p B2PLYPD3/Def2QZVP
 --------------------

 --------
 methanol
 --------
 Symbolic Z-matrix:
 Charge =  0 Multiplicity = 1

                         Standard orientation:
 ---------------------------------------------------------------------
 Center     Atomic      Atomic             Coordinates (Angstroms)
 Number     Number       Type             X           Y           Z
 ---------------------------------------------------------------------
      1          6           0       -0.677495   -0.023456   -0.004922
      2          8           0        0.753096    0.130211    0.004054
      3          1           0       -1.016317   -0.536911    0.895511
      4          1           0       -1.064908   -0.518376   -0.856627
      5          1           0       -1.055847    0.966910   -0.001189
      6          1           0        1.177271   -0.812577   -0.040597
 ---------------------------------------------------------------------

 SCF Done:  E(RB2PLYPD3) =  -115.545304707     A.U. after   10 cycles
 E2(B2PLYPD3) =    -0.1487133118D+00 E(B2PLYPD3) =    -0.11569401801909D+03

 The electronic state is 1-A.
 Alpha  occ. eigenvalues --  -19.73075 -10.64947  -1.14089  -0.78738  -0.57487
 Alpha  occ. eigenvalues --   -0.51756  -0.49299  -0.41125  -0.35346
 Alpha virt. eigenvalues --    0.04502   0.07939   0.12444   0.12523   0.14861
 Alpha virt. eigenvalues --    0.17116   0.18275   0.29042   0.32424   0.33150
 Alpha virt. eigenvalues --    0.33795   0.38886   0.39743   0.41337   0.44015

 Mulliken charges:
               1
     1  C    0.073047
     2  O   -0.485243
     3  H    0.049568
     4  H    0.051282
     5  H    0.070824
     6  H    0.240522
 Sum of Mulliken charges =   0.00000

 Dipole moment (field-independent basis, Debye):
    X=             -0.9286    Y=             -1.5552    Z=             -0.1030  Tot=              1.8143
 Quadrupole moment (field-independent basis, Debye-Ang):
   XX=            -12.9209   YY=            -12.1176   ZZ=            -13.8084
   XY=             -2.3201   XZ=             -0.0160   YZ=              0.0733

 Normal termination of Gaussian 09 at Wed Aug 26 23:58:38 2020.
