 Gaussian 09, Revision D.01,
 Gaussian 09:  ES64L-G09RevD.01 24-Apr-2013

 --------------------
 #p B2PLYPD3/Def2QZVP
 --------------------

 --------
 methanol
 --------
 Symbolic Z-matrix:
 Charge =  0 Multiplicity = 1

                         Standard orientation:
 ---------------------------------------------------------------------
 Center     Atomic      Atomic             Coordinates (Angstroms)
 Number     Number       Type             X           Y           Z
 ---------------------------------------------------------------------
      1          6           0        0.677280   -0.026045   -0.011970
      2          8           0       -0.748844    0.096540    0.005541
      3          1           0        0.956182   -0.582533   -0.927708
      4          1           0        1.041890   -0.485689    0.997812
      5          1           0        1.067842    1.025151   -0.054039
      6          1           0       -1.138838   -0.572976    0.011424
 ---------------------------------------------------------------------

 SCF Done:  E(RB2PLYPD3) =  -115.497904079     A.U. after   10 cycles
 E2(B2PLYPD3) =    -0.1447367009D+00 E(B2PLYPD3) =    -0.11564264077978D+03

 The electronic state is 1-A.
 Alpha  occ. eigenvalues --  -19.70200 -10.67505  -1.20519  -0.80388  -0.60196
 Alpha  occ. eigenvalues --   -0.52074  -0.50007  -0.40421  -0.35813
 Alpha virt. eigenvalues --    0.05442   0.08947   0.11832   0.12269   0.14186
 Alpha virt. eigenvalues --    0.16914   0.17999   0.28857   0.32323   0.33017
 Alpha virt. eigenvalues --    0.36888   0.39083   0.39909   0.40275   0.43058

 Mulliken charges:
               1
     1  C    0.060840
     2  O   -0.338825
     3  H    0.059048
     4  H    0.050455
     5  H    0.077729
     6  H    0.090753
 Sum of Mulliken charges =   0.00000

 Dipole moment (field-independent basis, Debye):
    X=              0.8969    Y=             -1.2745    Z=             -0.0497  Tot=              1.5593
 Quadrupole moment (field-independent basis, Debye-Ang):
   XX=            -13.0206   YY=            -12.5992   ZZ=            -13.4414
   XY=              2.1217   XZ=             -0.0174   YZ=              0.0571

 Normal termination of Gaussian 09 at Wed Aug 26 13:06:11 2020.
