 Gaussian 09, Revision D.01,
 Gaussian 09:  ES64L-G09RevD.01 24-Apr-2013

 --------------------
 #p B2PLYPD3/Def2QZVP
 --------------------

 --------
 methanol
 --------
 Symbolic Z-matrix:
 Charge =  0 Multiplicity = 1

                         Standard orientation:
 ---------------------------------------------------------------------
 Center     Atomic      Atomic             Coordinates (Angstroms)
 Number     Number       Type             X           Y           Z
 ---------------------------------------------------------------------
      1          6           0       -0.652946    0.014111    0.005653
      2          8           0        0.736486   -0.161327   -0.015846
      3          1           0       -1.098585    0.608732   -0.792059
      4          1           0       -0.986302    0.505168    0.823262
      5          1           0       -1.117496   -0.878107    0.007827
      6          1           0        1.228169    0.970155    0.053816
 ---------------------------------------------------------------------

 SCF Done:  E(RB2PLYPD3) =  -115.494953093     A.U. after   11 cycles
 E2(B2PLYPD3) =    -0.1519162523D+00 E(B2PLYPD3) =    -0.11564686934513D+03

 The electronic state is 1-A.
 Alpha  occ. eigenvalues --  -19.74637 -10.63257  -1.13248  -0.78959  -0.56254
 Alpha  occ. eigenvalues --   -0.51175  -0.50373  -0.40467  -0.34702
 Alpha virt. eigenvalues --    0.01616   0.07520   0.12711   0.12994   0.15067
 Alpha virt. eigenvalues --    0.17710   0.18276   0.25278   0.29726   0.33319
 Alpha virt. eigenvalues --    0.34972   0.38954   0.40197   0.41290   0.43958

 Mulliken charges:
               1
     1  C    0.089532
     2  O   -0.485696
     3  H    0.033357
     4  H    0.039105
     5  H    0.065909
     6  H    0.257792
 Sum of Mulliken charges =   0.00000

 Dipole moment (field-independent basis, Debye):
    X=             -0.8147    Y=              1.6812    Z=              0.1978  Tot=              1.8786
 Quadrupole moment (field-independent basis, Debye-Ang):
   XX=            -12.7101   YY=            -11.7732   ZZ=            -14.1457
   XY=              2.5627   XZ=              0.0994   YZ=              0.1146

 Normal termination of Gaussian 09 at Wed Aug 26 15:17:17 2020.
