 Gaussian 09, Revision D.01,
 Gaussian 09:  ES64L-G09RevD.01 24-Apr-2013

 --------------------
 #p B2PLYPD3/Def2QZVP
 --------------------

 --------
 methanol
 --------
 Symbolic Z-matrix:
 Charge =  0 Multiplicity = 1

                         Standard orientation:
 ---------------------------------------------------------------------
 Center     Atomic      Atomic             Coordinates (Angstroms)
 Number     Number       Type             X           Y           Z
 ---------------------------------------------------------------------
      1          6           0        0.680732    0.018854    0.002109
      2          8           0       -0.746024   -0.149492   -0.000121
      3          1           0        1.008497    0.489374    0.875162
      4          1           0        0.975635    0.598519   -0.828552
      5          1           0        1.098478   -0.893558   -0.066798
      6          1           0       -1.198811    0.888481    0.008500
 ---------------------------------------------------------------------

 SCF Done:  E(RB2PLYPD3) =  -115.523211794     A.U. after   11 cycles
 E2(B2PLYPD3) =    -0.1501035989D+00 E(B2PLYPD3) =    -0.11567331539342D+03

 The electronic state is 1-A.
 Alpha  occ. eigenvalues --  -19.73492 -10.63640  -1.12735  -0.79107  -0.56337
 Alpha  occ. eigenvalues --   -0.52143  -0.49892  -0.40825  -0.34990
 Alpha virt. eigenvalues --    0.03420   0.07824   0.12599   0.12746   0.14725
 Alpha virt. eigenvalues --    0.17468   0.18030   0.28455   0.29798   0.33248
 Alpha virt. eigenvalues --    0.33415   0.39260   0.40986   0.41916   0.43714

 Mulliken charges:
               1
     1  C    0.089263
     2  O   -0.503158
     3  H    0.047721
     4  H    0.043277
     5  H    0.071176
     6  H    0.251721
 Sum of Mulliken charges =   0.00000

 Dipole moment (field-independent basis, Debye):
    X=              0.9634    Y=              1.6242    Z=              0.0119  Tot=              1.8885
 Quadrupole moment (field-independent basis, Debye-Ang):
   XX=            -12.8784   YY=            -11.9104   ZZ=            -13.8321
   XY=             -2.5160   XZ=             -0.0041   YZ=              0.0298

 Normal termination of Gaussian 09 at Thu Aug 27 00:04:21 2020.
