 Gaussian 09, Revision D.01,
 Gaussian 09:  ES64L-G09RevD.01 24-Apr-2013

 --------------------
 #p B2PLYPD3/Def2QZVP
 --------------------

 --------
 methanol
 --------
 Symbolic Z-matrix:
 Charge =  0 Multiplicity = 1

                         Standard orientation:
 ---------------------------------------------------------------------
 Center     Atomic      Atomic             Coordinates (Angstroms)
 Number     Number       Type             X           Y           Z
 ---------------------------------------------------------------------
      1          6           0       -0.684463    0.024344   -0.011423
      2          8           0        0.763353   -0.161644   -0.005104
      3          1           0       -1.067002    0.571500   -0.731550
      4          1           0       -1.045298    0.474885    0.797450
      5          1           0       -1.030473   -0.956298    0.005712
      6          1           0        1.142721    1.057000    0.037762
 ---------------------------------------------------------------------

 SCF Done:  E(RB2PLYPD3) =  -115.474277084     A.U. after   11 cycles
 E2(B2PLYPD3) =    -0.1539380861D+00 E(B2PLYPD3) =    -0.11562821517022D+03

 The electronic state is 1-A.
 Alpha  occ. eigenvalues --  -19.74964 -10.62746  -1.11181  -0.80155  -0.56140
 Alpha  occ. eigenvalues --   -0.52036  -0.47617  -0.41154  -0.35435
 Alpha virt. eigenvalues --    0.01160   0.07517   0.12139   0.13085   0.14951
 Alpha virt. eigenvalues --    0.17148   0.18243   0.24432   0.29390   0.32887
 Alpha virt. eigenvalues --    0.33976   0.38611   0.39021   0.42692   0.44993

 Mulliken charges:
               1
     1  C    0.102407
     2  O   -0.494278
     3  H    0.044573
     4  H    0.042520
     5  H    0.063480
     6  H    0.241299
 Sum of Mulliken charges =   0.00000

 Dipole moment (field-independent basis, Debye):
    X=             -1.2101    Y=              1.7661    Z=              0.0809  Tot=              2.1424
 Quadrupole moment (field-independent basis, Debye-Ang):
   XX=            -13.2456   YY=            -11.3264   ZZ=            -14.1075
   XY=              2.1303   XZ=              0.0577   YZ=             -0.0062

 Normal termination of Gaussian 09 at Wed Aug 26 22:40:54 2020.
