 Gaussian 09, Revision D.01,
 Gaussian 09:  ES64L-G09RevD.01 24-Apr-2013

 --------------------
 #p B2PLYPD3/Def2QZVP
 --------------------

 --------
 methanol
 --------
 Symbolic Z-matrix:
 Charge =  0 Multiplicity = 1

                         Standard orientation:
 ---------------------------------------------------------------------
 Center     Atomic      Atomic             Coordinates (Angstroms)
 Number     Number       Type             X           Y           Z
 ---------------------------------------------------------------------
      1          6           0       -0.665983    0.019596   -0.005320
      2          8           0        0.742989   -0.140082   -0.004476
      3          1           0       -1.061916    0.538360   -0.826443
      4          1           0       -1.005229    0.543951    0.847766
      5          1           0       -1.052582   -0.954129    0.033465
      6          1           0        1.171715    0.874899    0.012939
 ---------------------------------------------------------------------

 SCF Done:  E(RB2PLYPD3) =  -115.532656401     A.U. after   11 cycles
 E2(B2PLYPD3) =    -0.1495695008D+00 E(B2PLYPD3) =    -0.11568222590134D+03

 The electronic state is 1-A.
 Alpha  occ. eigenvalues --  -19.73614 -10.64053  -1.13898  -0.78705  -0.57441
 Alpha  occ. eigenvalues --   -0.51795  -0.49503  -0.41128  -0.35084
 Alpha virt. eigenvalues --    0.03747   0.07878   0.12482   0.12751   0.15109
 Alpha virt. eigenvalues --    0.17230   0.18165   0.28899   0.30307   0.33468
 Alpha virt. eigenvalues --    0.34297   0.39087   0.39610   0.41818   0.44289

 Mulliken charges:
               1
     1  C    0.080556
     2  O   -0.485694
     3  H    0.045707
     4  H    0.041806
     5  H    0.068690
     6  H    0.248936
 Sum of Mulliken charges =   0.00000

 Dipole moment (field-independent basis, Debye):
    X=             -0.8939    Y=              1.6288    Z=              0.0328  Tot=              1.8582
 Quadrupole moment (field-independent basis, Debye-Ang):
   XX=            -12.9716   YY=            -11.8848   ZZ=            -13.9428
   XY=              2.3248   XZ=              0.0752   YZ=             -0.0157

 Normal termination of Gaussian 09 at Wed Aug 26 10:34:33 2020.
