 Gaussian 09, Revision D.01,
 Gaussian 09:  ES64L-G09RevD.01 24-Apr-2013

 --------------------
 #p B2PLYPD3/Def2QZVP
 --------------------

 --------
 methanol
 --------
 Symbolic Z-matrix:
 Charge =  0 Multiplicity = 1

                         Standard orientation:
 ---------------------------------------------------------------------
 Center     Atomic      Atomic             Coordinates (Angstroms)
 Number     Number       Type             X           Y           Z
 ---------------------------------------------------------------------
      1          6           0        0.673062    0.011470    0.001812
      2          8           0       -0.743843   -0.137220   -0.001495
      3          1           0        1.054949    0.481413    0.879685
      4          1           0        1.003991    0.607132   -0.839911
      5          1           0        1.037274   -0.923352   -0.066080
      6          1           0       -1.183840    0.863742    0.027397
 ---------------------------------------------------------------------

 SCF Done:  E(RB2PLYPD3) =  -115.532460066     A.U. after   11 cycles
 E2(B2PLYPD3) =    -0.1494362098D+00 E(B2PLYPD3) =    -0.11568189627572D+03

 The electronic state is 1-A.
 Alpha  occ. eigenvalues --  -19.73406 -10.64146  -1.13678  -0.78823  -0.57231
 Alpha  occ. eigenvalues --   -0.51480  -0.50023  -0.41156  -0.34947
 Alpha virt. eigenvalues --    0.03854   0.07904   0.12579   0.12666   0.14965
 Alpha virt. eigenvalues --    0.17177   0.18129   0.29005   0.30574   0.33318
 Alpha virt. eigenvalues --    0.33928   0.38781   0.40537   0.41321   0.43825

 Mulliken charges:
               1
     1  C    0.079282
     2  O   -0.490731
     3  H    0.046022
     4  H    0.041536
     5  H    0.074635
     6  H    0.249256
 Sum of Mulliken charges =   0.00000

 Dipole moment (field-independent basis, Debye):
    X=              0.8948    Y=              1.5745    Z=              0.0520  Tot=              1.8117
 Quadrupole moment (field-independent basis, Debye-Ang):
   XX=            -12.9437   YY=            -11.9229   ZZ=            -13.8960
   XY=             -2.4097   XZ=             -0.0174   YZ=              0.0589

 Normal termination of Gaussian 09 at Thu Aug 27 00:12:57 2020.
