 Gaussian 09, Revision D.01,
 Gaussian 09:  ES64L-G09RevD.01 24-Apr-2013

 --------------------
 #p B2PLYPD3/Def2QZVP
 --------------------

 --------
 methanol
 --------
 Symbolic Z-matrix:
 Charge =  0 Multiplicity = 1

                         Standard orientation:
 ---------------------------------------------------------------------
 Center     Atomic      Atomic             Coordinates (Angstroms)
 Number     Number       Type             X           Y           Z
 ---------------------------------------------------------------------
      1          6           0       -0.679358   -0.019518    0.007718
      2          8           0        0.754753    0.106945   -0.009383
      3          1           0       -1.030507   -0.477790    0.907905
      4          1           0       -1.010610   -0.622001   -0.880860
      5          1           0       -1.045189    1.038229   -0.060649
      6          1           0        1.124428   -0.676892    0.062359
 ---------------------------------------------------------------------

 SCF Done:  E(RB2PLYPD3) =  -115.542508874     A.U. after   10 cycles
 E2(B2PLYPD3) =    -0.1460715074D+00 E(B2PLYPD3) =    -0.11568858038188D+03

 The electronic state is 1-A.
 Alpha  occ. eigenvalues --  -19.71445 -10.66397  -1.17585  -0.79314  -0.59637
 Alpha  occ. eigenvalues --   -0.51744  -0.49311  -0.41385  -0.35639
 Alpha virt. eigenvalues --    0.05289   0.08607   0.12099   0.12242   0.14803
 Alpha virt. eigenvalues --    0.16972   0.17864   0.29105   0.32420   0.33398
 Alpha virt. eigenvalues --    0.37707   0.38216   0.39682   0.40862   0.43075

 Mulliken charges:
               1
     1  C    0.069183
     2  O   -0.425367
     3  H    0.056013
     4  H    0.049571
     5  H    0.074007
     6  H    0.176594
 Sum of Mulliken charges =   0.00000

 Dipole moment (field-independent basis, Debye):
    X=             -0.9598    Y=             -1.4343    Z=              0.1788  Tot=              1.7351
 Quadrupole moment (field-independent basis, Debye-Ang):
   XX=            -13.1226   YY=            -12.2440   ZZ=            -13.6806
   XY=             -2.0861   XZ=              0.0983   YZ=             -0.1214

 Normal termination of Gaussian 09 at Thu Aug 27 00:09:12 2020.
