 Gaussian 09, Revision D.01,
 Gaussian 09:  ES64L-G09RevD.01 24-Apr-2013

 --------------------
 #p B2PLYPD3/Def2QZVP
 --------------------

 --------
 methanol
 --------
 Symbolic Z-matrix:
 Charge =  0 Multiplicity = 1

                         Standard orientation:
 ---------------------------------------------------------------------
 Center     Atomic      Atomic             Coordinates (Angstroms)
 Number     Number       Type             X           Y           Z
 ---------------------------------------------------------------------
      1          6           0        0.655567   -0.016059    0.009051
      2          8           0       -0.738914    0.105205   -0.016652
      3          1           0        1.063868   -0.703155   -0.806081
      4          1           0        0.975824   -0.382081    0.956118
      5          1           0        1.018709    1.035291   -0.136399
      6          1           0       -1.080496   -0.695340    0.065271
 ---------------------------------------------------------------------

 SCF Done:  E(RB2PLYPD3) =  -115.542599729     A.U. after   10 cycles
 E2(B2PLYPD3) =    -0.1457847987D+00 E(B2PLYPD3) =    -0.11568838452812D+03

 The electronic state is 1-A.
 Alpha  occ. eigenvalues --  -19.71748 -10.66125  -1.18961  -0.79066  -0.60370
 Alpha  occ. eigenvalues --   -0.52063  -0.49845  -0.41310  -0.35469
 Alpha virt. eigenvalues --    0.05219   0.08739   0.12043   0.12367   0.15023
 Alpha virt. eigenvalues --    0.16994   0.17929   0.29064   0.33029   0.34085
 Alpha virt. eigenvalues --    0.37547   0.38057   0.39880   0.40905   0.43715

 Mulliken charges:
               1
     1  C    0.063650
     2  O   -0.406021
     3  H    0.039657
     4  H    0.052555
     5  H    0.069280
     6  H    0.180880
 Sum of Mulliken charges =   0.00000

 Dipole moment (field-independent basis, Debye):
    X=              0.8367    Y=             -1.4264    Z=              0.2188  Tot=              1.6681
 Quadrupole moment (field-independent basis, Debye-Ang):
   XX=            -13.3261   YY=            -12.1977   ZZ=            -13.7202
   XY=              2.0161   XZ=             -0.1925   YZ=             -0.1404

 Normal termination of Gaussian 09 at Wed Aug 26 11:00:09 2020.
