 Gaussian 09, Revision D.01,
 Gaussian 09:  ES64L-G09RevD.01 24-Apr-2013

 --------------------
 #p B2PLYPD3/Def2QZVP
 --------------------

 --------
 methanol
 --------
 Symbolic Z-matrix:
 Charge =  0 Multiplicity = 1

                         Standard orientation:
 ---------------------------------------------------------------------
 Center     Atomic      Atomic             Coordinates (Angstroms)
 Number     Number       Type             X           Y           Z
 ---------------------------------------------------------------------
      1          6           0       -0.656629   -0.013987    0.009630
      2          8           0        0.748351    0.106866   -0.022833
      3          1           0       -0.987179   -0.377797    0.977430
      4          1           0       -1.071944   -0.704918   -0.829170
      5          1           0       -1.088071    0.990026   -0.126324
      6          1           0        1.100160   -0.678317    0.102952
 ---------------------------------------------------------------------

 SCF Done:  E(RB2PLYPD3) =  -115.542090374     A.U. after   10 cycles
 E2(B2PLYPD3) =    -0.1458991310D+00 E(B2PLYPD3) =    -0.11568798950467D+03

 The electronic state is 1-A.
 Alpha  occ. eigenvalues --  -19.71873 -10.66537  -1.18760  -0.79125  -0.59997
 Alpha  occ. eigenvalues --   -0.51589  -0.50357  -0.41147  -0.35535
 Alpha virt. eigenvalues --    0.05267   0.08566   0.12094   0.12423   0.14741
 Alpha virt. eigenvalues --    0.17302   0.18062   0.28951   0.33021   0.33637
 Alpha virt. eigenvalues --    0.36717   0.38895   0.39433   0.40578   0.43724

 Mulliken charges:
               1
     1  C    0.063699
     2  O   -0.407689
     3  H    0.051126
     4  H    0.039773
     5  H    0.072396
     6  H    0.180695
 Sum of Mulliken charges =   0.00000

 Dipole moment (field-independent basis, Debye):
    X=             -0.8641    Y=             -1.3643    Z=              0.3015  Tot=              1.6428
 Quadrupole moment (field-independent basis, Debye-Ang):
   XX=            -13.1421   YY=            -12.3947   ZZ=            -13.7022
   XY=             -2.1543   XZ=              0.3062   YZ=             -0.1872

 Normal termination of Gaussian 09 at Wed Aug 26 10:09:20 2020.
