 Gaussian 09, Revision D.01,
 Gaussian 09:  ES64L-G09RevD.01 24-Apr-2013

 --------------------
 #p B2PLYPD3/Def2QZVP
 --------------------

 --------
 methanol
 --------
 Symbolic Z-matrix:
 Charge =  0 Multiplicity = 1

                         Standard orientation:
 ---------------------------------------------------------------------
 Center     Atomic      Atomic             Coordinates (Angstroms)
 Number     Number       Type             X           Y           Z
 ---------------------------------------------------------------------
      1          6           0       -0.647716   -0.037354   -0.002996
      2          8           0        0.744892    0.098406   -0.014350
      3          1           0       -1.008852   -0.461821    0.980762
      4          1           0       -1.061389   -0.633948   -0.872552
      5          1           0       -1.156497    1.075561   -0.047115
      6          1           0        1.153897   -0.542920    0.071678
 ---------------------------------------------------------------------

 SCF Done:  E(RB2PLYPD3) =  -115.485135198     A.U. after   10 cycles
 E2(B2PLYPD3) =    -0.1447385709D+00 E(B2PLYPD3) =    -0.11562987376906D+03

 The electronic state is 1-A.
 Alpha  occ. eigenvalues --  -19.70832 -10.68242  -1.22082  -0.80350  -0.61694
 Alpha  occ. eigenvalues --   -0.52032  -0.49654  -0.39514  -0.36087
 Alpha virt. eigenvalues --    0.05331   0.08789   0.11840   0.12111   0.14563
 Alpha virt. eigenvalues --    0.17184   0.18146   0.28744   0.33139   0.33830
 Alpha virt. eigenvalues --    0.34960   0.38742   0.39847   0.39967   0.42520

 Mulliken charges:
               1
     1  C    0.049924
     2  O   -0.304484
     3  H    0.051670
     4  H    0.056573
     5  H    0.061184
     6  H    0.085133
 Sum of Mulliken charges =   0.00000

 Dipole moment (field-independent basis, Debye):
    X=             -0.7084    Y=             -1.3307    Z=              0.1857  Tot=              1.5189
 Quadrupole moment (field-independent basis, Debye-Ang):
   XX=            -12.7765   YY=            -12.8123   ZZ=            -13.6582
   XY=             -1.9802   XZ=              0.2785   YZ=             -0.0338

 Normal termination of Gaussian 09 at Wed Aug 26 14:02:03 2020.
