 Gaussian 09, Revision D.01,
 Gaussian 09:  ES64L-G09RevD.01 24-Apr-2013

 --------------------
 #p B2PLYPD3/Def2QZVP
 --------------------

 --------
 methanol
 --------
 Symbolic Z-matrix:
 Charge =  0 Multiplicity = 1

                         Standard orientation:
 ---------------------------------------------------------------------
 Center     Atomic      Atomic             Coordinates (Angstroms)
 Number     Number       Type             X           Y           Z
 ---------------------------------------------------------------------
      1          6           0       -0.681169   -0.026444   -0.013035
      2          8           0        0.780636   -0.082991   -0.032113
      3          1           0       -1.160908    0.898176   -0.689587
      4          1           0       -1.076303    0.209006    1.067594
      5          1           0       -1.030770   -0.931357   -0.253841
      6          1           0        1.109906    0.646762    0.210946
 ---------------------------------------------------------------------

 SCF Done:  E(RB2PLYPD3) =  -115.512553010     A.U. after   11 cycles
 E2(B2PLYPD3) =    -0.1466037826D+00 E(B2PLYPD3) =    -0.11565915679291D+03

 The electronic state is 1-A.
 Alpha  occ. eigenvalues --  -19.71812 -10.67872  -1.18318  -0.79878  -0.59340
 Alpha  occ. eigenvalues --   -0.51639  -0.48863  -0.42190  -0.35254
 Alpha virt. eigenvalues --    0.05158   0.08229   0.11430   0.12501   0.14697
 Alpha virt. eigenvalues --    0.17033   0.18072   0.28762   0.31322   0.32274
 Alpha virt. eigenvalues --    0.35006   0.37339   0.39030   0.40611   0.44507

 Mulliken charges:
               1
     1  C    0.064992
     2  O   -0.395861
     3  H    0.036817
     4  H    0.040662
     5  H    0.095198
     6  H    0.158190
 Sum of Mulliken charges =   0.00000

 Dipole moment (field-independent basis, Debye):
    X=             -1.0250    Y=              1.1638    Z=              0.4709  Tot=              1.6207
 Quadrupole moment (field-independent basis, Debye-Ang):
   XX=            -13.1284   YY=            -12.3235   ZZ=            -13.8972
   XY=              2.0727   XZ=              0.6389   YZ=              0.4097

 Normal termination of Gaussian 09 at Wed Aug 26 18:44:30 2020.
