 Gaussian 09, Revision D.01,
 Gaussian 09:  ES64L-G09RevD.01 24-Apr-2013

 --------------------
 #p B2PLYPD3/Def2QZVP
 --------------------

 --------
 methanol
 --------
 Symbolic Z-matrix:
 Charge =  0 Multiplicity = 1

                         Standard orientation:
 ---------------------------------------------------------------------
 Center     Atomic      Atomic             Coordinates (Angstroms)
 Number     Number       Type             X           Y           Z
 ---------------------------------------------------------------------
      1          6           0        0.677239    0.004201    0.005657
      2          8           0       -0.746142   -0.150609    0.005326
      3          1           0        1.069672    0.512286    0.838024
      4          1           0        1.035845    0.552988   -0.823982
      5          1           0        0.975145   -0.884820   -0.065359
      6          1           0       -1.174960    0.999213   -0.025232
 ---------------------------------------------------------------------

 SCF Done:  E(RB2PLYPD3) =  -115.487704063     A.U. after   11 cycles
 E2(B2PLYPD3) =    -0.1522550858D+00 E(B2PLYPD3) =    -0.11563995914849D+03

 The electronic state is 1-A.
 Alpha  occ. eigenvalues --  -19.74368 -10.62883  -1.12308  -0.79441  -0.56942
 Alpha  occ. eigenvalues --   -0.51360  -0.49110  -0.41249  -0.34912
 Alpha virt. eigenvalues --    0.01981   0.07683   0.12681   0.12766   0.14983
 Alpha virt. eigenvalues --    0.17049   0.18236   0.25838   0.29542   0.33523
 Alpha virt. eigenvalues --    0.33925   0.38150   0.40581   0.41558   0.44034

 Mulliken charges:
               1
     1  C    0.079272
     2  O   -0.494928
     3  H    0.046384
     4  H    0.038674
     5  H    0.081563
     6  H    0.249035
 Sum of Mulliken charges =   0.00000

 Dipole moment (field-independent basis, Debye):
    X=              1.0224    Y=              1.6432    Z=             -0.0603  Tot=              1.9362
 Quadrupole moment (field-independent basis, Debye-Ang):
   XX=            -13.1134   YY=            -11.5357   ZZ=            -13.9845
   XY=             -2.3509   XZ=              0.0652   YZ=              0.0200

 Normal termination of Gaussian 09 at Wed Aug 26 11:29:35 2020.
