 Gaussian 09, Revision D.01,
 Gaussian 09:  ES64L-G09RevD.01 24-Apr-2013

 --------------------
 #p B2PLYPD3/Def2QZVP
 --------------------

 --------
 methanol
 --------
 Symbolic Z-matrix:
 Charge =  0 Multiplicity = 1

                         Standard orientation:
 ---------------------------------------------------------------------
 Center     Atomic      Atomic             Coordinates (Angstroms)
 Number     Number       Type             X           Y           Z
 ---------------------------------------------------------------------
      1          6           0       -0.665194   -0.019565    0.001299
      2          8           0        0.753085    0.119281   -0.003852
      3          1           0       -1.048743   -0.485971    0.909326
      4          1           0       -0.981013   -0.611442   -0.879353
      5          1           0       -1.119663    0.982733   -0.056872
      6          1           0        1.115905   -0.722174    0.049918
 ---------------------------------------------------------------------

 SCF Done:  E(RB2PLYPD3) =  -115.551168154     A.U. after   10 cycles
 E2(B2PLYPD3) =    -0.1466846972D+00 E(B2PLYPD3) =    -0.11569785285094D+03

 The electronic state is 1-A.
 Alpha  occ. eigenvalues --  -19.72219 -10.66041  -1.17008  -0.78843  -0.59110
 Alpha  occ. eigenvalues --   -0.51833  -0.49889  -0.41186  -0.35513
 Alpha virt. eigenvalues --    0.05131   0.08371   0.12266   0.12414   0.14700
 Alpha virt. eigenvalues --    0.17463   0.18006   0.29098   0.32862   0.33484
 Alpha virt. eigenvalues --    0.36009   0.38851   0.39812   0.40701   0.43897

 Mulliken charges:
               1
     1  C    0.069702
     2  O   -0.442991
     3  H    0.049049
     4  H    0.046915
     5  H    0.070472
     6  H    0.206853
 Sum of Mulliken charges =   0.00000

 Dipole moment (field-independent basis, Debye):
    X=             -0.9298    Y=             -1.4725    Z=              0.1085  Tot=              1.7448
 Quadrupole moment (field-independent basis, Debye-Ang):
   XX=            -13.0799   YY=            -12.2909   ZZ=            -13.7505
   XY=             -2.2402   XZ=              0.0542   YZ=             -0.0697

 Normal termination of Gaussian 09 at Thu Aug 27 00:06:29 2020.
