 Gaussian 09, Revision D.01,
 Gaussian 09:  ES64L-G09RevD.01 24-Apr-2013

 --------------------
 #p B2PLYPD3/Def2QZVP
 --------------------

 --------
 methanol
 --------
 Symbolic Z-matrix:
 Charge =  0 Multiplicity = 1

                         Standard orientation:
 ---------------------------------------------------------------------
 Center     Atomic      Atomic             Coordinates (Angstroms)
 Number     Number       Type             X           Y           Z
 ---------------------------------------------------------------------
      1          6           0       -0.691068    0.037436   -0.019614
      2          8           0        0.756834   -0.182001    0.002353
      3          1           0       -0.988655    0.480802   -0.797170
      4          1           0       -1.124912    0.439710    0.813109
      5          1           0       -0.988923   -0.850100    0.031169
      6          1           0        1.194230    1.160983    0.051748
 ---------------------------------------------------------------------

 SCF Done:  E(RB2PLYPD3) =  -115.419010924     A.U. after   12 cycles
 E2(B2PLYPD3) =    -0.1569474128D+00 E(B2PLYPD3) =    -0.11557595833635D+03

 The electronic state is 1-A.
 Alpha  occ. eigenvalues --  -19.75540 -10.61441  -1.10458  -0.81100  -0.56218
 Alpha  occ. eigenvalues --   -0.52818  -0.47406  -0.39729  -0.35739
 Alpha virt. eigenvalues --   -0.01284   0.07411   0.12534   0.12819   0.14611
 Alpha virt. eigenvalues --    0.16912   0.18798   0.22223   0.28995   0.32540
 Alpha virt. eigenvalues --    0.34010   0.38644   0.39713   0.43188   0.44954

 Mulliken charges:
               1
     1  C    0.090368
     2  O   -0.488151
     3  H    0.053405
     4  H    0.045689
     5  H    0.072296
     6  H    0.226394
 Sum of Mulliken charges =   0.00000

 Dipole moment (field-independent basis, Debye):
    X=             -1.2983    Y=              1.6692    Z=              0.0331  Tot=              2.1150
 Quadrupole moment (field-independent basis, Debye-Ang):
   XX=            -13.1663   YY=            -11.3751   ZZ=            -13.8510
   XY=              2.3212   XZ=              0.0024   YZ=             -0.0566

 Normal termination of Gaussian 09 at Wed Aug 26 21:53:55 2020.
