 Gaussian 09, Revision D.01,
 Gaussian 09:  ES64L-G09RevD.01 24-Apr-2013

 --------------------
 #p B2PLYPD3/Def2QZVP
 --------------------

 --------
 methanol
 --------
 Symbolic Z-matrix:
 Charge =  0 Multiplicity = 1

                         Standard orientation:
 ---------------------------------------------------------------------
 Center     Atomic      Atomic             Coordinates (Angstroms)
 Number     Number       Type             X           Y           Z
 ---------------------------------------------------------------------
      1          6           0       -0.650707   -0.027067   -0.000140
      2          8           0        0.750601    0.105155   -0.002249
      3          1           0       -1.011498   -0.572402    0.896056
      4          1           0       -1.085050   -0.541635   -0.886485
      5          1           0       -1.116190    1.071557    0.023724
      6          1           0        1.112171   -0.636355   -0.014459
 ---------------------------------------------------------------------

 SCF Done:  E(RB2PLYPD3) =  -115.524481187     A.U. after   10 cycles
 E2(B2PLYPD3) =    -0.1454642779D+00 E(B2PLYPD3) =    -0.11566994546530D+03

 The electronic state is 1-A.
 Alpha  occ. eigenvalues --  -19.71628 -10.67316  -1.20210  -0.79307  -0.61160
 Alpha  occ. eigenvalues --   -0.51707  -0.49524  -0.40711  -0.35865
 Alpha virt. eigenvalues --    0.05294   0.08629   0.11859   0.12328   0.14927
 Alpha virt. eigenvalues --    0.17265   0.18004   0.28946   0.33117   0.33776
 Alpha virt. eigenvalues --    0.36077   0.38562   0.39794   0.40211   0.42535

 Mulliken charges:
               1
     1  C    0.057929
     2  O   -0.367243
     3  H    0.050509
     4  H    0.050882
     5  H    0.062305
     6  H    0.145618
 Sum of Mulliken charges =   0.00000

 Dipole moment (field-independent basis, Debye):
    X=             -0.8136    Y=             -1.4402    Z=             -0.0190  Tot=              1.6542
 Quadrupole moment (field-independent basis, Debye-Ang):
   XX=            -13.0127   YY=            -12.4590   ZZ=            -13.8140
   XY=             -2.0036   XZ=              0.0267   YZ=              0.0144

 Normal termination of Gaussian 09 at Wed Aug 26 15:23:20 2020.
