 Gaussian 09, Revision D.01,
 Gaussian 09:  ES64L-G09RevD.01 24-Apr-2013

 --------------------
 #p B2PLYPD3/Def2QZVP
 --------------------

 --------
 methanol
 --------
 Symbolic Z-matrix:
 Charge =  0 Multiplicity = 1

                         Standard orientation:
 ---------------------------------------------------------------------
 Center     Atomic      Atomic             Coordinates (Angstroms)
 Number     Number       Type             X           Y           Z
 ---------------------------------------------------------------------
      1          6           0       -0.666700   -0.016330   -0.000999
      2          8           0        0.747761    0.115695   -0.006001
      3          1           0       -1.019320   -0.474437    0.916953
      4          1           0       -0.967757   -0.638468   -0.858806
      5          1           0       -1.081218    1.000580   -0.064569
      6          1           0        1.086407   -0.715258    0.060424
 ---------------------------------------------------------------------

 SCF Done:  E(RB2PLYPD3) =  -115.549389146     A.U. after   10 cycles
 E2(B2PLYPD3) =    -0.1462521590D+00 E(B2PLYPD3) =    -0.11569564130497D+03

 The electronic state is 1-A.
 Alpha  occ. eigenvalues --  -19.71855 -10.65858  -1.17592  -0.78985  -0.59469
 Alpha  occ. eigenvalues --   -0.52087  -0.49869  -0.41519  -0.35420
 Alpha virt. eigenvalues --    0.05163   0.08615   0.12242   0.12319   0.14795
 Alpha virt. eigenvalues --    0.17286   0.17796   0.29141   0.32916   0.33419
 Alpha virt. eigenvalues --    0.36815   0.38844   0.40031   0.40839   0.43946

 Mulliken charges:
               1
     1  C    0.072207
     2  O   -0.433850
     3  H    0.047464
     4  H    0.046330
     5  H    0.072221
     6  H    0.195628
 Sum of Mulliken charges =   0.00000

 Dipole moment (field-independent basis, Debye):
    X=             -0.9519    Y=             -1.4653    Z=              0.1341  Tot=              1.7524
 Quadrupole moment (field-independent basis, Debye-Ang):
   XX=            -13.2774   YY=            -12.1589   ZZ=            -13.7141
   XY=             -2.1597   XZ=              0.0920   YZ=             -0.0760

 Normal termination of Gaussian 09 at Wed Aug 26 12:15:43 2020.
