 Gaussian 09, Revision D.01,
 Gaussian 09:  ES64L-G09RevD.01 24-Apr-2013

 --------------------
 #p B2PLYPD3/Def2QZVP
 --------------------

 --------
 methanol
 --------
 Symbolic Z-matrix:
 Charge =  0 Multiplicity = 1

                         Standard orientation:
 ---------------------------------------------------------------------
 Center     Atomic      Atomic             Coordinates (Angstroms)
 Number     Number       Type             X           Y           Z
 ---------------------------------------------------------------------
      1          6           0        0.676832   -0.006586    0.002197
      2          8           0       -0.756819    0.093704   -0.010519
      3          1           0        1.049508   -0.709346   -0.841186
      4          1           0        1.035181   -0.399063    0.999670
      5          1           0        1.037794    1.015957   -0.149262
      6          1           0       -1.128923   -0.617665    0.061754
 ---------------------------------------------------------------------

 SCF Done:  E(RB2PLYPD3) =  -115.518432604     A.U. after   10 cycles
 E2(B2PLYPD3) =    -0.1452502787D+00 E(B2PLYPD3) =    -0.11566368288218D+03

 The electronic state is 1-A.
 Alpha  occ. eigenvalues --  -19.70840 -10.67354  -1.19503  -0.79915  -0.60109
 Alpha  occ. eigenvalues --   -0.50951  -0.50307  -0.41258  -0.35628
 Alpha virt. eigenvalues --    0.05390   0.08750   0.11952   0.12259   0.14643
 Alpha virt. eigenvalues --    0.16904   0.17853   0.28988   0.32377   0.33057
 Alpha virt. eigenvalues --    0.37180   0.39203   0.39639   0.39885   0.42624

 Mulliken charges:
               1
     1  C    0.063635
     2  O   -0.370460
     3  H    0.045726
     4  H    0.052376
     5  H    0.083029
     6  H    0.125694
 Sum of Mulliken charges =   0.00000

 Dipole moment (field-independent basis, Debye):
    X=              0.9318    Y=             -1.2951    Z=              0.1543  Tot=              1.6029
 Quadrupole moment (field-independent basis, Debye-Ang):
   XX=            -13.0535   YY=            -12.3813   ZZ=            -13.6739
   XY=              2.0847   XZ=             -0.1996   YZ=             -0.1183

 Normal termination of Gaussian 09 at Wed Aug 26 15:59:08 2020.
