 Gaussian 09, Revision D.01,
 Gaussian 09:  ES64L-G09RevD.01 24-Apr-2013

 --------------------
 #p B2PLYPD3/Def2QZVP
 --------------------

 --------
 methanol
 --------
 Symbolic Z-matrix:
 Charge =  0 Multiplicity = 1

                         Standard orientation:
 ---------------------------------------------------------------------
 Center     Atomic      Atomic             Coordinates (Angstroms)
 Number     Number       Type             X           Y           Z
 ---------------------------------------------------------------------
      1          6           0        0.677540    0.058846   -0.017555
      2          8           0       -0.756259   -0.191523    0.005412
      3          1           0        1.104810    0.439363    0.798915
      4          1           0        1.103723    0.557447   -0.666911
      5          1           0        1.111628   -0.921638   -0.055535
      6          1           0       -1.335328    1.103932   -0.014439
 ---------------------------------------------------------------------

 SCF Done:  E(RB2PLYPD3) =  -115.422652776     A.U. after   11 cycles
 E2(B2PLYPD3) =    -0.1570395086D+00 E(B2PLYPD3) =    -0.11557969228441D+03

 The electronic state is 1-A.
 Alpha  occ. eigenvalues --  -19.76059 -10.62450  -1.10570  -0.81217  -0.54597
 Alpha  occ. eigenvalues --   -0.51781  -0.48012  -0.39411  -0.35716
 Alpha virt. eigenvalues --   -0.01626   0.07094   0.12136   0.13397   0.14879
 Alpha virt. eigenvalues --    0.17204   0.18797   0.21863   0.28991   0.33017
 Alpha virt. eigenvalues --    0.34603   0.37157   0.39201   0.42508   0.45058

 Mulliken charges:
               1
     1  C    0.088601
     2  O   -0.476824
     3  H    0.047585
     4  H    0.056861
     5  H    0.050266
     6  H    0.233512
 Sum of Mulliken charges =   0.00000

 Dipole moment (field-independent basis, Debye):
    X=              1.0318    Y=              1.8074    Z=             -0.0542  Tot=              2.0819
 Quadrupole moment (field-independent basis, Debye-Ang):
   XX=            -12.3876   YY=            -11.6088   ZZ=            -14.2684
   XY=             -2.4223   XZ=              0.0131   YZ=             -0.0944

 Normal termination of Gaussian 09 at Wed Aug 26 22:21:50 2020.
