 Gaussian 09, Revision D.01,
 Gaussian 09:  ES64L-G09RevD.01 24-Apr-2013

 --------------------
 #p B2PLYPD3/Def2QZVP
 --------------------

 --------
 methanol
 --------
 Symbolic Z-matrix:
 Charge =  0 Multiplicity = 1

                         Standard orientation:
 ---------------------------------------------------------------------
 Center     Atomic      Atomic             Coordinates (Angstroms)
 Number     Number       Type             X           Y           Z
 ---------------------------------------------------------------------
      1          6           0       -0.654498   -0.017950   -0.009201
      2          8           0        0.755992    0.089028   -0.006200
      3          1           0       -1.096426   -0.486117    0.952373
      4          1           0       -0.972239   -0.638972   -0.905688
      5          1           0       -1.095315    1.078455   -0.048825
      6          1           0        1.043029   -0.557895    0.106947
 ---------------------------------------------------------------------

 SCF Done:  E(RB2PLYPD3) =  -115.442548562     A.U. after   10 cycles
 E2(B2PLYPD3) =    -0.1442436268D+00 E(B2PLYPD3) =    -0.11558679218866D+03

 The electronic state is 1-A.
 Alpha  occ. eigenvalues --  -19.70327 -10.68227  -1.24161  -0.80353  -0.61733
 Alpha  occ. eigenvalues --   -0.51907  -0.49752  -0.41251  -0.36137
 Alpha virt. eigenvalues --    0.05324   0.09096   0.11769   0.11940   0.14657
 Alpha virt. eigenvalues --    0.17147   0.17792   0.28656   0.32315   0.33566
 Alpha virt. eigenvalues --    0.36171   0.38226   0.38908   0.40743   0.42726

 Mulliken charges:
               1
     1  C    0.052665
     2  O   -0.261099
     3  H    0.044975
     4  H    0.054162
     5  H    0.071300
     6  H    0.037998
 Sum of Mulliken charges =   0.00000

 Dipole moment (field-independent basis, Debye):
    X=             -0.9527    Y=             -1.2727    Z=              0.2117  Tot=              1.6038
 Quadrupole moment (field-independent basis, Debye-Ang):
   XX=            -13.3047   YY=            -12.4697   ZZ=            -13.6180
   XY=             -1.8826   XZ=              0.1865   YZ=             -0.0801

 Normal termination of Gaussian 09 at Wed Aug 26 12:18:38 2020.
