 Gaussian 09, Revision D.01,
 Gaussian 09:  ES64L-G09RevD.01 24-Apr-2013

 --------------------
 #p B2PLYPD3/Def2QZVP
 --------------------

 --------
 methanol
 --------
 Symbolic Z-matrix:
 Charge =  0 Multiplicity = 1

                         Standard orientation:
 ---------------------------------------------------------------------
 Center     Atomic      Atomic             Coordinates (Angstroms)
 Number     Number       Type             X           Y           Z
 ---------------------------------------------------------------------
      1          6           0        0.674456    0.029654   -0.000254
      2          8           0       -0.745314   -0.146364    0.003346
      3          1           0        1.021606    0.534997    0.839244
      4          1           0        1.024259    0.529553   -0.828192
      5          1           0        1.066880   -0.957358   -0.013940
      6          1           0       -1.196965    0.885795   -0.022356
 ---------------------------------------------------------------------

 SCF Done:  E(RB2PLYPD3) =  -115.526349979     A.U. after   11 cycles
 E2(B2PLYPD3) =    -0.1501191351D+00 E(B2PLYPD3) =    -0.11567646911395D+03

 The electronic state is 1-A.
 Alpha  occ. eigenvalues --  -19.73671 -10.63853  -1.13095  -0.78869  -0.56803
 Alpha  occ. eigenvalues --   -0.52329  -0.48952  -0.40880  -0.35239
 Alpha virt. eigenvalues --    0.03517   0.07793   0.12450   0.12758   0.15009
 Alpha virt. eigenvalues --    0.17206   0.18192   0.28493   0.29885   0.33602
 Alpha virt. eigenvalues --    0.33800   0.38992   0.39584   0.42373   0.44398

 Mulliken charges:
               1
     1  C    0.084188
     2  O   -0.495127
     3  H    0.048213
     4  H    0.047094
     5  H    0.066514
     6  H    0.249118
 Sum of Mulliken charges =   0.00000

 Dipole moment (field-independent basis, Debye):
    X=              0.9295    Y=              1.6598    Z=             -0.0546  Tot=              1.9031
 Quadrupole moment (field-independent basis, Debye-Ang):
   XX=            -12.8965   YY=            -11.9017   ZZ=            -13.8884
   XY=             -2.3541   XZ=              0.0315   YZ=             -0.0252

 Normal termination of Gaussian 09 at Wed Aug 26 21:05:43 2020.
