 Gaussian 09, Revision D.01,
 Gaussian 09:  ES64L-G09RevD.01 24-Apr-2013

 --------------------
 #p B2PLYPD3/Def2QZVP
 --------------------

 --------
 methanol
 --------
 Symbolic Z-matrix:
 Charge =  0 Multiplicity = 1

                         Standard orientation:
 ---------------------------------------------------------------------
 Center     Atomic      Atomic             Coordinates (Angstroms)
 Number     Number       Type             X           Y           Z
 ---------------------------------------------------------------------
      1          6           0        0.662204   -0.015125    0.006570
      2          8           0       -0.750154    0.075222   -0.008397
      3          1           0        1.106335   -0.656613   -0.887975
      4          1           0        1.042122   -0.474918    0.983341
      5          1           0        1.042843    1.112671   -0.089527
      6          1           0       -1.163294   -0.492167    0.021917
 ---------------------------------------------------------------------

 SCF Done:  E(RB2PLYPD3) =  -115.418567199     A.U. after   11 cycles
 E2(B2PLYPD3) =    -0.1442268748D+00 E(B2PLYPD3) =    -0.11556279407417D+03

 The electronic state is 1-A.
 Alpha  occ. eigenvalues --  -19.69798 -10.69071  -1.23680  -0.81629  -0.61768
 Alpha  occ. eigenvalues --   -0.50965  -0.49836  -0.40018  -0.35943
 Alpha virt. eigenvalues --    0.05308   0.09038   0.11640   0.11982   0.14707
 Alpha virt. eigenvalues --    0.16686   0.17846   0.28850   0.32737   0.33050
 Alpha virt. eigenvalues --    0.36056   0.37404   0.39036   0.40308   0.41864

 Mulliken charges:
               1
     1  C    0.048848
     2  O   -0.245996
     3  H    0.046783
     4  H    0.055484
     5  H    0.078990
     6  H    0.015890
 Sum of Mulliken charges =   0.00000

 Dipole moment (field-independent basis, Debye):
    X=              0.7652    Y=             -1.1834    Z=              0.1068  Tot=              1.4133
 Quadrupole moment (field-independent basis, Debye-Ang):
   XX=            -12.7785   YY=            -12.6487   ZZ=            -13.6981
   XY=              1.8442   XZ=             -0.1030   YZ=             -0.0743

 Normal termination of Gaussian 09 at Wed Aug 26 13:39:42 2020.
