 Gaussian 09, Revision D.01,
 Gaussian 09:  ES64L-G09RevD.01 24-Apr-2013

 --------------------
 #p B2PLYPD3/Def2QZVP
 --------------------

 --------
 methanol
 --------
 Symbolic Z-matrix:
 Charge =  0 Multiplicity = 1

                         Standard orientation:
 ---------------------------------------------------------------------
 Center     Atomic      Atomic             Coordinates (Angstroms)
 Number     Number       Type             X           Y           Z
 ---------------------------------------------------------------------
      1          6           0       -0.668616   -0.020699    0.005950
      2          8           0        0.745107    0.134540    0.000731
      3          1           0       -1.055416   -0.516670    0.857042
      4          1           0       -0.999314   -0.591260   -0.852037
      5          1           0       -1.099185    0.958737   -0.055850
      6          1           0        1.204749   -0.802937    0.009302
 ---------------------------------------------------------------------

 SCF Done:  E(RB2PLYPD3) =  -115.544487953     A.U. after   10 cycles
 E2(B2PLYPD3) =    -0.1485474226D+00 E(B2PLYPD3) =    -0.11569303537553D+03

 The electronic state is 1-A.
 Alpha  occ. eigenvalues --  -19.73116 -10.64854  -1.14380  -0.78635  -0.57776
 Alpha  occ. eigenvalues --   -0.51572  -0.49827  -0.40816  -0.35105
 Alpha virt. eigenvalues --    0.04372   0.07896   0.12507   0.12643   0.14975
 Alpha virt. eigenvalues --    0.17329   0.18100   0.29245   0.32001   0.33341
 Alpha virt. eigenvalues --    0.33899   0.39242   0.39536   0.41417   0.44078

 Mulliken charges:
               1
     1  C    0.077675
     2  O   -0.484684
     3  H    0.048552
     4  H    0.042672
     5  H    0.070733
     6  H    0.245052
 Sum of Mulliken charges =   0.00000

 Dipole moment (field-independent basis, Debye):
    X=             -0.8296    Y=             -1.5772    Z=              0.0264  Tot=              1.7822
 Quadrupole moment (field-independent basis, Debye-Ang):
   XX=            -12.7421   YY=            -12.1275   ZZ=            -13.9214
   XY=             -2.3964   XZ=             -0.0361   YZ=             -0.0494

 Normal termination of Gaussian 09 at Wed Aug 26 22:36:37 2020.
