 Gaussian 09, Revision D.01,
 Gaussian 09:  ES64L-G09RevD.01 24-Apr-2013

 --------------------
 #p B2PLYPD3/Def2QZVP
 --------------------

 --------
 methanol
 --------
 Symbolic Z-matrix:
 Charge =  0 Multiplicity = 1

                         Standard orientation:
 ---------------------------------------------------------------------
 Center     Atomic      Atomic             Coordinates (Angstroms)
 Number     Number       Type             X           Y           Z
 ---------------------------------------------------------------------
      1          6           0       -0.673042   -0.011542    0.002056
      2          8           0        0.745997    0.093631   -0.013333
      3          1           0       -1.029742   -0.394144    1.014284
      4          1           0       -1.014747   -0.702198   -0.865871
      5          1           0       -1.038516    1.005665   -0.144201
      6          1           0        1.153276   -0.589122    0.090119
 ---------------------------------------------------------------------

 SCF Done:  E(RB2PLYPD3) =  -115.515247399     A.U. after   10 cycles
 E2(B2PLYPD3) =    -0.1449755849D+00 E(B2PLYPD3) =    -0.11566022298432D+03

 The electronic state is 1-A.
 Alpha  occ. eigenvalues --  -19.70613 -10.67338  -1.19795  -0.80218  -0.60128
 Alpha  occ. eigenvalues --   -0.51318  -0.50640  -0.40614  -0.35521
 Alpha virt. eigenvalues --    0.05417   0.08837   0.11915   0.12360   0.14485
 Alpha virt. eigenvalues --    0.16859   0.17920   0.28964   0.32753   0.33054
 Alpha virt. eigenvalues --    0.37110   0.39301   0.39827   0.40053   0.42805

 Mulliken charges:
               1
     1  C    0.061778
     2  O   -0.363476
     3  H    0.050254
     4  H    0.047173
     5  H    0.082892
     6  H    0.121379
 Sum of Mulliken charges =   0.00000

 Dipole moment (field-independent basis, Debye):
    X=             -0.8312    Y=             -1.2488    Z=              0.2101  Tot=              1.5147
 Quadrupole moment (field-independent basis, Debye-Ang):
   XX=            -12.9619   YY=            -12.5227   ZZ=            -13.5811
   XY=             -2.1280   XZ=              0.2753   YZ=             -0.1348

 Normal termination of Gaussian 09 at Thu Aug 27 00:15:12 2020.
