 Gaussian 09, Revision D.01,
 Gaussian 09:  ES64L-G09RevD.01 24-Apr-2013

 --------------------
 #p B2PLYPD3/Def2QZVP
 --------------------

 --------
 methanol
 --------
 Symbolic Z-matrix:
 Charge =  0 Multiplicity = 1

                         Standard orientation:
 ---------------------------------------------------------------------
 Center     Atomic      Atomic             Coordinates (Angstroms)
 Number     Number       Type             X           Y           Z
 ---------------------------------------------------------------------
      1          6           0        0.661731   -0.006422   -0.000500
      2          8           0       -0.751468    0.113322   -0.010149
      3          1           0        1.022759   -0.692979   -0.823874
      4          1           0        1.029556   -0.405541    0.964577
      5          1           0        1.077505    0.962115   -0.125115
      6          1           0       -1.088458   -0.731636    0.068607
 ---------------------------------------------------------------------

 SCF Done:  E(RB2PLYPD3) =  -115.549956702     A.U. after   10 cycles
 E2(B2PLYPD3) =    -0.1465584578D+00 E(B2PLYPD3) =    -0.11569651515936D+03

 The electronic state is 1-A.
 Alpha  occ. eigenvalues --  -19.72243 -10.65991  -1.17436  -0.78932  -0.59250
 Alpha  occ. eigenvalues --   -0.51351  -0.50557  -0.41613  -0.35322
 Alpha virt. eigenvalues --    0.05106   0.08459   0.12164   0.12525   0.14802
 Alpha virt. eigenvalues --    0.17365   0.17975   0.29088   0.33078   0.33363
 Alpha virt. eigenvalues --    0.36113   0.38969   0.39989   0.40551   0.43981

 Mulliken charges:
               1
     1  C    0.069267
     2  O   -0.435548
     3  H    0.040068
     4  H    0.045438
     5  H    0.075787
     6  H    0.204988
 Sum of Mulliken charges =   0.00000

 Dipole moment (field-independent basis, Debye):
    X=              0.9326    Y=             -1.4211    Z=              0.1511  Tot=              1.7065
 Quadrupole moment (field-independent basis, Debye-Ang):
   XX=            -13.2259   YY=            -12.1944   ZZ=            -13.7846
   XY=              2.2123   XZ=             -0.1786   YZ=             -0.1107

 Normal termination of Gaussian 09 at Thu Aug 27 00:03:10 2020.
