 Gaussian 09, Revision D.01,
 Gaussian 09:  ES64L-G09RevD.01 24-Apr-2013

 --------------------
 #p B2PLYPD3/Def2QZVP
 --------------------

 --------
 methanol
 --------
 Symbolic Z-matrix:
 Charge =  0 Multiplicity = 1

                         Standard orientation:
 ---------------------------------------------------------------------
 Center     Atomic      Atomic             Coordinates (Angstroms)
 Number     Number       Type             X           Y           Z
 ---------------------------------------------------------------------
      1          6           0        0.665770   -0.022207   -0.002099
      2          8           0       -0.741653    0.098022   -0.010407
      3          1           0        0.951384   -0.753777   -0.817735
      4          1           0        1.103086   -0.345225    0.969800
      5          1           0        1.036151    1.043986   -0.187335
      6          1           0       -1.152015   -0.595924    0.131115
 ---------------------------------------------------------------------

 SCF Done:  E(RB2PLYPD3) =  -115.523224364     A.U. after   11 cycles
 E2(B2PLYPD3) =    -0.1451793185D+00 E(B2PLYPD3) =    -0.11566840368258D+03

 The electronic state is 1-A.
 Alpha  occ. eigenvalues --  -19.70934 -10.67151  -1.19676  -0.79833  -0.60607
 Alpha  occ. eigenvalues --   -0.51960  -0.49560  -0.40546  -0.35565
 Alpha virt. eigenvalues --    0.05374   0.08764   0.12011   0.12210   0.14803
 Alpha virt. eigenvalues --    0.16805   0.17974   0.29030   0.32553   0.33930
 Alpha virt. eigenvalues --    0.37411   0.38553   0.39819   0.40251   0.42500

 Mulliken charges:
               1
     1  C    0.059164
     2  O   -0.371943
     3  H    0.049363
     4  H    0.051819
     5  H    0.073861
     6  H    0.137736
 Sum of Mulliken charges =   0.00000

 Dipole moment (field-independent basis, Debye):
    X=              0.7761    Y=             -1.3217    Z=              0.2886  Tot=              1.5597
 Quadrupole moment (field-independent basis, Debye-Ang):
   XX=            -12.9518   YY=            -12.4624   ZZ=            -13.6825
   XY=              2.0482   XZ=             -0.2316   YZ=             -0.1441

 Normal termination of Gaussian 09 at Wed Aug 26 10:58:16 2020.
