 Gaussian 09, Revision D.01,
 Gaussian 09:  ES64L-G09RevD.01 24-Apr-2013

 --------------------
 #p B2PLYPD3/Def2QZVP
 --------------------

 --------
 methanol
 --------
 Symbolic Z-matrix:
 Charge =  0 Multiplicity = 1

                         Standard orientation:
 ---------------------------------------------------------------------
 Center     Atomic      Atomic             Coordinates (Angstroms)
 Number     Number       Type             X           Y           Z
 ---------------------------------------------------------------------
      1          6           0        0.637973    0.037639   -0.015054
      2          8           0       -0.710597   -0.188886    0.015692
      3          1           0        1.006972    0.584507    0.750085
      4          1           0        0.966444    0.490605   -0.700533
      5          1           0        1.050088   -0.918248   -0.013690
      6          1           0       -1.166561    1.128387   -0.071079
 ---------------------------------------------------------------------

 SCF Done:  E(RB2PLYPD3) =  -115.416765796     A.U. after   12 cycles
 E2(B2PLYPD3) =    -0.1547325941D+00 E(B2PLYPD3) =    -0.11557149839056D+03

 The electronic state is 1-A.
 Alpha  occ. eigenvalues --  -19.75358 -10.60999  -1.13977  -0.80484  -0.57053
 Alpha  occ. eigenvalues --   -0.53403  -0.49509  -0.39336  -0.34950
 Alpha virt. eigenvalues --   -0.01448   0.07617   0.12302   0.13303   0.15315
 Alpha virt. eigenvalues --    0.17452   0.18107   0.22255   0.29720   0.33448
 Alpha virt. eigenvalues --    0.36576   0.38075   0.39165   0.43536   0.46496

 Mulliken charges:
               1
     1  C    0.087780
     2  O   -0.458641
     3  H    0.031804
     4  H    0.058148
     5  H    0.053854
     6  H    0.227054
 Sum of Mulliken charges =   0.00000

 Dipole moment (field-independent basis, Debye):
    X=              0.9901    Y=              1.8013    Z=             -0.2201  Tot=              2.0672
 Quadrupole moment (field-independent basis, Debye-Ang):
   XX=            -13.2911   YY=            -11.1974   ZZ=            -14.0806
   XY=             -2.1847   XZ=              0.0215   YZ=             -0.1574

 Normal termination of Gaussian 09 at Wed Aug 26 19:22:58 2020.
