 Gaussian 09, Revision D.01,
 Gaussian 09:  ES64L-G09RevD.01 24-Apr-2013

 --------------------
 #p B2PLYPD3/Def2QZVP
 --------------------

 --------
 methanol
 --------
 Symbolic Z-matrix:
 Charge =  0 Multiplicity = 1

                         Standard orientation:
 ---------------------------------------------------------------------
 Center     Atomic      Atomic             Coordinates (Angstroms)
 Number     Number       Type             X           Y           Z
 ---------------------------------------------------------------------
      1          6           0        0.669161   -0.025403    0.004565
      2          8           0       -0.753880    0.128913   -0.009171
      3          1           0        1.037389   -0.599848   -0.855796
      4          1           0        1.046737   -0.473560    0.884957
      5          1           0        1.107909    0.974743   -0.040452
      6          1           0       -1.175964   -0.780220    0.057270
 ---------------------------------------------------------------------

 SCF Done:  E(RB2PLYPD3) =  -115.549113825     A.U. after   10 cycles
 E2(B2PLYPD3) =    -0.1481579596D+00 E(B2PLYPD3) =    -0.11569727178433D+03

 The electronic state is 1-A.
 Alpha  occ. eigenvalues --  -19.73001 -10.65386  -1.14887  -0.78666  -0.58015
 Alpha  occ. eigenvalues --   -0.51666  -0.49458  -0.40929  -0.35448
 Alpha virt. eigenvalues --    0.04714   0.07944   0.12434   0.12510   0.14871
 Alpha virt. eigenvalues --    0.17339   0.18250   0.29107   0.32991   0.33517
 Alpha virt. eigenvalues --    0.33755   0.38709   0.39631   0.41193   0.44139

 Mulliken charges:
               1
     1  C    0.072430
     2  O   -0.475530
     3  H    0.047491
     4  H    0.051422
     5  H    0.067696
     6  H    0.236491
 Sum of Mulliken charges =   0.00000

 Dipole moment (field-independent basis, Debye):
    X=              0.8876    Y=             -1.5492    Z=              0.1523  Tot=              1.7920
 Quadrupole moment (field-independent basis, Debye-Ang):
   XX=            -12.8337   YY=            -12.2358   ZZ=            -13.8473
   XY=              2.3185   XZ=             -0.0985   YZ=             -0.0887

 Normal termination of Gaussian 09 at Wed Aug 26 10:43:49 2020.
