 Gaussian 09, Revision D.01,
 Gaussian 09:  ES64L-G09RevD.01 24-Apr-2013

 --------------------
 #p B2PLYPD3/Def2QZVP
 --------------------

 --------
 methanol
 --------
 Symbolic Z-matrix:
 Charge =  0 Multiplicity = 1

                         Standard orientation:
 ---------------------------------------------------------------------
 Center     Atomic      Atomic             Coordinates (Angstroms)
 Number     Number       Type             X           Y           Z
 ---------------------------------------------------------------------
      1          6           0        0.665630   -0.012609    0.012369
      2          8           0       -0.751046    0.095492   -0.009268
      3          1           0        1.030531   -0.693036   -0.850588
      4          1           0        0.990148   -0.437179    0.958120
      5          1           0        1.061565    1.053441   -0.137181
      6          1           0       -1.067656   -0.611509    0.029582
 ---------------------------------------------------------------------

 SCF Done:  E(RB2PLYPD3) =  -115.500126160     A.U. after   10 cycles
 E2(B2PLYPD3) =    -0.1446598800D+00 E(B2PLYPD3) =    -0.11564478603968D+03

 The electronic state is 1-A.
 Alpha  occ. eigenvalues --  -19.70601 -10.67252  -1.21353  -0.79988  -0.61005
 Alpha  occ. eigenvalues --   -0.51820  -0.49848  -0.41496  -0.35805
 Alpha virt. eigenvalues --    0.05360   0.09037   0.11885   0.12129   0.14772
 Alpha virt. eigenvalues --    0.17049   0.17635   0.28935   0.32812   0.33008
 Alpha virt. eigenvalues --    0.37245   0.38370   0.39906   0.40832   0.42851

 Mulliken charges:
               1
     1  C    0.063366
     2  O   -0.329390
     3  H    0.041000
     4  H    0.056541
     5  H    0.074932
     6  H    0.093552
 Sum of Mulliken charges =   0.00000

 Dipole moment (field-independent basis, Debye):
    X=              0.9526    Y=             -1.3381    Z=              0.1348  Tot=              1.6480
 Quadrupole moment (field-independent basis, Debye-Ang):
   XX=            -13.3101   YY=            -12.2982   ZZ=            -13.6374
   XY=              1.9768   XZ=             -0.0810   YZ=             -0.1245

 Normal termination of Gaussian 09 at Wed Aug 26 10:16:25 2020.
