 Gaussian 09, Revision D.01,
 Gaussian 09:  ES64L-G09RevD.01 24-Apr-2013

 --------------------
 #p B2PLYPD3/Def2QZVP
 --------------------

 --------
 methanol
 --------
 Symbolic Z-matrix:
 Charge =  0 Multiplicity = 1

                         Standard orientation:
 ---------------------------------------------------------------------
 Center     Atomic      Atomic             Coordinates (Angstroms)
 Number     Number       Type             X           Y           Z
 ---------------------------------------------------------------------
      1          6           0        0.684784   -0.024134   -0.006143
      2          8           0       -0.776986    0.069643   -0.003147
      3          1           0        1.166648   -0.587739   -0.921139
      4          1           0        0.981480   -0.594544    1.001175
      5          1           0        1.177112    1.143597    0.031629
      6          1           0       -1.218055   -0.373650   -0.049634
 ---------------------------------------------------------------------

 SCF Done:  E(RB2PLYPD3) =  -115.259526030     A.U. after   11 cycles
 E2(B2PLYPD3) =    -0.1448045710D+00 E(B2PLYPD3) =    -0.11540433060128D+03

 The electronic state is 1-A.
 Alpha  occ. eigenvalues --  -19.68576 -10.71320  -1.25500  -0.82303  -0.61761
 Alpha  occ. eigenvalues --   -0.50330  -0.48663  -0.39102  -0.36287
 Alpha virt. eigenvalues --    0.04861   0.08987   0.11111   0.11606   0.13977
 Alpha virt. eigenvalues --    0.16806   0.17778   0.28619   0.29788   0.32843
 Alpha virt. eigenvalues --    0.33268   0.36297   0.37306   0.40681   0.42035

 Mulliken charges:
               1
     1  C    0.056744
     2  O   -0.208379
     3  H    0.064771
     4  H    0.061870
     5  H    0.080901
     6  H   -0.055907
 Sum of Mulliken charges =   0.00000

 Dipole moment (field-independent basis, Debye):
    X=              0.9885    Y=             -1.0776    Z=             -0.1219  Tot=              1.4674
 Quadrupole moment (field-independent basis, Debye-Ang):
   XX=            -12.3557   YY=            -12.9258   ZZ=            -13.6199
   XY=              1.7753   XZ=             -0.0188   YZ=              0.0900

 Normal termination of Gaussian 09 at Wed Aug 26 19:40:48 2020.
