 Gaussian 09, Revision D.01,
 Gaussian 09:  ES64L-G09RevD.01 24-Apr-2013

 --------------------
 #p B2PLYPD3/Def2QZVP
 --------------------

 --------
 methanol
 --------
 Symbolic Z-matrix:
 Charge =  0 Multiplicity = 1

                         Standard orientation:
 ---------------------------------------------------------------------
 Center     Atomic      Atomic             Coordinates (Angstroms)
 Number     Number       Type             X           Y           Z
 ---------------------------------------------------------------------
      1          6           0       -0.670081   -0.023267    0.055170
      2          8           0        0.745327    0.074618   -0.032277
      3          1           0       -0.996521   -0.235824    0.931811
      4          1           0       -1.093979   -0.815393   -0.818706
      5          1           0       -0.963904    1.120346   -0.314988
      6          1           0        1.112273   -0.526475    0.129081
 ---------------------------------------------------------------------

 SCF Done:  E(RB2PLYPD3) =  -115.419203495     A.U. after   11 cycles
 E2(B2PLYPD3) =    -0.1445092891D+00 E(B2PLYPD3) =    -0.11556371278391D+03

 The electronic state is 1-A.
 Alpha  occ. eigenvalues --  -19.69993 -10.67885  -1.23114  -0.81756  -0.63067
 Alpha  occ. eigenvalues --   -0.51933  -0.48723  -0.40438  -0.36047
 Alpha virt. eigenvalues --    0.05180   0.09113   0.11079   0.11875   0.14940
 Alpha virt. eigenvalues --    0.16554   0.18177   0.28781   0.31864   0.32723
 Alpha virt. eigenvalues --    0.34850   0.36350   0.40469   0.41618   0.45380

 Mulliken charges:
               1
     1  C    0.043947
     2  O   -0.258982
     3  H    0.077967
     4  H    0.036003
     5  H    0.067616
     6  H    0.033449
 Sum of Mulliken charges =   0.00000

 Dipole moment (field-independent basis, Debye):
    X=             -0.7895    Y=             -1.2017    Z=              0.5667  Tot=              1.5455
 Quadrupole moment (field-independent basis, Debye-Ang):
   XX=            -13.1817   YY=            -12.6473   ZZ=            -13.3855
   XY=             -1.7255   XZ=              0.2265   YZ=             -0.3656

 Normal termination of Gaussian 09 at Wed Aug 26 23:40:49 2020.
