 Gaussian 09, Revision D.01,
 Gaussian 09:  ES64L-G09RevD.01 24-Apr-2013

 --------------------
 #p B2PLYPD3/Def2QZVP
 --------------------

 --------
 methanol
 --------
 Symbolic Z-matrix:
 Charge =  0 Multiplicity = 1

                         Standard orientation:
 ---------------------------------------------------------------------
 Center     Atomic      Atomic             Coordinates (Angstroms)
 Number     Number       Type             X           Y           Z
 ---------------------------------------------------------------------
      1          6           0        0.676194   -0.023874    0.002387
      2          8           0       -0.780118   -0.012797    0.044593
      3          1           0        1.142106    1.240267   -0.213834
      4          1           0        1.091885   -0.796012   -0.826228
      5          1           0        1.067357   -0.344341    0.989795
      6          1           0       -1.117567    0.145703   -0.320803
 ---------------------------------------------------------------------

 SCF Done:  E(RB2PLYPD3) =  -114.875288007     A.U. after   12 cycles
 E2(B2PLYPD3) =    -0.1442409121D+00 E(B2PLYPD3) =    -0.11501952891953D+03

 The electronic state is 1-A.
 Alpha  occ. eigenvalues --  -19.68709 -10.71769  -1.31733  -0.84446  -0.62335
 Alpha  occ. eigenvalues --   -0.51365  -0.49428  -0.40093  -0.36316
 Alpha virt. eigenvalues --    0.04590   0.09371   0.10281   0.11923   0.13684
 Alpha virt. eigenvalues --    0.16751   0.17945   0.27764   0.29722   0.30475
 Alpha virt. eigenvalues --    0.33240   0.36307   0.37848   0.41458   0.42845

 Mulliken charges:
               1
     1  C    0.051140
     2  O   -0.082384
     3  H    0.033750
     4  H    0.064663
     5  H    0.108072
     6  H   -0.175241
 Sum of Mulliken charges =   0.00000

 Dipole moment (field-independent basis, Debye):
    X=              1.0830    Y=              0.1489    Z=             -0.7763  Tot=              1.3408
 Quadrupole moment (field-independent basis, Debye-Ang):
   XX=            -12.8251   YY=            -13.3201   ZZ=            -12.9233
   XY=             -0.9035   XZ=              1.6791   YZ=             -0.1706

 Normal termination of Gaussian 09 at Wed Aug 26 21:13:57 2020.
