 Gaussian 09, Revision D.01,
 Gaussian 09:  ES64L-G09RevD.01 24-Apr-2013

 --------------------
 #p B2PLYPD3/Def2QZVP
 --------------------

 --------
 methanol
 --------
 Symbolic Z-matrix:
 Charge =  0 Multiplicity = 1

                         Standard orientation:
 ---------------------------------------------------------------------
 Center     Atomic      Atomic             Coordinates (Angstroms)
 Number     Number       Type             X           Y           Z
 ---------------------------------------------------------------------
      1          6           0       -0.661825   -0.021616    0.002858
      2          8           0        0.755804    0.103229   -0.006159
      3          1           0       -1.051584   -0.483751    0.931264
      4          1           0       -0.990775   -0.618658   -0.901517
      5          1           0       -1.113030    1.035322   -0.060251
      6          1           0        1.079911   -0.629048    0.062627
 ---------------------------------------------------------------------

 SCF Done:  E(RB2PLYPD3) =  -115.517760452     A.U. after   10 cycles
 E2(B2PLYPD3) =    -0.1451619981D+00 E(B2PLYPD3) =    -0.11566292244966D+03

 The electronic state is 1-A.
 Alpha  occ. eigenvalues --  -19.71146 -10.67230  -1.20443  -0.79518  -0.60654
 Alpha  occ. eigenvalues --   -0.51845  -0.49763  -0.41221  -0.35915
 Alpha virt. eigenvalues --    0.05359   0.08811   0.12070   0.12104   0.14618
 Alpha virt. eigenvalues --    0.17314   0.17915   0.28875   0.32635   0.33403
 Alpha virt. eigenvalues --    0.36989   0.38483   0.39885   0.40134   0.43127

 Mulliken charges:
               1
     1  C    0.061350
     2  O   -0.356687
     3  H    0.052449
     4  H    0.049524
     5  H    0.069680
     6  H    0.123684
 Sum of Mulliken charges =   0.00000

 Dipole moment (field-independent basis, Debye):
    X=             -0.9509    Y=             -1.3726    Z=              0.1536  Tot=              1.6768
 Quadrupole moment (field-independent basis, Debye-Ang):
   XX=            -13.1847   YY=            -12.4330   ZZ=            -13.6450
   XY=             -2.0520   XZ=              0.0887   YZ=             -0.0929

 Normal termination of Gaussian 09 at Thu Aug 27 00:06:28 2020.
