 Gaussian 09, Revision D.01,
 Gaussian 09:  ES64L-G09RevD.01 24-Apr-2013

 --------------------
 #p B2PLYPD3/Def2QZVP
 --------------------

 --------
 methanol
 --------
 Symbolic Z-matrix:
 Charge =  0 Multiplicity = 1

                         Standard orientation:
 ---------------------------------------------------------------------
 Center     Atomic      Atomic             Coordinates (Angstroms)
 Number     Number       Type             X           Y           Z
 ---------------------------------------------------------------------
      1          6           0       -0.646278   -0.028436   -0.005053
      2          8           0        0.758405    0.082097   -0.014075
      3          1           0       -1.021938   -0.484570    0.988231
      4          1           0       -1.069637   -0.605495   -0.908569
      5          1           0       -1.108819    1.114182   -0.018841
      6          1           0        1.010824   -0.510277    0.082098
 ---------------------------------------------------------------------

 SCF Done:  E(RB2PLYPD3) =  -115.336129794     A.U. after   11 cycles
 E2(B2PLYPD3) =    -0.1437944900D+00 E(B2PLYPD3) =    -0.11547992428433D+03

 The electronic state is 1-A.
 Alpha  occ. eigenvalues --  -19.69868 -10.68962  -1.27613  -0.81018  -0.62487
 Alpha  occ. eigenvalues --   -0.52064  -0.49930  -0.40840  -0.36673
 Alpha virt. eigenvalues --    0.05212   0.09285   0.11479   0.11796   0.14523
 Alpha virt. eigenvalues --    0.17165   0.17943   0.28231   0.32746   0.33066
 Alpha virt. eigenvalues --    0.34907   0.37734   0.39037   0.40564   0.43263

 Mulliken charges:
               1
     1  C    0.044948
     2  O   -0.200943
     3  H    0.050339
     4  H    0.057551
     5  H    0.062738
     6  H   -0.014633
 Sum of Mulliken charges =   0.00000

 Dipole moment (field-independent basis, Debye):
    X=             -0.9742    Y=             -1.2466    Z=              0.2074  Tot=              1.5957
 Quadrupole moment (field-independent basis, Debye-Ang):
   XX=            -13.3616   YY=            -12.6081   ZZ=            -13.4978
   XY=             -1.7268   XZ=              0.2839   YZ=             -0.0643

 Normal termination of Gaussian 09 at Wed Aug 26 11:03:22 2020.
