 Gaussian 09, Revision D.01,
 Gaussian 09:  ES64L-G09RevD.01 24-Apr-2013

 --------------------
 #p B2PLYPD3/Def2QZVP
 --------------------

 --------
 methanol
 --------
 Symbolic Z-matrix:
 Charge =  0 Multiplicity = 1

                         Standard orientation:
 ---------------------------------------------------------------------
 Center     Atomic      Atomic             Coordinates (Angstroms)
 Number     Number       Type             X           Y           Z
 ---------------------------------------------------------------------
      1          6           0        0.684406   -0.005864    0.007040
      2          8           0       -0.741492   -0.136164    0.015097
      3          1           0        1.109470    0.520258    0.858830
      4          1           0        1.015555    0.560665   -0.849369
      5          1           0        0.884644   -0.908076   -0.113043
      6          1           0       -1.184164    0.951650   -0.059434
 ---------------------------------------------------------------------

 SCF Done:  E(RB2PLYPD3) =  -115.495194919     A.U. after   11 cycles
 E2(B2PLYPD3) =    -0.1515083007D+00 E(B2PLYPD3) =    -0.11564670321925D+03

 The electronic state is 1-A.
 Alpha  occ. eigenvalues --  -19.73889 -10.63504  -1.12754  -0.79003  -0.57750
 Alpha  occ. eigenvalues --   -0.51093  -0.48792  -0.41355  -0.34746
 Alpha virt. eigenvalues --    0.02790   0.07765   0.12520   0.12688   0.14995
 Alpha virt. eigenvalues --    0.16633   0.18178   0.27357   0.29557   0.33324
 Alpha virt. eigenvalues --    0.33879   0.37598   0.40456   0.40638   0.43913

 Mulliken charges:
               1
     1  C    0.062849
     2  O   -0.494805
     3  H    0.052509
     4  H    0.037985
     5  H    0.093456
     6  H    0.248006
 Sum of Mulliken charges =   0.00000

 Dipole moment (field-independent basis, Debye):
    X=              0.9484    Y=              1.5940    Z=             -0.1562  Tot=              1.8614
 Quadrupole moment (field-independent basis, Debye-Ang):
   XX=            -13.1760   YY=            -11.6127   ZZ=            -13.9539
   XY=             -2.2486   XZ=              0.1843   YZ=              0.0168

 Normal termination of Gaussian 09 at Wed Aug 26 22:49:31 2020.
