 Gaussian 09, Revision D.01,
 Gaussian 09:  ES64L-G09RevD.01 24-Apr-2013

 --------------------
 #p B2PLYPD3/Def2QZVP
 --------------------

 --------
 methanol
 --------
 Symbolic Z-matrix:
 Charge =  0 Multiplicity = 1

                         Standard orientation:
 ---------------------------------------------------------------------
 Center     Atomic      Atomic             Coordinates (Angstroms)
 Number     Number       Type             X           Y           Z
 ---------------------------------------------------------------------
      1          6           0       -0.707032   -0.028758    0.002850
      2          8           0        0.761282    0.095165   -0.017975
      3          1           0       -1.006697   -0.404662    0.940107
      4          1           0       -0.953286   -0.776102   -0.794968
      5          1           0       -1.105854    1.105905   -0.143134
      6          1           0        1.217771   -0.513913    0.124695
 ---------------------------------------------------------------------

 SCF Done:  E(RB2PLYPD3) =  -115.485881143     A.U. after   11 cycles
 E2(B2PLYPD3) =    -0.1451879626D+00 E(B2PLYPD3) =    -0.11563106910530D+03

 The electronic state is 1-A.
 Alpha  occ. eigenvalues --  -19.69519 -10.67905  -1.18819  -0.80653  -0.60264
 Alpha  occ. eigenvalues --   -0.51835  -0.48584  -0.40016  -0.35722
 Alpha virt. eigenvalues --    0.05328   0.08781   0.11399   0.12218   0.14539
 Alpha virt. eigenvalues --    0.16658   0.17398   0.28885   0.30729   0.33189
 Alpha virt. eigenvalues --    0.35194   0.39059   0.39922   0.41094   0.42384

 Mulliken charges:
               1
     1  C    0.076753
     2  O   -0.368215
     3  H    0.063768
     4  H    0.061055
     5  H    0.080759
     6  H    0.085880
 Sum of Mulliken charges =   0.00000

 Dipole moment (field-independent basis, Debye):
    X=             -0.9997    Y=             -1.3147    Z=              0.3651  Tot=              1.6914
 Quadrupole moment (field-independent basis, Debye-Ang):
   XX=            -12.6814   YY=            -12.3993   ZZ=            -13.6398
   XY=             -2.0002   XZ=              0.2971   YZ=             -0.1383

 Normal termination of Gaussian 09 at Wed Aug 26 20:35:25 2020.
