 Gaussian 09, Revision D.01,
 Gaussian 09:  ES64L-G09RevD.01 24-Apr-2013

 --------------------
 #p B2PLYPD3/Def2QZVP
 --------------------

 --------
 methanol
 --------
 Symbolic Z-matrix:
 Charge =  0 Multiplicity = 1

                         Standard orientation:
 ---------------------------------------------------------------------
 Center     Atomic      Atomic             Coordinates (Angstroms)
 Number     Number       Type             X           Y           Z
 ---------------------------------------------------------------------
      1          6           0        0.668839    0.012763   -0.020331
      2          8           0       -0.745008   -0.204403    0.004598
      3          1           0        1.081703    0.457425    0.831138
      4          1           0        0.887095    0.561969   -0.796133
      5          1           0        1.212670   -0.652654   -0.008924
      6          1           0       -1.234442    1.191906    0.059124
 ---------------------------------------------------------------------

 SCF Done:  E(RB2PLYPD3) =  -115.373188906     A.U. after   11 cycles
 E2(B2PLYPD3) =    -0.1574760863D+00 E(B2PLYPD3) =    -0.11553066499222D+03

 The electronic state is 1-A.
 Alpha  occ. eigenvalues --  -19.75749 -10.60856  -1.11110  -0.82421  -0.55421
 Alpha  occ. eigenvalues --   -0.51583  -0.49917  -0.38634  -0.35144
 Alpha virt. eigenvalues --   -0.03230   0.07302   0.12690   0.12938   0.14368
 Alpha virt. eigenvalues --    0.18320   0.19083   0.21896   0.29533   0.32395
 Alpha virt. eigenvalues --    0.33380   0.38883   0.39917   0.41958   0.46084

 Mulliken charges:
               1
     1  C    0.059136
     2  O   -0.477991
     3  H    0.036019
     4  H    0.042003
     5  H    0.101938
     6  H    0.238895
 Sum of Mulliken charges =   0.00000

 Dipole moment (field-independent basis, Debye):
    X=              1.1339    Y=              1.7211    Z=              0.0264  Tot=              2.0612
 Quadrupole moment (field-independent basis, Debye-Ang):
   XX=            -12.7344   YY=            -11.4799   ZZ=            -13.9313
   XY=             -2.8039   XZ=              0.0275   YZ=             -0.0530

 Normal termination of Gaussian 09 at Wed Aug 26 18:35:56 2020.
