 Gaussian 09, Revision D.01,
 Gaussian 09:  ES64L-G09RevD.01 24-Apr-2013

 --------------------
 #p B2PLYPD3/Def2QZVP
 --------------------

 --------
 methanol
 --------
 Symbolic Z-matrix:
 Charge =  0 Multiplicity = 1

                         Standard orientation:
 ---------------------------------------------------------------------
 Center     Atomic      Atomic             Coordinates (Angstroms)
 Number     Number       Type             X           Y           Z
 ---------------------------------------------------------------------
      1          6           0       -0.683516   -0.006747   -0.013717
      2          8           0        0.738555    0.063214   -0.003477
      3          1           0       -1.107532   -0.419679    1.030796
      4          1           0       -0.937035   -0.800378   -0.844236
      5          1           0       -1.020022    1.126332   -0.180461
      6          1           0        1.257248   -0.371506    0.104016
 ---------------------------------------------------------------------

 SCF Done:  E(RB2PLYPD3) =  -115.376187419     A.U. after   11 cycles
 E2(B2PLYPD3) =    -0.1445172341D+00 E(B2PLYPD3) =    -0.11552070465306D+03

 The electronic state is 1-A.
 Alpha  occ. eigenvalues --  -19.68407 -10.70221  -1.22814  -0.82824  -0.60761
 Alpha  occ. eigenvalues --   -0.51316  -0.49615  -0.38326  -0.35229
 Alpha virt. eigenvalues --    0.05119   0.09171   0.11466   0.11728   0.14142
 Alpha virt. eigenvalues --    0.16511   0.17331   0.29159   0.31156   0.32492
 Alpha virt. eigenvalues --    0.36184   0.36653   0.38141   0.39986   0.42513

 Mulliken charges:
               1
     1  C    0.063298
     2  O   -0.248558
     3  H    0.045908
     4  H    0.057460
     5  H    0.094356
     6  H   -0.012464
 Sum of Mulliken charges =   0.00000

 Dipole moment (field-independent basis, Debye):
    X=             -0.6719    Y=             -0.9673    Z=              0.2110  Tot=              1.1965
 Quadrupole moment (field-independent basis, Debye-Ang):
   XX=            -12.4943   YY=            -12.6923   ZZ=            -13.7081
   XY=             -1.7330   XZ=              0.2719   YZ=             -0.0720

 Normal termination of Gaussian 09 at Wed Aug 26 22:52:27 2020.
