 Gaussian 09, Revision D.01,
 Gaussian 09:  ES64L-G09RevD.01 24-Apr-2013

 --------------------
 #p B2PLYPD3/Def2QZVP
 --------------------

 --------
 methanol
 --------
 Symbolic Z-matrix:
 Charge =  0 Multiplicity = 1

                         Standard orientation:
 ---------------------------------------------------------------------
 Center     Atomic      Atomic             Coordinates (Angstroms)
 Number     Number       Type             X           Y           Z
 ---------------------------------------------------------------------
      1          6           0        0.670918   -0.022774    0.011580
      2          8           0       -0.756294    0.094644   -0.022435
      3          1           0        1.035938   -0.814047   -0.763258
      4          1           0        0.969785   -0.281977    1.040765
      5          1           0        1.156963    1.011909   -0.257789
      6          1           0       -1.137839   -0.536389    0.090286
 ---------------------------------------------------------------------

 SCF Done:  E(RB2PLYPD3) =  -115.472382106     A.U. after   11 cycles
 E2(B2PLYPD3) =    -0.1445291756D+00 E(B2PLYPD3) =    -0.11561691128161D+03

 The electronic state is 1-A.
 Alpha  occ. eigenvalues --  -19.70123 -10.68133  -1.21713  -0.80534  -0.60940
 Alpha  occ. eigenvalues --   -0.51783  -0.49806  -0.40325  -0.36027
 Alpha virt. eigenvalues --    0.05383   0.08945   0.11811   0.12154   0.14304
 Alpha virt. eigenvalues --    0.17175   0.17801   0.28866   0.32186   0.32984
 Alpha virt. eigenvalues --    0.36084   0.37967   0.39784   0.40491   0.43026

 Mulliken charges:
               1
     1  C    0.061500
     2  O   -0.306686
     3  H    0.047599
     4  H    0.060541
     5  H    0.074786
     6  H    0.062260
 Sum of Mulliken charges =   0.00000

 Dipole moment (field-independent basis, Debye):
    X=              0.9236    Y=             -1.2552    Z=              0.2808  Tot=              1.5835
 Quadrupole moment (field-independent basis, Debye-Ang):
   XX=            -12.8941   YY=            -12.6581   ZZ=            -13.5461
   XY=              2.0598   XZ=             -0.3817   YZ=             -0.1358

 Normal termination of Gaussian 09 at Wed Aug 26 16:13:59 2020.
