 Gaussian 09, Revision D.01,
 Gaussian 09:  ES64L-G09RevD.01 24-Apr-2013

 --------------------
 #p B2PLYPD3/Def2QZVP
 --------------------

 --------
 methanol
 --------
 Symbolic Z-matrix:
 Charge =  0 Multiplicity = 1

                         Standard orientation:
 ---------------------------------------------------------------------
 Center     Atomic      Atomic             Coordinates (Angstroms)
 Number     Number       Type             X           Y           Z
 ---------------------------------------------------------------------
      1          6           0       -0.666101    0.008908   -0.001249
      2          8           0        0.755898   -0.125955   -0.008064
      3          1           0       -1.048370    0.610129   -0.848611
      4          1           0       -1.051417    0.468236    0.906092
      5          1           0       -1.066751   -0.947353   -0.041504
      6          1           0        1.115957    0.823182    0.056026
 ---------------------------------------------------------------------

 SCF Done:  E(RB2PLYPD3) =  -115.546693277     A.U. after   10 cycles
 E2(B2PLYPD3) =    -0.1484365823D+00 E(B2PLYPD3) =    -0.11569512985890D+03

 The electronic state is 1-A.
 Alpha  occ. eigenvalues --  -19.73231 -10.65152  -1.14994  -0.78674  -0.57883
 Alpha  occ. eigenvalues --   -0.51226  -0.49995  -0.41619  -0.35256
 Alpha virt. eigenvalues --    0.04541   0.08016   0.12378   0.12584   0.14907
 Alpha virt. eigenvalues --    0.17374   0.18184   0.29096   0.32500   0.33381
 Alpha virt. eigenvalues --    0.33902   0.38714   0.40251   0.40654   0.43963

 Mulliken charges:
               1
     1  C    0.072828
     2  O   -0.471692
     3  H    0.042979
     4  H    0.044278
     5  H    0.072858
     6  H    0.238749
 Sum of Mulliken charges =   0.00000

 Dipole moment (field-independent basis, Debye):
    X=             -0.9616    Y=              1.5234    Z=              0.1260  Tot=              1.8059
 Quadrupole moment (field-independent basis, Debye-Ang):
   XX=            -13.1448   YY=            -12.0343   ZZ=            -13.8871
   XY=              2.2830   XZ=              0.1127   YZ=              0.0721

 Normal termination of Gaussian 09 at Thu Aug 27 00:10:15 2020.
