 Gaussian 09, Revision D.01,
 Gaussian 09:  ES64L-G09RevD.01 24-Apr-2013

 --------------------
 #p B2PLYPD3/Def2QZVP
 --------------------

 --------
 methanol
 --------
 Symbolic Z-matrix:
 Charge =  0 Multiplicity = 1

                         Standard orientation:
 ---------------------------------------------------------------------
 Center     Atomic      Atomic             Coordinates (Angstroms)
 Number     Number       Type             X           Y           Z
 ---------------------------------------------------------------------
      1          6           0       -0.700395    0.016320    0.011780
      2          8           0        0.748537   -0.180522   -0.015410
      3          1           0       -1.174075    0.537209   -0.723923
      4          1           0       -0.906332    0.551390    0.734865
      5          1           0       -0.948349   -0.894420    0.042856
      6          1           0        1.242834    1.152079   -0.001194
 ---------------------------------------------------------------------

 SCF Done:  E(RB2PLYPD3) =  -115.409006127     A.U. after   12 cycles
 E2(B2PLYPD3) =    -0.1569945092D+00 E(B2PLYPD3) =    -0.11556600063577D+03

 The electronic state is 1-A.
 Alpha  occ. eigenvalues --  -19.75310 -10.61326  -1.10486  -0.81007  -0.57976
 Alpha  occ. eigenvalues --   -0.51922  -0.46945  -0.40189  -0.35089
 Alpha virt. eigenvalues --   -0.01459   0.07425   0.12178   0.13291   0.14629
 Alpha virt. eigenvalues --    0.16865   0.18063   0.22233   0.29186   0.32049
 Alpha virt. eigenvalues --    0.33931   0.38128   0.39586   0.42393   0.46248

 Mulliken charges:
               1
     1  C    0.084652
     2  O   -0.491083
     3  H    0.042762
     4  H    0.057660
     5  H    0.083865
     6  H    0.222144
 Sum of Mulliken charges =   0.00000

 Dipole moment (field-independent basis, Debye):
    X=             -1.2266    Y=              1.7429    Z=              0.1029  Tot=              2.1337
 Quadrupole moment (field-independent basis, Debye-Ang):
   XX=            -13.0502   YY=            -11.0562   ZZ=            -14.1906
   XY=              2.2353   XZ=              0.1087   YZ=              0.0626

 Normal termination of Gaussian 09 at Wed Aug 26 23:05:06 2020.
