 Gaussian 09, Revision D.01,
 Gaussian 09:  ES64L-G09RevD.01 24-Apr-2013

 --------------------
 #p B2PLYPD3/Def2QZVP
 --------------------

 --------
 methanol
 --------
 Symbolic Z-matrix:
 Charge =  0 Multiplicity = 1

                         Standard orientation:
 ---------------------------------------------------------------------
 Center     Atomic      Atomic             Coordinates (Angstroms)
 Number     Number       Type             X           Y           Z
 ---------------------------------------------------------------------
      1          6           0        0.667902   -0.009691    0.004347
      2          8           0       -0.757575    0.098482   -0.004975
      3          1           0        1.079933   -0.610825   -0.875686
      4          1           0        1.025639   -0.514459    0.929890
      5          1           0        1.056568    1.044402   -0.046417
      6          1           0       -1.108949   -0.648825    0.005935
 ---------------------------------------------------------------------

 SCF Done:  E(RB2PLYPD3) =  -115.528479514     A.U. after   10 cycles
 E2(B2PLYPD3) =    -0.1455323957D+00 E(B2PLYPD3) =    -0.11567401190936D+03

 The electronic state is 1-A.
 Alpha  occ. eigenvalues --  -19.71338 -10.67161  -1.19352  -0.79467  -0.60417
 Alpha  occ. eigenvalues --   -0.51066  -0.49822  -0.41524  -0.35665
 Alpha virt. eigenvalues --    0.05341   0.08665   0.12047   0.12202   0.14891
 Alpha virt. eigenvalues --    0.17055   0.17844   0.29033   0.32694   0.33262
 Alpha virt. eigenvalues --    0.37489   0.38777   0.39339   0.39938   0.42497

 Mulliken charges:
               1
     1  C    0.063606
     2  O   -0.381534
     3  H    0.045103
     4  H    0.051293
     5  H    0.076586
     6  H    0.144946
 Sum of Mulliken charges =   0.00000

 Dipole moment (field-independent basis, Debye):
    X=              0.9263    Y=             -1.3729    Z=              0.0471  Tot=              1.6568
 Quadrupole moment (field-independent basis, Debye-Ang):
   XX=            -13.0999   YY=            -12.2962   ZZ=            -13.7932
   XY=              2.0443   XZ=             -0.0479   YZ=             -0.0431

 Normal termination of Gaussian 09 at Wed Aug 26 19:23:47 2020.
