 Gaussian 09, Revision D.01,
 Gaussian 09:  ES64L-G09RevD.01 24-Apr-2013

 --------------------
 #p B2PLYPD3/Def2QZVP
 --------------------

 --------
 methanol
 --------
 Symbolic Z-matrix:
 Charge =  0 Multiplicity = 1

                         Standard orientation:
 ---------------------------------------------------------------------
 Center     Atomic      Atomic             Coordinates (Angstroms)
 Number     Number       Type             X           Y           Z
 ---------------------------------------------------------------------
      1          6           0        0.655376   -0.026793    0.000956
      2          8           0       -0.746423    0.113451   -0.000574
      3          1           0        1.022743   -0.567940   -0.874140
      4          1           0        1.054611   -0.500029    0.893838
      5          1           0        1.063507    1.036742   -0.036383
      6          1           0       -1.101733   -0.715624    0.015539
 ---------------------------------------------------------------------

 SCF Done:  E(RB2PLYPD3) =  -115.548476327     A.U. after   10 cycles
 E2(B2PLYPD3) =    -0.1463693631D+00 E(B2PLYPD3) =    -0.11569484568965D+03

 The electronic state is 1-A.
 Alpha  occ. eigenvalues --  -19.72224 -10.66072  -1.18017  -0.78819  -0.59973
 Alpha  occ. eigenvalues --   -0.52085  -0.49495  -0.41063  -0.35690
 Alpha virt. eigenvalues --    0.05165   0.08492   0.12133   0.12401   0.14995
 Alpha virt. eigenvalues --    0.17198   0.18135   0.29031   0.33407   0.33759
 Alpha virt. eigenvalues --    0.37102   0.37560   0.40049   0.41063   0.43350

 Mulliken charges:
               1
     1  C    0.063173
     2  O   -0.424261
     3  H    0.048993
     4  H    0.050805
     5  H    0.063429
     6  H    0.197860
 Sum of Mulliken charges =   0.00000

 Dipole moment (field-independent basis, Debye):
    X=              0.8575    Y=             -1.4988    Z=              0.0333  Tot=              1.7271
 Quadrupole moment (field-independent basis, Debye-Ang):
   XX=            -13.1539   YY=            -12.2716   ZZ=            -13.7644
   XY=              2.0630   XZ=             -0.0063   YZ=             -0.0213

 Normal termination of Gaussian 09 at Thu Aug 27 00:09:09 2020.
