 Gaussian 09, Revision D.01,
 Gaussian 09:  ES64L-G09RevD.01 24-Apr-2013

 --------------------
 #p B2PLYPD3/Def2QZVP
 --------------------

 --------
 methanol
 --------
 Symbolic Z-matrix:
 Charge =  0 Multiplicity = 1

                         Standard orientation:
 ---------------------------------------------------------------------
 Center     Atomic      Atomic             Coordinates (Angstroms)
 Number     Number       Type             X           Y           Z
 ---------------------------------------------------------------------
      1          6           0       -0.665719    0.023740   -0.010976
      2          8           0        0.748186   -0.164491    0.004966
      3          1           0       -0.997551    0.490798   -0.837679
      4          1           0       -1.017417    0.522049    0.858066
      5          1           0       -1.129699   -0.838659    0.018747
      6          1           0        1.153494    0.999300   -0.013010
 ---------------------------------------------------------------------

 SCF Done:  E(RB2PLYPD3) =  -115.491372678     A.U. after   11 cycles
 E2(B2PLYPD3) =    -0.1521153876D+00 E(B2PLYPD3) =    -0.11564348806537D+03

 The electronic state is 1-A.
 Alpha  occ. eigenvalues --  -19.74508 -10.62767  -1.12435  -0.79639  -0.55340
 Alpha  occ. eigenvalues --   -0.52607  -0.49804  -0.40462  -0.35239
 Alpha virt. eigenvalues --    0.01835   0.07630   0.12576   0.12948   0.14588
 Alpha virt. eigenvalues --    0.17923   0.18449   0.25480   0.29461   0.33438
 Alpha virt. eigenvalues --    0.33818   0.39062   0.41331   0.42188   0.43438

 Mulliken charges:
               1
     1  C    0.093735
     2  O   -0.493743
     3  H    0.044603
     4  H    0.041134
     5  H    0.060499
     6  H    0.253771
 Sum of Mulliken charges =   0.00000

 Dipole moment (field-independent basis, Debye):
    X=             -1.0533    Y=              1.6664    Z=             -0.0651  Tot=              1.9725
 Quadrupole moment (field-independent basis, Debye-Ang):
   XX=            -13.0548   YY=            -11.7816   ZZ=            -13.8209
   XY=              2.5188   XZ=             -0.0036   YZ=             -0.0736

 Normal termination of Gaussian 09 at Wed Aug 26 12:54:26 2020.
