 Gaussian 09, Revision D.01,
 Gaussian 09:  ES64L-G09RevD.01 24-Apr-2013

 --------------------
 #p B2PLYPD3/Def2QZVP
 --------------------

 --------
 methanol
 --------
 Symbolic Z-matrix:
 Charge =  0 Multiplicity = 1

                         Standard orientation:
 ---------------------------------------------------------------------
 Center     Atomic      Atomic             Coordinates (Angstroms)
 Number     Number       Type             X           Y           Z
 ---------------------------------------------------------------------
      1          6           0       -0.698626   -0.039842    0.015297
      2          8           0        0.761989    0.129036   -0.023411
      3          1           0       -0.987996   -0.259830    0.872445
      4          1           0       -1.011958   -0.804313   -0.699822
      5          1           0       -1.068157    1.048138   -0.201769
      6          1           0        1.163955   -0.777231    0.124653
 ---------------------------------------------------------------------

 SCF Done:  E(RB2PLYPD3) =  -115.522500533     A.U. after   11 cycles
 E2(B2PLYPD3) =    -0.1486787161D+00 E(B2PLYPD3) =    -0.11567117924893D+03

 The electronic state is 1-A.
 Alpha  occ. eigenvalues --  -19.72576 -10.65004  -1.13686  -0.79787  -0.57726
 Alpha  occ. eigenvalues --   -0.53151  -0.47327  -0.41174  -0.35730
 Alpha virt. eigenvalues --    0.04663   0.08052   0.11614   0.12634   0.15000
 Alpha virt. eigenvalues --    0.16752   0.18111   0.28823   0.31758   0.33206
 Alpha virt. eigenvalues --    0.34404   0.36398   0.39296   0.41885   0.44605

 Mulliken charges:
               1
     1  C    0.074950
     2  O   -0.490314
     3  H    0.070501
     4  H    0.052265
     5  H    0.064466
     6  H    0.228133
 Sum of Mulliken charges =   0.00000

 Dipole moment (field-independent basis, Debye):
    X=             -1.0520    Y=             -1.6156    Z=              0.3884  Tot=              1.9667
 Quadrupole moment (field-independent basis, Debye-Ang):
   XX=            -13.0812   YY=            -11.9517   ZZ=            -13.7899
   XY=             -2.1207   XZ=              0.1790   YZ=             -0.1537

 Normal termination of Gaussian 09 at Wed Aug 26 22:13:15 2020.
