 Gaussian 09, Revision D.01,
 Gaussian 09:  ES64L-G09RevD.01 24-Apr-2013

 --------------------
 #p B2PLYPD3/Def2QZVP
 --------------------

 --------
 methanol
 --------
 Symbolic Z-matrix:
 Charge =  0 Multiplicity = 1

                         Standard orientation:
 ---------------------------------------------------------------------
 Center     Atomic      Atomic             Coordinates (Angstroms)
 Number     Number       Type             X           Y           Z
 ---------------------------------------------------------------------
      1          6           0        0.664168    0.022953    0.003742
      2          8           0       -0.748207   -0.143098   -0.006592
      3          1           0        1.003993    0.472202    0.887976
      4          1           0        1.038141    0.601324   -0.826210
      5          1           0        1.132245   -0.921243   -0.054261
      6          1           0       -1.173728    0.854779    0.022774
 ---------------------------------------------------------------------

 SCF Done:  E(RB2PLYPD3) =  -115.536811283     A.U. after   11 cycles
 E2(B2PLYPD3) =    -0.1493233968D+00 E(B2PLYPD3) =    -0.11568613467939D+03

 The electronic state is 1-A.
 Alpha  occ. eigenvalues --  -19.73581 -10.64439  -1.13984  -0.78669  -0.56966
 Alpha  occ. eigenvalues --   -0.51940  -0.49883  -0.40795  -0.35220
 Alpha virt. eigenvalues --    0.03935   0.07799   0.12555   0.12712   0.14813
 Alpha virt. eigenvalues --    0.17639   0.18234   0.28990   0.30500   0.33432
 Alpha virt. eigenvalues --    0.33863   0.39275   0.40147   0.41612   0.43682

 Mulliken charges:
               1
     1  C    0.079509
     2  O   -0.486623
     3  H    0.047634
     4  H    0.042515
     5  H    0.066266
     6  H    0.250700
 Sum of Mulliken charges =   0.00000

 Dipole moment (field-independent basis, Debye):
    X=              0.8994    Y=              1.6092    Z=              0.0722  Tot=              1.8449
 Quadrupole moment (field-independent basis, Debye-Ang):
   XX=            -12.8768   YY=            -12.0817   ZZ=            -13.8817
   XY=             -2.4396   XZ=             -0.0729   YZ=              0.0485

 Normal termination of Gaussian 09 at Wed Aug 26 10:37:58 2020.
