 Gaussian 09, Revision D.01,
 Gaussian 09:  ES64L-G09RevD.01 24-Apr-2013

 --------------------
 #p B2PLYPD3/Def2QZVP
 --------------------

 --------
 methanol
 --------
 Symbolic Z-matrix:
 Charge =  0 Multiplicity = 1

                         Standard orientation:
 ---------------------------------------------------------------------
 Center     Atomic      Atomic             Coordinates (Angstroms)
 Number     Number       Type             X           Y           Z
 ---------------------------------------------------------------------
      1          6           0        0.665930   -0.025674    0.001917
      2          8           0       -0.742753    0.114522   -0.002974
      3          1           0        1.031017   -0.559106   -0.888846
      4          1           0        0.971494   -0.542305    0.912740
      5          1           0        1.098508    1.011100   -0.004012
      6          1           0       -1.154575   -0.671821   -0.007592
 ---------------------------------------------------------------------

 SCF Done:  E(RB2PLYPD3) =  -115.547338512     A.U. after   10 cycles
 E2(B2PLYPD3) =    -0.1459669628D+00 E(B2PLYPD3) =    -0.11569330547492D+03

 The electronic state is 1-A.
 Alpha  occ. eigenvalues --  -19.71630 -10.66186  -1.17705  -0.79185  -0.59672
 Alpha  occ. eigenvalues --   -0.52145  -0.49868  -0.40638  -0.35489
 Alpha virt. eigenvalues --    0.05276   0.08536   0.12284   0.12334   0.14738
 Alpha virt. eigenvalues --    0.17196   0.17942   0.29117   0.33098   0.33629
 Alpha virt. eigenvalues --    0.36915   0.38620   0.39854   0.40863   0.43608

 Mulliken charges:
               1
     1  C    0.069038
     2  O   -0.431121
     3  H    0.049266
     4  H    0.051057
     5  H    0.070594
     6  H    0.191166
 Sum of Mulliken charges =   0.00000

 Dipole moment (field-independent basis, Debye):
    X=              0.8252    Y=             -1.4448    Z=              0.0009  Tot=              1.6639
 Quadrupole moment (field-independent basis, Debye-Ang):
   XX=            -12.9303   YY=            -12.3892   ZZ=            -13.6894
   XY=              2.2131   XZ=             -0.0359   YZ=              0.0009

 Normal termination of Gaussian 09 at Thu Aug 27 00:00:06 2020.
