 Gaussian 09, Revision D.01,
 Gaussian 09:  ES64L-G09RevD.01 24-Apr-2013

 --------------------
 #p B2PLYPD3/Def2QZVP
 --------------------

 --------
 methanol
 --------
 Symbolic Z-matrix:
 Charge =  0 Multiplicity = 1

                         Standard orientation:
 ---------------------------------------------------------------------
 Center     Atomic      Atomic             Coordinates (Angstroms)
 Number     Number       Type             X           Y           Z
 ---------------------------------------------------------------------
      1          6           0        0.671961    0.020200    0.004128
      2          8           0       -0.753584   -0.134102   -0.006252
      3          1           0        1.089712    0.447708    0.875780
      4          1           0        0.999338    0.619167   -0.849524
      5          1           0        1.077656   -0.948346   -0.071591
      6          1           0       -1.169795    0.833086    0.070584
 ---------------------------------------------------------------------

 SCF Done:  E(RB2PLYPD3) =  -115.541586754     A.U. after   11 cycles
 E2(B2PLYPD3) =    -0.1490697145D+00 E(B2PLYPD3) =    -0.11569065646870D+03

 The electronic state is 1-A.
 Alpha  occ. eigenvalues --  -19.73380 -10.64814  -1.14015  -0.78712  -0.57324
 Alpha  occ. eigenvalues --   -0.51646  -0.49462  -0.41161  -0.35282
 Alpha virt. eigenvalues --    0.04271   0.07856   0.12504   0.12561   0.14890
 Alpha virt. eigenvalues --    0.17282   0.18294   0.29031   0.31628   0.33006
 Alpha virt. eigenvalues --    0.33963   0.38926   0.39668   0.41397   0.44000

 Mulliken charges:
               1
     1  C    0.074776
     2  O   -0.484269
     3  H    0.049528
     4  H    0.045037
     5  H    0.069802
     6  H    0.245125
 Sum of Mulliken charges =   0.00000

 Dipole moment (field-independent basis, Debye):
    X=              0.9273    Y=              1.5673    Z=              0.1538  Tot=              1.8276
 Quadrupole moment (field-independent basis, Debye-Ang):
   XX=            -12.9208   YY=            -12.0785   ZZ=            -13.8767
   XY=             -2.3585   XZ=             -0.0602   YZ=              0.1075

 Normal termination of Gaussian 09 at Thu Aug 27 00:12:09 2020.
