 Gaussian 09, Revision D.01,
 Gaussian 09:  ES64L-G09RevD.01 24-Apr-2013

 --------------------
 #p B2PLYPD3/Def2QZVP
 --------------------

 --------
 methanol
 --------
 Symbolic Z-matrix:
 Charge =  0 Multiplicity = 1

                         Standard orientation:
 ---------------------------------------------------------------------
 Center     Atomic      Atomic             Coordinates (Angstroms)
 Number     Number       Type             X           Y           Z
 ---------------------------------------------------------------------
      1          6           0       -0.665358    0.020345    0.008326
      2          8           0        0.750448   -0.142166   -0.014161
      3          1           0       -1.094246    0.604531   -0.821146
      4          1           0       -1.004170    0.477885    0.863471
      5          1           0       -1.107787   -0.936507   -0.026795
      6          1           0        1.194762    0.869344    0.047797
 ---------------------------------------------------------------------

 SCF Done:  E(RB2PLYPD3) =  -115.530837610     A.U. after   11 cycles
 E2(B2PLYPD3) =    -0.1498671002D+00 E(B2PLYPD3) =    -0.11568070471063D+03

 The electronic state is 1-A.
 Alpha  occ. eigenvalues --  -19.73839 -10.64462  -1.13619  -0.78689  -0.56968
 Alpha  occ. eigenvalues --   -0.51403  -0.49674  -0.40920  -0.35171
 Alpha virt. eigenvalues --    0.03692   0.07669   0.12550   0.12721   0.14981
 Alpha virt. eigenvalues --    0.17465   0.18283   0.28738   0.30096   0.33431
 Alpha virt. eigenvalues --    0.33905   0.38965   0.39722   0.41165   0.44025

 Mulliken charges:
               1
     1  C    0.079374
     2  O   -0.487975
     3  H    0.040562
     4  H    0.047967
     5  H    0.067449
     6  H    0.252623
 Sum of Mulliken charges =   0.00000

 Dipole moment (field-independent basis, Debye):
    X=             -0.8778    Y=              1.6156    Z=              0.1733  Tot=              1.8468
 Quadrupole moment (field-independent basis, Debye-Ang):
   XX=            -12.7961   YY=            -12.0245   ZZ=            -13.9843
   XY=              2.4229   XZ=              0.1149   YZ=              0.1111

 Normal termination of Gaussian 09 at Wed Aug 26 19:47:56 2020.
