 Gaussian 09, Revision D.01,
 Gaussian 09:  ES64L-G09RevD.01 24-Apr-2013

 --------------------
 #p B2PLYPD3/Def2QZVP
 --------------------

 --------
 methanol
 --------
 Symbolic Z-matrix:
 Charge =  0 Multiplicity = 1

                         Standard orientation:
 ---------------------------------------------------------------------
 Center     Atomic      Atomic             Coordinates (Angstroms)
 Number     Number       Type             X           Y           Z
 ---------------------------------------------------------------------
      1          6           0        0.683376    0.039655    0.004221
      2          8           0       -0.719055   -0.173611   -0.002453
      3          1           0        1.018248    0.454475    0.775081
      4          1           0        0.876002    0.684654   -0.731742
      5          1           0        1.073065   -0.924650   -0.102223
      6          1           0       -1.315135    0.936479    0.053182
 ---------------------------------------------------------------------

 SCF Done:  E(RB2PLYPD3) =  -115.471080816     A.U. after   11 cycles
 E2(B2PLYPD3) =    -0.1520863183D+00 E(B2PLYPD3) =    -0.11562316713458D+03

 The electronic state is 1-A.
 Alpha  occ. eigenvalues --  -19.73802 -10.61912  -1.12072  -0.79770  -0.56704
 Alpha  occ. eigenvalues --   -0.53431  -0.48606  -0.39942  -0.34649
 Alpha virt. eigenvalues --    0.01500   0.07721   0.12327   0.13210   0.15067
 Alpha virt. eigenvalues --    0.17117   0.17795   0.25172   0.29687   0.33001
 Alpha virt. eigenvalues --    0.34630   0.38565   0.39351   0.43782   0.45829

 Mulliken charges:
               1
     1  C    0.098900
     2  O   -0.504803
     3  H    0.047869
     4  H    0.041597
     5  H    0.070912
     6  H    0.245524
 Sum of Mulliken charges =   0.00000

 Dipole moment (field-independent basis, Debye):
    X=              0.8514    Y=              1.7342    Z=              0.1267  Tot=              1.9361
 Quadrupole moment (field-independent basis, Debye-Ang):
   XX=            -12.5102   YY=            -11.6560   ZZ=            -13.9839
   XY=             -2.5440   XZ=              0.0554   YZ=              0.0881

 Normal termination of Gaussian 09 at Wed Aug 26 23:40:15 2020.
