 Gaussian 09, Revision D.01,
 Gaussian 09:  ES64L-G09RevD.01 24-Apr-2013

 --------------------
 #p B2PLYPD3/Def2QZVP
 --------------------

 --------
 methanol
 --------
 Symbolic Z-matrix:
 Charge =  0 Multiplicity = 1

                         Standard orientation:
 ---------------------------------------------------------------------
 Center     Atomic      Atomic             Coordinates (Angstroms)
 Number     Number       Type             X           Y           Z
 ---------------------------------------------------------------------
      1          6           0        0.672342    0.004602   -0.021188
      2          8           0       -0.737812   -0.161258    0.017411
      3          1           0        1.023786    0.608535    0.850373
      4          1           0        0.966086    0.496460   -0.818173
      5          1           0        1.071845   -0.832242    0.024339
      6          1           0       -1.193276    0.989701   -0.068698
 ---------------------------------------------------------------------

 SCF Done:  E(RB2PLYPD3) =  -115.475241086     A.U. after   11 cycles
 E2(B2PLYPD3) =    -0.1520220088D+00 E(B2PLYPD3) =    -0.11562726309486D+03

 The electronic state is 1-A.
 Alpha  occ. eigenvalues --  -19.74264 -10.62513  -1.12470  -0.79825  -0.56800
 Alpha  occ. eigenvalues --   -0.51412  -0.50259  -0.40810  -0.34605
 Alpha virt. eigenvalues --    0.01641   0.07713   0.12646   0.12900   0.14787
 Alpha virt. eigenvalues --    0.17663   0.18052   0.25445   0.29650   0.33028
 Alpha virt. eigenvalues --    0.34094   0.38293   0.41118   0.41757   0.44742

 Mulliken charges:
               1
     1  C    0.089623
     2  O   -0.496268
     3  H    0.033357
     4  H    0.042651
     5  H    0.077265
     6  H    0.253373
 Sum of Mulliken charges =   0.00000

 Dipole moment (field-independent basis, Debye):
    X=              0.9581    Y=              1.6366    Z=             -0.2461  Tot=              1.9123
 Quadrupole moment (field-independent basis, Debye-Ang):
   XX=            -12.9905   YY=            -11.6290   ZZ=            -13.9278
   XY=             -2.5897   XZ=              0.0593   YZ=             -0.2087

 Normal termination of Gaussian 09 at Wed Aug 26 14:17:24 2020.
