 Gaussian 09, Revision D.01,
 Gaussian 09:  ES64L-G09RevD.01 24-Apr-2013

 --------------------
 #p B2PLYPD3/Def2QZVP
 --------------------

 --------
 methanol
 --------
 Symbolic Z-matrix:
 Charge =  0 Multiplicity = 1

                         Standard orientation:
 ---------------------------------------------------------------------
 Center     Atomic      Atomic             Coordinates (Angstroms)
 Number     Number       Type             X           Y           Z
 ---------------------------------------------------------------------
      1          6           0        0.651679    0.026916    0.012807
      2          8           0       -0.752763   -0.139271   -0.031949
      3          1           0        0.951200    0.291239    0.998200
      4          1           0        1.101741    0.687625   -0.799947
      5          1           0        1.206273   -0.853471   -0.141496
      6          1           0       -1.147185    0.827280    0.121992
 ---------------------------------------------------------------------

 SCF Done:  E(RB2PLYPD3) =  -115.535573296     A.U. after   11 cycles
 E2(B2PLYPD3) =    -0.1491836654D+00 E(B2PLYPD3) =    -0.11568475696142D+03

 The electronic state is 1-A.
 Alpha  occ. eigenvalues --  -19.73731 -10.65234  -1.14903  -0.78463  -0.56792
 Alpha  occ. eigenvalues --   -0.52264  -0.50392  -0.39836  -0.35498
 Alpha virt. eigenvalues --    0.04235   0.07642   0.12111   0.13089   0.14202
 Alpha virt. eigenvalues --    0.18162   0.18759   0.28697   0.30839   0.33151
 Alpha virt. eigenvalues --    0.33853   0.38214   0.41133   0.41244   0.42875

 Mulliken charges:
               1
     1  C    0.061872
     2  O   -0.470875
     3  H    0.053321
     4  H    0.042275
     5  H    0.061074
     6  H    0.252332
 Sum of Mulliken charges =   0.00000

 Dipole moment (field-independent basis, Debye):
    X=              0.8767    Y=              1.4896    Z=              0.3092  Tot=              1.7559
 Quadrupole moment (field-independent basis, Debye-Ang):
   XX=            -12.8780   YY=            -12.4953   ZZ=            -13.7265
   XY=             -2.5165   XZ=             -0.4489   YZ=              0.1676

 Normal termination of Gaussian 09 at Wed Aug 26 23:55:36 2020.
