 Gaussian 09, Revision D.01,
 Gaussian 09:  ES64L-G09RevD.01 24-Apr-2013

 --------------------
 #p B2PLYPD3/Def2QZVP
 --------------------

 --------
 methanol
 --------
 Symbolic Z-matrix:
 Charge =  0 Multiplicity = 1

                         Standard orientation:
 ---------------------------------------------------------------------
 Center     Atomic      Atomic             Coordinates (Angstroms)
 Number     Number       Type             X           Y           Z
 ---------------------------------------------------------------------
      1          6           0       -0.703909   -0.052391    0.017769
      2          8           0        0.764134    0.073127   -0.031555
      3          1           0       -0.966983   -0.218566    1.035064
      4          1           0       -1.077279   -0.784950   -0.772436
      5          1           0       -1.048638    1.157716   -0.256336
      6          1           0        1.203283   -0.424868    0.139534
 ---------------------------------------------------------------------

 SCF Done:  E(RB2PLYPD3) =  -115.380108643     A.U. after   11 cycles
 E2(B2PLYPD3) =    -0.1446794167D+00 E(B2PLYPD3) =    -0.11552478805957D+03

 The electronic state is 1-A.
 Alpha  occ. eigenvalues --  -19.68598 -10.69258  -1.22440  -0.81660  -0.60992
 Alpha  occ. eigenvalues --   -0.52876  -0.47442  -0.38875  -0.36679
 Alpha virt. eigenvalues --    0.05102   0.09084   0.10938   0.11887   0.14111
 Alpha virt. eigenvalues --    0.16420   0.18068   0.28462   0.30408   0.33034
 Alpha virt. eigenvalues --    0.33614   0.38052   0.40502   0.41347   0.41981

 Mulliken charges:
               1
     1  C    0.051495
     2  O   -0.263084
     3  H    0.077684
     4  H    0.076497
     5  H    0.067266
     6  H   -0.009858
 Sum of Mulliken charges =   0.00000

 Dipole moment (field-independent basis, Debye):
    X=             -0.9897    Y=             -1.2100    Z=              0.4714  Tot=              1.6327
 Quadrupole moment (field-independent basis, Debye-Ang):
   XX=            -12.7162   YY=            -12.7905   ZZ=            -13.2921
   XY=             -1.5821   XZ=              0.5741   YZ=             -0.0484

 Normal termination of Gaussian 09 at Wed Aug 26 22:42:58 2020.
