 Gaussian 09, Revision D.01,
 Gaussian 09:  ES64L-G09RevD.01 24-Apr-2013

 --------------------
 #p B2PLYPD3/Def2QZVP
 --------------------

 --------
 methanol
 --------
 Symbolic Z-matrix:
 Charge =  0 Multiplicity = 1

                         Standard orientation:
 ---------------------------------------------------------------------
 Center     Atomic      Atomic             Coordinates (Angstroms)
 Number     Number       Type             X           Y           Z
 ---------------------------------------------------------------------
      1          6           0       -0.670137   -0.030100   -0.005658
      2          8           0        0.744790    0.124209   -0.004312
      3          1           0       -0.977223   -0.514211    0.903288
      4          1           0       -0.995985   -0.586426   -0.847981
      5          1           0       -1.108820    1.010406   -0.011560
      6          1           0        1.144532   -0.722843    0.024698
 ---------------------------------------------------------------------

 SCF Done:  E(RB2PLYPD3) =  -115.550894645     A.U. after   10 cycles
 E2(B2PLYPD3) =    -0.1467743965D+00 E(B2PLYPD3) =    -0.11569766904155D+03

 The electronic state is 1-A.
 Alpha  occ. eigenvalues --  -19.72066 -10.65565  -1.16392  -0.78900  -0.58999
 Alpha  occ. eigenvalues --   -0.52514  -0.49373  -0.40876  -0.35457
 Alpha virt. eigenvalues --    0.05073   0.08393   0.12236   0.12435   0.14797
 Alpha virt. eigenvalues --    0.17273   0.17901   0.29203   0.33227   0.33347
 Alpha virt. eigenvalues --    0.35853   0.38126   0.40100   0.41603   0.44253

 Mulliken charges:
               1
     1  C    0.075269
     2  O   -0.457336
     3  H    0.049388
     4  H    0.052243
     5  H    0.067135
     6  H    0.213300
 Sum of Mulliken charges =   0.00000

 Dipole moment (field-independent basis, Debye):
    X=             -0.8892    Y=             -1.5364    Z=              0.0481  Tot=              1.7758
 Quadrupole moment (field-independent basis, Debye-Ang):
   XX=            -13.0282   YY=            -12.2295   ZZ=            -13.7198
   XY=             -2.2234   XZ=              0.0939   YZ=              0.0099

 Normal termination of Gaussian 09 at Thu Aug 27 00:07:34 2020.
