 Gaussian 09, Revision D.01,
 Gaussian 09:  ES64L-G09RevD.01 24-Apr-2013

 --------------------
 #p B2PLYPD3/Def2QZVP
 --------------------

 --------
 methanol
 --------
 Symbolic Z-matrix:
 Charge =  0 Multiplicity = 1

                         Standard orientation:
 ---------------------------------------------------------------------
 Center     Atomic      Atomic             Coordinates (Angstroms)
 Number     Number       Type             X           Y           Z
 ---------------------------------------------------------------------
      1          6           0        0.658930    0.024791    0.002328
      2          8           0       -0.737115   -0.146179   -0.010183
      3          1           0        0.983254    0.461863    0.892487
      4          1           0        1.024737    0.590636   -0.836086
      5          1           0        1.109011   -0.901018   -0.033732
      6          1           0       -1.173664    0.869205    0.044831
 ---------------------------------------------------------------------

 SCF Done:  E(RB2PLYPD3) =  -115.531152931     A.U. after   11 cycles
 E2(B2PLYPD3) =    -0.1493732748D+00 E(B2PLYPD3) =    -0.11568052620582D+03

 The electronic state is 1-A.
 Alpha  occ. eigenvalues --  -19.73577 -10.63862  -1.14203  -0.78716  -0.56896
 Alpha  occ. eigenvalues --   -0.52407  -0.50242  -0.40556  -0.35092
 Alpha virt. eigenvalues --    0.03678   0.07882   0.12543   0.12846   0.14822
 Alpha virt. eigenvalues --    0.17571   0.18307   0.28755   0.30013   0.33358
 Alpha virt. eigenvalues --    0.34485   0.39368   0.40688   0.41955   0.43661

 Mulliken charges:
               1
     1  C    0.079374
     2  O   -0.484934
     3  H    0.045101
     4  H    0.042567
     5  H    0.065366
     6  H    0.252525
 Sum of Mulliken charges =   0.00000

 Dipole moment (field-independent basis, Debye):
    X=              0.8581    Y=              1.5979    Z=              0.1198  Tot=              1.8177
 Quadrupole moment (field-independent basis, Debye-Ang):
   XX=            -12.9174   YY=            -12.0593   ZZ=            -13.8061
   XY=             -2.4747   XZ=             -0.1201   YZ=              0.0613

 Normal termination of Gaussian 09 at Thu Aug 27 00:03:59 2020.
