 Gaussian 09, Revision D.01,
 Gaussian 09:  ES64L-G09RevD.01 24-Apr-2013

 --------------------
 #p B2PLYPD3/Def2QZVP
 --------------------

 --------
 methanol
 --------
 Symbolic Z-matrix:
 Charge =  0 Multiplicity = 1

                         Standard orientation:
 ---------------------------------------------------------------------
 Center     Atomic      Atomic             Coordinates (Angstroms)
 Number     Number       Type             X           Y           Z
 ---------------------------------------------------------------------
      1          6           0       -0.681089   -0.013192    0.020417
      2          8           0        0.768474   -0.133663   -0.022292
      3          1           0       -1.149121    0.721097   -0.800553
      4          1           0       -1.055757    0.422169    0.889161
      5          1           0       -1.099629   -0.868889   -0.119525
      6          1           0        1.243249    0.874084    0.086749
 ---------------------------------------------------------------------

 SCF Done:  E(RB2PLYPD3) =  -115.509724544     A.U. after   11 cycles
 E2(B2PLYPD3) =    -0.1507602734D+00 E(B2PLYPD3) =    -0.11566048481761D+03

 The electronic state is 1-A.
 Alpha  occ. eigenvalues --  -19.74095 -10.65009  -1.12483  -0.79433  -0.56531
 Alpha  occ. eigenvalues --   -0.51246  -0.49038  -0.41221  -0.34763
 Alpha virt. eigenvalues --    0.03456   0.07325   0.12458   0.12743   0.14814
 Alpha virt. eigenvalues --    0.17667   0.18198   0.28461   0.29640   0.32608
 Alpha virt. eigenvalues --    0.33088   0.36876   0.39496   0.41284   0.43409

 Mulliken charges:
               1
     1  C    0.082613
     2  O   -0.498461
     3  H    0.022863
     4  H    0.050945
     5  H    0.082914
     6  H    0.259126
 Sum of Mulliken charges =   0.00000

 Dipole moment (field-independent basis, Debye):
    X=             -0.8758    Y=              1.5059    Z=              0.3205  Tot=              1.7713
 Quadrupole moment (field-independent basis, Debye-Ang):
   XX=            -12.5482   YY=            -12.0416   ZZ=            -14.1703
   XY=              2.6123   XZ=              0.1396   YZ=              0.3077

 Normal termination of Gaussian 09 at Wed Aug 26 23:41:31 2020.
