 Gaussian 09, Revision D.01,
 Gaussian 09:  ES64L-G09RevD.01 24-Apr-2013

 --------------------
 #p B2PLYPD3/Def2QZVP
 --------------------

 --------
 methanol
 --------
 Symbolic Z-matrix:
 Charge =  0 Multiplicity = 1

                         Standard orientation:
 ---------------------------------------------------------------------
 Center     Atomic      Atomic             Coordinates (Angstroms)
 Number     Number       Type             X           Y           Z
 ---------------------------------------------------------------------
      1          6           0        0.664145    0.032892    0.008660
      2          8           0       -0.742594   -0.154688   -0.015681
      3          1           0        1.030162    0.383979    0.834161
      4          1           0        1.038083    0.681874   -0.750507
      5          1           0        1.092572   -0.950775   -0.095821
      6          1           0       -1.204932    0.925071    0.085651
 ---------------------------------------------------------------------

 SCF Done:  E(RB2PLYPD3) =  -115.506804946     A.U. after   11 cycles
 E2(B2PLYPD3) =    -0.1510782398D+00 E(B2PLYPD3) =    -0.11565788318570D+03

 The electronic state is 1-A.
 Alpha  occ. eigenvalues --  -19.74241 -10.63507  -1.13056  -0.79140  -0.56571
 Alpha  occ. eigenvalues --   -0.52280  -0.48933  -0.40608  -0.35248
 Alpha virt. eigenvalues --    0.02714   0.07631   0.12361   0.12961   0.15147
 Alpha virt. eigenvalues --    0.17293   0.18355   0.26941   0.29599   0.33650
 Alpha virt. eigenvalues --    0.34341   0.38395   0.39216   0.42289   0.44802

 Mulliken charges:
               1
     1  C    0.087131
     2  O   -0.489099
     3  H    0.049690
     4  H    0.040006
     5  H    0.060572
     6  H    0.251700
 Sum of Mulliken charges =   0.00000

 Dipole moment (field-independent basis, Debye):
    X=              0.8983    Y=              1.7003    Z=              0.2473  Tot=              1.9388
 Quadrupole moment (field-independent basis, Debye-Ang):
   XX=            -12.8451   YY=            -11.8280   ZZ=            -14.0018
   XY=             -2.3630   XZ=             -0.0959   YZ=              0.1355

 Normal termination of Gaussian 09 at Wed Aug 26 13:34:48 2020.
