 Gaussian 09, Revision D.01,
 Gaussian 09:  ES64L-G09RevD.01 24-Apr-2013

 --------------------
 #p B2PLYPD3/Def2QZVP
 --------------------

 --------
 methanol
 --------
 Symbolic Z-matrix:
 Charge =  0 Multiplicity = 1

                         Standard orientation:
 ---------------------------------------------------------------------
 Center     Atomic      Atomic             Coordinates (Angstroms)
 Number     Number       Type             X           Y           Z
 ---------------------------------------------------------------------
      1          6           0        0.660772   -0.007477   -0.004319
      2          8           0       -0.746560    0.119417   -0.002866
      3          1           0        1.063596   -0.575503   -0.872613
      4          1           0        1.049761   -0.513655    0.918274
      5          1           0        1.043664    0.957442   -0.014683
      6          1           0       -1.149173   -0.778758    0.017866
 ---------------------------------------------------------------------

 SCF Done:  E(RB2PLYPD3) =  -115.549515678     A.U. after   10 cycles
 E2(B2PLYPD3) =    -0.1476728028D+00 E(B2PLYPD3) =    -0.11569718848071D+03

 The electronic state is 1-A.
 Alpha  occ. eigenvalues --  -19.72901 -10.65533  -1.15923  -0.78643  -0.58537
 Alpha  occ. eigenvalues --   -0.51010  -0.50515  -0.41271  -0.35099
 Alpha virt. eigenvalues --    0.04780   0.08107   0.12350   0.12593   0.14988
 Alpha virt. eigenvalues --    0.17191   0.18190   0.29106   0.33248   0.33807
 Alpha virt. eigenvalues --    0.34349   0.38564   0.40178   0.40337   0.43684

 Mulliken charges:
               1
     1  C    0.067569
     2  O   -0.460612
     3  H    0.043378
     4  H    0.040812
     5  H    0.075925
     6  H    0.232928
 Sum of Mulliken charges =   0.00000

 Dipole moment (field-independent basis, Debye):
    X=              0.8230    Y=             -1.4665    Z=              0.0264  Tot=              1.6819
 Quadrupole moment (field-independent basis, Debye-Ang):
   XX=            -12.9970   YY=            -12.1679   ZZ=            -13.8951
   XY=              2.3107   XZ=             -0.0730   YZ=             -0.0005

 Normal termination of Gaussian 09 at Thu Aug 27 00:01:15 2020.
