 Gaussian 09, Revision D.01,
 Gaussian 09:  ES64L-G09RevD.01 24-Apr-2013

 --------------------
 #p B2PLYPD3/Def2QZVP
 --------------------

 --------
 methanol
 --------
 Symbolic Z-matrix:
 Charge =  0 Multiplicity = 1

                         Standard orientation:
 ---------------------------------------------------------------------
 Center     Atomic      Atomic             Coordinates (Angstroms)
 Number     Number       Type             X           Y           Z
 ---------------------------------------------------------------------
      1          6           0        0.660681    0.026807   -0.004661
      2          8           0       -0.734658   -0.138129    0.005697
      3          1           0        0.968304    0.577853    0.881055
      4          1           0        1.027215    0.486041   -0.877444
      5          1           0        1.090106   -0.935772    0.033267
      6          1           0       -1.172449    0.816071   -0.054493
 ---------------------------------------------------------------------

 SCF Done:  E(RB2PLYPD3) =  -115.542830597     A.U. after   11 cycles
 E2(B2PLYPD3) =    -0.1484058851D+00 E(B2PLYPD3) =    -0.11569123648219D+03

 The electronic state is 1-A.
 Alpha  occ. eigenvalues --  -19.73088 -10.64437  -1.14927  -0.78527  -0.57649
 Alpha  occ. eigenvalues --   -0.52455  -0.50071  -0.40569  -0.35095
 Alpha virt. eigenvalues --    0.04286   0.08044   0.12465   0.12708   0.14820
 Alpha virt. eigenvalues --    0.17376   0.18228   0.29088   0.31717   0.33214
 Alpha virt. eigenvalues --    0.34534   0.39326   0.40148   0.41870   0.44004

 Mulliken charges:
               1
     1  C    0.073846
     2  O   -0.478169
     3  H    0.044651
     4  H    0.047039
     5  H    0.067100
     6  H    0.245533
 Sum of Mulliken charges =   0.00000

 Dipole moment (field-independent basis, Debye):
    X=              0.8148    Y=              1.5595    Z=             -0.1309  Tot=              1.7644
 Quadrupole moment (field-independent basis, Debye-Ang):
   XX=            -12.9423   YY=            -12.1635   ZZ=            -13.7576
   XY=             -2.4181   XZ=              0.0423   YZ=             -0.0897

 Normal termination of Gaussian 09 at Thu Aug 27 00:15:30 2020.
