 Gaussian 09, Revision D.01,
 Gaussian 09:  ES64L-G09RevD.01 24-Apr-2013

 --------------------
 #p B2PLYPD3/Def2QZVP
 --------------------

 --------
 methanol
 --------
 Symbolic Z-matrix:
 Charge =  0 Multiplicity = 1

                         Standard orientation:
 ---------------------------------------------------------------------
 Center     Atomic      Atomic             Coordinates (Angstroms)
 Number     Number       Type             X           Y           Z
 ---------------------------------------------------------------------
      1          6           0       -0.659764    0.012669    0.001868
      2          8           0        0.749118   -0.138498   -0.005100
      3          1           0       -1.133394    0.571444   -0.795312
      4          1           0       -1.040216    0.512621    0.845456
      5          1           0       -1.035213   -0.960438   -0.018169
      6          1           0        1.174464    0.908338   -0.002383
 ---------------------------------------------------------------------

 SCF Done:  E(RB2PLYPD3) =  -115.525205474     A.U. after   11 cycles
 E2(B2PLYPD3) =    -0.1504351270D+00 E(B2PLYPD3) =    -0.11567564060132D+03

 The electronic state is 1-A.
 Alpha  occ. eigenvalues --  -19.74193 -10.64310  -1.13779  -0.78570  -0.57426
 Alpha  occ. eigenvalues --   -0.50895  -0.49441  -0.41327  -0.35007
 Alpha virt. eigenvalues --    0.03352   0.07654   0.12377   0.12888   0.15285
 Alpha virt. eigenvalues --    0.17210   0.18287   0.28231   0.29888   0.33480
 Alpha virt. eigenvalues --    0.34483   0.38571   0.39157   0.41145   0.44126

 Mulliken charges:
               1
     1  C    0.075908
     2  O   -0.479485
     3  H    0.039042
     4  H    0.043331
     5  H    0.068932
     6  H    0.252273
 Sum of Mulliken charges =   0.00000

 Dipole moment (field-independent basis, Debye):
    X=             -0.8743    Y=              1.6374    Z=              0.0363  Tot=              1.8565
 Quadrupole moment (field-independent basis, Debye-Ang):
   XX=            -12.9255   YY=            -11.8141   ZZ=            -14.1412
   XY=              2.2904   XZ=              0.0319   YZ=              0.0264

 Normal termination of Gaussian 09 at Wed Aug 26 14:54:09 2020.
