 Gaussian 09, Revision D.01,
 Gaussian 09:  ES64L-G09RevD.01 24-Apr-2013

 --------------------
 #p B2PLYPD3/Def2QZVP
 --------------------

 --------
 methanol
 --------
 Symbolic Z-matrix:
 Charge =  0 Multiplicity = 1

                         Standard orientation:
 ---------------------------------------------------------------------
 Center     Atomic      Atomic             Coordinates (Angstroms)
 Number     Number       Type             X           Y           Z
 ---------------------------------------------------------------------
      1          6           0        0.647378    0.048221   -0.000410
      2          8           0       -0.734945   -0.196886    0.003707
      3          1           0        1.183082    0.444083    0.729202
      4          1           0        1.048323    0.530083   -0.728197
      5          1           0        1.024509   -0.889752   -0.048784
      6          1           0       -1.260616    1.201347    0.020586
 ---------------------------------------------------------------------

 SCF Done:  E(RB2PLYPD3) =  -115.406785369     A.U. after   11 cycles
 E2(B2PLYPD3) =    -0.1582571735D+00 E(B2PLYPD3) =    -0.11556504254286D+03

 The electronic state is 1-A.
 Alpha  occ. eigenvalues --  -19.76529 -10.61706  -1.12466  -0.80964  -0.55325
 Alpha  occ. eigenvalues --   -0.52137  -0.49237  -0.38551  -0.35540
 Alpha virt. eigenvalues --   -0.03306   0.07207   0.12222   0.13422   0.15182
 Alpha virt. eigenvalues --    0.17087   0.18819   0.20977   0.29452   0.33841
 Alpha virt. eigenvalues --    0.34929   0.37864   0.38723   0.43097   0.45544

 Mulliken charges:
               1
     1  C    0.096205
     2  O   -0.445669
     3  H    0.038840
     4  H    0.041013
     5  H    0.051712
     6  H    0.217899
 Sum of Mulliken charges =   0.00000

 Dipole moment (field-independent basis, Debye):
    X=              1.0648    Y=              1.7482    Z=             -0.0105  Tot=              2.0470
 Quadrupole moment (field-independent basis, Debye-Ang):
   XX=            -12.8365   YY=            -11.3506   ZZ=            -14.3051
   XY=             -2.2719   XZ=              0.0210   YZ=             -0.0132

 Normal termination of Gaussian 09 at Wed Aug 26 21:44:27 2020.
