 Gaussian 09, Revision D.01,
 Gaussian 09:  ES64L-G09RevD.01 24-Apr-2013

 --------------------
 #p B2PLYPD3/Def2QZVP
 --------------------

 --------
 methanol
 --------
 Symbolic Z-matrix:
 Charge =  0 Multiplicity = 1

                         Standard orientation:
 ---------------------------------------------------------------------
 Center     Atomic      Atomic             Coordinates (Angstroms)
 Number     Number       Type             X           Y           Z
 ---------------------------------------------------------------------
      1          6           0       -0.664628   -0.020450   -0.010875
      2          8           0        0.754444    0.086717   -0.014227
      3          1           0       -1.001943   -0.439246    1.022598
      4          1           0       -0.992821   -0.721810   -0.848341
      5          1           0       -1.148354    1.073202   -0.097862
      6          1           0        1.095333   -0.483180    0.102669
 ---------------------------------------------------------------------

 SCF Done:  E(RB2PLYPD3) =  -115.380094941     A.U. after   11 cycles
 E2(B2PLYPD3) =    -0.1438206233D+00 E(B2PLYPD3) =    -0.11552391556444D+03

 The electronic state is 1-A.
 Alpha  occ. eigenvalues --  -19.69385 -10.68870  -1.25124  -0.81430  -0.61757
 Alpha  occ. eigenvalues --   -0.51776  -0.49903  -0.40542  -0.36107
 Alpha virt. eigenvalues --    0.05270   0.09285   0.11742   0.11799   0.14338
 Alpha virt. eigenvalues --    0.16999   0.17644   0.28647   0.32448   0.32771
 Alpha virt. eigenvalues --    0.35406   0.38077   0.38945   0.40494   0.42917

 Mulliken charges:
               1
     1  C    0.059329
     2  O   -0.235200
     3  H    0.045200
     4  H    0.056606
     5  H    0.077397
     6  H   -0.003332
 Sum of Mulliken charges =   0.00000

 Dipole moment (field-independent basis, Debye):
    X=             -0.9444    Y=             -1.1986    Z=              0.2305  Tot=              1.5433
 Quadrupole moment (field-independent basis, Debye-Ang):
   XX=            -13.0736   YY=            -12.5720   ZZ=            -13.5583
   XY=             -1.9456   XZ=              0.3653   YZ=             -0.0481

 Normal termination of Gaussian 09 at Wed Aug 26 16:13:20 2020.
