 Gaussian 09, Revision D.01,
 Gaussian 09:  ES64L-G09RevD.01 24-Apr-2013

 --------------------
 #p B2PLYPD3/Def2QZVP
 --------------------

 --------
 methanol
 --------
 Symbolic Z-matrix:
 Charge =  0 Multiplicity = 1

                         Standard orientation:
 ---------------------------------------------------------------------
 Center     Atomic      Atomic             Coordinates (Angstroms)
 Number     Number       Type             X           Y           Z
 ---------------------------------------------------------------------
      1          6           0        0.643956    0.017347    0.007418
      2          8           0       -0.734593   -0.144075   -0.017905
      3          1           0        1.007400    0.378833    0.891231
      4          1           0        1.017042    0.693306   -0.786614
      5          1           0        1.109843   -0.908497   -0.106803
      6          1           0       -1.121276    0.884873    0.100916
 ---------------------------------------------------------------------

 SCF Done:  E(RB2PLYPD3) =  -115.529063341     A.U. after   11 cycles
 E2(B2PLYPD3) =    -0.1493342520D+00 E(B2PLYPD3) =    -0.11567839759260D+03

 The electronic state is 1-A.
 Alpha  occ. eigenvalues --  -19.73853 -10.63977  -1.15132  -0.78498  -0.57558
 Alpha  occ. eigenvalues --   -0.52162  -0.50439  -0.40771  -0.34974
 Alpha virt. eigenvalues --    0.03554   0.07911   0.12528   0.12807   0.14997
 Alpha virt. eigenvalues --    0.17674   0.18301   0.28648   0.29884   0.33229
 Alpha virt. eigenvalues --    0.35218   0.39136   0.40280   0.41782   0.44152

 Mulliken charges:
               1
     1  C    0.079485
     2  O   -0.471053
     3  H    0.042852
     4  H    0.032204
     5  H    0.063247
     6  H    0.253264
 Sum of Mulliken charges =   0.00000

 Dipole moment (field-independent basis, Debye):
    X=              0.8439    Y=              1.5975    Z=              0.2690  Tot=              1.8266
 Quadrupole moment (field-independent basis, Debye-Ang):
   XX=            -13.1390   YY=            -11.9563   ZZ=            -13.9047
   XY=             -2.3858   XZ=             -0.1614   YZ=              0.1759

 Normal termination of Gaussian 09 at Wed Aug 26 12:02:06 2020.
