 Gaussian 09, Revision D.01,
 Gaussian 09:  ES64L-G09RevD.01 24-Apr-2013

 --------------------
 #p B2PLYPD3/Def2QZVP
 --------------------

 --------
 methanol
 --------
 Symbolic Z-matrix:
 Charge =  0 Multiplicity = 1

                         Standard orientation:
 ---------------------------------------------------------------------
 Center     Atomic      Atomic             Coordinates (Angstroms)
 Number     Number       Type             X           Y           Z
 ---------------------------------------------------------------------
      1          6           0        0.672969    0.024587   -0.000558
      2          8           0       -0.739307   -0.146497    0.000617
      3          1           0        1.057203    0.483130    0.851692
      4          1           0        0.973873    0.604949   -0.815278
      5          1           0        1.070496   -0.933849   -0.064076
      6          1           0       -1.224927    0.870219    0.026076
 ---------------------------------------------------------------------

 SCF Done:  E(RB2PLYPD3) =  -115.526495190     A.U. after   11 cycles
 E2(B2PLYPD3) =    -0.1498762941D+00 E(B2PLYPD3) =    -0.11567637148456D+03

 The electronic state is 1-A.
 Alpha  occ. eigenvalues --  -19.73530 -10.63742  -1.13236  -0.78863  -0.56935
 Alpha  occ. eigenvalues --   -0.52095  -0.49539  -0.40723  -0.34997
 Alpha virt. eigenvalues --    0.03495   0.07805   0.12570   0.12792   0.15019
 Alpha virt. eigenvalues --    0.17221   0.18137   0.28613   0.29860   0.33342
 Alpha virt. eigenvalues --    0.34132   0.39265   0.39749   0.42197   0.44251

 Mulliken charges:
               1
     1  C    0.084783
     2  O   -0.496508
     3  H    0.046391
     4  H    0.044055
     5  H    0.069905
     6  H    0.251375
 Sum of Mulliken charges =   0.00000

 Dipole moment (field-independent basis, Debye):
    X=              0.8613    Y=              1.6340    Z=              0.0375  Tot=              1.8474
 Quadrupole moment (field-independent basis, Debye-Ang):
   XX=            -12.7428   YY=            -11.9400   ZZ=            -13.9136
   XY=             -2.4467   XZ=              0.0053   YZ=              0.0310

 Normal termination of Gaussian 09 at Thu Aug 27 00:15:09 2020.
