 Gaussian 09, Revision D.01,
 Gaussian 09:  ES64L-G09RevD.01 24-Apr-2013

 --------------------
 #p B2PLYPD3/Def2QZVP
 --------------------

 --------
 methanol
 --------
 Symbolic Z-matrix:
 Charge =  0 Multiplicity = 1

                         Standard orientation:
 ---------------------------------------------------------------------
 Center     Atomic      Atomic             Coordinates (Angstroms)
 Number     Number       Type             X           Y           Z
 ---------------------------------------------------------------------
      1          6           0       -0.668885   -0.016010    0.012018
      2          8           0        0.759696    0.096948   -0.010018
      3          1           0       -1.031622   -0.477959    0.951780
      4          1           0       -1.068205   -0.602993   -0.918303
      5          1           0       -1.064642    1.031158   -0.063771
      6          1           0        1.100211   -0.629732    0.038328
 ---------------------------------------------------------------------

 SCF Done:  E(RB2PLYPD3) =  -115.517043071     A.U. after   10 cycles
 E2(B2PLYPD3) =    -0.1453403513D+00 E(B2PLYPD3) =    -0.11566238342230D+03

 The electronic state is 1-A.
 Alpha  occ. eigenvalues --  -19.71118 -10.67430  -1.20018  -0.79631  -0.60343
 Alpha  occ. eigenvalues --   -0.51331  -0.49844  -0.41290  -0.35889
 Alpha virt. eigenvalues --    0.05380   0.08720   0.11955   0.12184   0.14597
 Alpha virt. eigenvalues --    0.17076   0.18063   0.28843   0.32513   0.33162
 Alpha virt. eigenvalues --    0.36819   0.38926   0.39527   0.40125   0.42761

 Mulliken charges:
               1
     1  C    0.058945
     2  O   -0.360717
     3  H    0.056801
     4  H    0.045579
     5  H    0.075512
     6  H    0.123880
 Sum of Mulliken charges =   0.00000

 Dipole moment (field-independent basis, Debye):
    X=             -0.9500    Y=             -1.3234    Z=              0.1484  Tot=              1.6358
 Quadrupole moment (field-independent basis, Debye-Ang):
   XX=            -13.1315   YY=            -12.4579   ZZ=            -13.6340
   XY=             -2.0624   XZ=              0.0920   YZ=             -0.1220

 Normal termination of Gaussian 09 at Thu Aug 27 00:03:51 2020.
