 Gaussian 09, Revision D.01,
 Gaussian 09:  ES64L-G09RevD.01 24-Apr-2013

 --------------------
 #p B2PLYPD3/Def2QZVP
 --------------------

 --------
 methanol
 --------
 Symbolic Z-matrix:
 Charge =  0 Multiplicity = 1

                         Standard orientation:
 ---------------------------------------------------------------------
 Center     Atomic      Atomic             Coordinates (Angstroms)
 Number     Number       Type             X           Y           Z
 ---------------------------------------------------------------------
      1          6           0        0.668788   -0.014288    0.026193
      2          8           0       -0.755681    0.084089   -0.019625
      3          1           0        1.047225   -0.750302   -0.845489
      4          1           0        0.963501   -0.352415    0.997374
      5          1           0        1.059282    1.061705   -0.217984
      6          1           0       -1.037287   -0.545975    0.065937
 ---------------------------------------------------------------------

 SCF Done:  E(RB2PLYPD3) =  -115.413834506     A.U. after   11 cycles
 E2(B2PLYPD3) =    -0.1439324378D+00 E(B2PLYPD3) =    -0.11555776694428D+03

 The electronic state is 1-A.
 Alpha  occ. eigenvalues --  -19.69644 -10.67998  -1.24477  -0.80901  -0.61586
 Alpha  occ. eigenvalues --   -0.52168  -0.49662  -0.41455  -0.36215
 Alpha virt. eigenvalues --    0.05336   0.09281   0.11618   0.11925   0.14505
 Alpha virt. eigenvalues --    0.16974   0.17661   0.28616   0.32182   0.32742
 Alpha virt. eigenvalues --    0.36108   0.37568   0.40465   0.41382   0.42906

 Mulliken charges:
               1
     1  C    0.057378
     2  O   -0.253691
     3  H    0.039706
     4  H    0.065093
     5  H    0.075663
     6  H    0.015851
 Sum of Mulliken charges =   0.00000

 Dipole moment (field-independent basis, Debye):
    X=              1.0261    Y=             -1.2299    Z=              0.2814  Tot=              1.6262
 Quadrupole moment (field-independent basis, Debye-Ang):
   XX=            -13.4172   YY=            -12.4369   ZZ=            -13.4180
   XY=              1.8755   XZ=             -0.2058   YZ=             -0.2308

 Normal termination of Gaussian 09 at Wed Aug 26 12:58:58 2020.
