 Gaussian 09, Revision D.01,
 Gaussian 09:  ES64L-G09RevD.01 24-Apr-2013

 --------------------
 #p B2PLYPD3/Def2QZVP
 --------------------

 --------
 methanol
 --------
 Symbolic Z-matrix:
 Charge =  0 Multiplicity = 1

                         Standard orientation:
 ---------------------------------------------------------------------
 Center     Atomic      Atomic             Coordinates (Angstroms)
 Number     Number       Type             X           Y           Z
 ---------------------------------------------------------------------
      1          6           0        0.683969    0.030238   -0.009025
      2          8           0       -0.737507   -0.185887   -0.007299
      3          1           0        0.970494    0.439517    0.760711
      4          1           0        0.813192    0.652051   -0.735854
      5          1           0        1.127752   -0.864425   -0.021452
      6          1           0       -1.115198    1.078523    0.109138
 ---------------------------------------------------------------------

 SCF Done:  E(RB2PLYPD3) =  -115.435614269     A.U. after   12 cycles
 E2(B2PLYPD3) =    -0.1539898011D+00 E(B2PLYPD3) =    -0.11558960406998D+03

 The electronic state is 1-A.
 Alpha  occ. eigenvalues --  -19.74430 -10.60919  -1.11601  -0.80776  -0.56726
 Alpha  occ. eigenvalues --   -0.54455  -0.47807  -0.40483  -0.34930
 Alpha virt. eigenvalues --    0.00212   0.07780   0.12341   0.12919   0.14603
 Alpha virt. eigenvalues --    0.17160   0.18195   0.23735   0.29696   0.32476
 Alpha virt. eigenvalues --    0.33985   0.39544   0.39806   0.44463   0.44636

 Mulliken charges:
               1
     1  C    0.108359
     2  O   -0.496465
     3  H    0.045147
     4  H    0.048556
     5  H    0.060998
     6  H    0.233405
 Sum of Mulliken charges =   0.00000

 Dipole moment (field-independent basis, Debye):
    X=              1.2569    Y=              1.7815    Z=              0.2222  Tot=              2.1916
 Quadrupole moment (field-independent basis, Debye-Ang):
   XX=            -13.4206   YY=            -11.2063   ZZ=            -13.8554
   XY=             -2.3640   XZ=              0.0456   YZ=              0.0897

 Normal termination of Gaussian 09 at Wed Aug 26 22:32:10 2020.
