 Gaussian 09, Revision D.01,
 Gaussian 09:  ES64L-G09RevD.01 24-Apr-2013

 --------------------
 #p B2PLYPD3/Def2QZVP
 --------------------

 --------
 methanol
 --------
 Symbolic Z-matrix:
 Charge =  0 Multiplicity = 1

                         Standard orientation:
 ---------------------------------------------------------------------
 Center     Atomic      Atomic             Coordinates (Angstroms)
 Number     Number       Type             X           Y           Z
 ---------------------------------------------------------------------
      1          6           0        0.647798    0.021471   -0.002878
      2          8           0       -0.726938   -0.171088   -0.006725
      3          1           0        0.966515    0.474950    0.869345
      4          1           0        1.027014    0.599061   -0.783319
      5          1           0        1.156122   -0.820422   -0.034473
      6          1           0       -1.220933    0.986293    0.019512
 ---------------------------------------------------------------------

 SCF Done:  E(RB2PLYPD3) =  -115.486963780     A.U. after   11 cycles
 E2(B2PLYPD3) =    -0.1519184515D+00 E(B2PLYPD3) =    -0.11563888223192D+03

 The electronic state is 1-A.
 Alpha  occ. eigenvalues --  -19.74542 -10.62550  -1.13479  -0.79187  -0.55608
 Alpha  occ. eigenvalues --   -0.52354  -0.50855  -0.39865  -0.34748
 Alpha virt. eigenvalues --    0.01179   0.07618   0.12790   0.13083   0.14825
 Alpha virt. eigenvalues --    0.18052   0.18358   0.24730   0.29615   0.33235
 Alpha virt. eigenvalues --    0.35236   0.39464   0.41288   0.42436   0.43350

 Mulliken charges:
               1
     1  C    0.091771
     2  O   -0.484596
     3  H    0.038304
     4  H    0.035394
     5  H    0.060946
     6  H    0.258182
 Sum of Mulliken charges =   0.00000

 Dipole moment (field-independent basis, Debye):
    X=              0.8248    Y=              1.6857    Z=              0.0490  Tot=              1.8773
 Quadrupole moment (field-independent basis, Debye-Ang):
   XX=            -12.7254   YY=            -11.8364   ZZ=            -13.9693
   XY=             -2.6603   XZ=             -0.0971   YZ=              0.0128

 Normal termination of Gaussian 09 at Wed Aug 26 12:46:24 2020.
