 Gaussian 09, Revision D.01,
 Gaussian 09:  ES64L-G09RevD.01 24-Apr-2013

 --------------------
 #p B2PLYPD3/Def2QZVP
 --------------------

 --------
 methanol
 --------
 Symbolic Z-matrix:
 Charge =  0 Multiplicity = 1

                         Standard orientation:
 ---------------------------------------------------------------------
 Center     Atomic      Atomic             Coordinates (Angstroms)
 Number     Number       Type             X           Y           Z
 ---------------------------------------------------------------------
      1          6           0        0.679558    0.009357   -0.009163
      2          8           0       -0.747356    0.066661   -0.009901
      3          1           0        1.154338   -0.726831   -0.786749
      4          1           0        0.999465   -0.426012    1.006688
      5          1           0        0.863931    1.138337   -0.108843
      6          1           0       -1.116230   -0.574930    0.023094
 ---------------------------------------------------------------------

 SCF Done:  E(RB2PLYPD3) =  -115.460385500     A.U. after   10 cycles
 E2(B2PLYPD3) =    -0.1448372835D+00 E(B2PLYPD3) =    -0.11560522278346D+03

 The electronic state is 1-A.
 Alpha  occ. eigenvalues --  -19.69903 -10.68311  -1.21919  -0.80761  -0.61210
 Alpha  occ. eigenvalues --   -0.50334  -0.49518  -0.41420  -0.35324
 Alpha virt. eigenvalues --    0.05267   0.08978   0.11520   0.12018   0.14933
 Alpha virt. eigenvalues --    0.16206   0.17686   0.29072   0.31999   0.33102
 Alpha virt. eigenvalues --    0.37095   0.37765   0.38677   0.40144   0.42675

 Mulliken charges:
               1
     1  C    0.049919
     2  O   -0.287228
     3  H    0.048178
     4  H    0.048093
     5  H    0.088845
     6  H    0.052193
 Sum of Mulliken charges =   0.00000

 Dipole moment (field-independent basis, Debye):
    X=              0.8364    Y=             -1.2547    Z=              0.0843  Tot=              1.5103
 Quadrupole moment (field-independent basis, Debye-Ang):
   XX=            -13.2622   YY=            -12.1065   ZZ=            -13.8684
   XY=              1.6557   XZ=             -0.1869   YZ=             -0.0372

 Normal termination of Gaussian 09 at Wed Aug 26 23:51:13 2020.
