 Gaussian 09, Revision D.01,
 Gaussian 09:  ES64L-G09RevD.01 24-Apr-2013

 --------------------
 #p B2PLYPD3/Def2QZVP
 --------------------

 --------
 methanol
 --------
 Symbolic Z-matrix:
 Charge =  0 Multiplicity = 1

                         Standard orientation:
 ---------------------------------------------------------------------
 Center     Atomic      Atomic             Coordinates (Angstroms)
 Number     Number       Type             X           Y           Z
 ---------------------------------------------------------------------
      1          6           0        0.671494    0.015175   -0.006352
      2          8           0       -0.741576   -0.143971    0.008240
      3          1           0        1.052434    0.553888    0.858855
      4          1           0        1.022554    0.537450   -0.836210
      5          1           0        1.048893   -0.918910   -0.015826
      6          1           0       -1.220235    0.888295   -0.034631
 ---------------------------------------------------------------------

 SCF Done:  E(RB2PLYPD3) =  -115.522605965     A.U. after   11 cycles
 E2(B2PLYPD3) =    -0.1502127771D+00 E(B2PLYPD3) =    -0.11567281874173D+03

 The electronic state is 1-A.
 Alpha  occ. eigenvalues --  -19.73738 -10.63877  -1.13198  -0.78816  -0.56895
 Alpha  occ. eigenvalues --   -0.51377  -0.49921  -0.40902  -0.34893
 Alpha virt. eigenvalues --    0.03312   0.07751   0.12659   0.12718   0.15027
 Alpha virt. eigenvalues --    0.17201   0.18191   0.28277   0.29751   0.33432
 Alpha virt. eigenvalues --    0.34102   0.38848   0.40317   0.41278   0.44042

 Mulliken charges:
               1
     1  C    0.081515
     2  O   -0.494500
     3  H    0.042344
     4  H    0.044450
     5  H    0.073028
     6  H    0.253163
 Sum of Mulliken charges =   0.00000

 Dipole moment (field-independent basis, Debye):
    X=              0.8557    Y=              1.6054    Z=             -0.1174  Tot=              1.8230
 Quadrupole moment (field-independent basis, Debye-Ang):
   XX=            -12.7847   YY=            -11.9083   ZZ=            -13.9596
   XY=             -2.4642   XZ=              0.0498   YZ=             -0.0728

 Normal termination of Gaussian 09 at Thu Aug 27 00:12:57 2020.
