 Gaussian 09, Revision D.01,
 Gaussian 09:  ES64L-G09RevD.01 24-Apr-2013

 --------------------
 #p B2PLYPD3/Def2QZVP
 --------------------

 --------
 methanol
 --------
 Symbolic Z-matrix:
 Charge =  0 Multiplicity = 1

                         Standard orientation:
 ---------------------------------------------------------------------
 Center     Atomic      Atomic             Coordinates (Angstroms)
 Number     Number       Type             X           Y           Z
 ---------------------------------------------------------------------
      1          6           0        0.672375    0.032281    0.011054
      2          8           0       -0.734720   -0.149624   -0.017344
      3          1           0        0.951541    0.379200    0.877093
      4          1           0        1.018370    0.674788   -0.767804
      5          1           0        1.070189   -0.934514   -0.107347
      6          1           0       -1.196593    0.883831    0.070481
 ---------------------------------------------------------------------

 SCF Done:  E(RB2PLYPD3) =  -115.518212335     A.U. after   11 cycles
 E2(B2PLYPD3) =    -0.1499304340D+00 E(B2PLYPD3) =    -0.11566814276873D+03

 The electronic state is 1-A.
 Alpha  occ. eigenvalues --  -19.73475 -10.63273  -1.13336  -0.79059  -0.56850
 Alpha  occ. eigenvalues --   -0.53080  -0.49197  -0.40596  -0.35134
 Alpha virt. eigenvalues --    0.03406   0.07904   0.12493   0.12775   0.14971
 Alpha virt. eigenvalues --    0.17203   0.18151   0.28367   0.29779   0.33453
 Alpha virt. eigenvalues --    0.34161   0.39232   0.39683   0.42549   0.44702

 Mulliken charges:
               1
     1  C    0.087328
     2  O   -0.495747
     3  H    0.051350
     4  H    0.042527
     5  H    0.065490
     6  H    0.249052
 Sum of Mulliken charges =   0.00000

 Dipole moment (field-independent basis, Debye):
    X=              0.9049    Y=              1.6453    Z=              0.2129  Tot=              1.8897
 Quadrupole moment (field-independent basis, Debye-Ang):
   XX=            -12.9324   YY=            -11.8958   ZZ=            -13.7846
   XY=             -2.3980   XZ=             -0.1599   YZ=              0.1218

 Normal termination of Gaussian 09 at Wed Aug 26 15:53:01 2020.
