 Gaussian 09, Revision D.01,
 Gaussian 09:  ES64L-G09RevD.01 24-Apr-2013

 --------------------
 #p B2PLYPD3/Def2QZVP
 --------------------

 --------
 methanol
 --------
 Symbolic Z-matrix:
 Charge =  0 Multiplicity = 1

                         Standard orientation:
 ---------------------------------------------------------------------
 Center     Atomic      Atomic             Coordinates (Angstroms)
 Number     Number       Type             X           Y           Z
 ---------------------------------------------------------------------
      1          6           0        0.656874    0.024509   -0.033520
      2          8           0       -0.720049   -0.198790    0.036076
      3          1           0        1.036920    0.605196    0.857316
      4          1           0        0.931688    0.431754   -0.735080
      5          1           0        1.106074   -0.745831   -0.053989
      6          1           0       -1.255531    1.152148   -0.155739
 ---------------------------------------------------------------------

 SCF Done:  E(RB2PLYPD3) =  -115.360123334     A.U. after   12 cycles
 E2(B2PLYPD3) =    -0.1565032344D+00 E(B2PLYPD3) =    -0.11551662656844D+03

 The electronic state is 1-A.
 Alpha  occ. eigenvalues --  -19.75557 -10.60515  -1.12509  -0.82158  -0.56591
 Alpha  occ. eigenvalues --   -0.52345  -0.49863  -0.39183  -0.34852
 Alpha virt. eigenvalues --   -0.02813   0.07448   0.12686   0.13051   0.14797
 Alpha virt. eigenvalues --    0.17795   0.18538   0.21568   0.29552   0.32707
 Alpha virt. eigenvalues --    0.35259   0.38201   0.40310   0.42361   0.46589

 Mulliken charges:
               1
     1  C    0.036630
     2  O   -0.469248
     3  H    0.041359
     4  H    0.083566
     5  H    0.075680
     6  H    0.232013
 Sum of Mulliken charges =   0.00000

 Dipole moment (field-independent basis, Debye):
    X=              0.9857    Y=              1.6588    Z=             -0.4894  Tot=              1.9907
 Quadrupole moment (field-independent basis, Debye-Ang):
   XX=            -12.8629   YY=            -11.4670   ZZ=            -13.8497
   XY=             -2.6910   XZ=              0.0589   YZ=             -0.3101

 Normal termination of Gaussian 09 at Wed Aug 26 21:35:26 2020.
