 Gaussian 09, Revision D.01,
 Gaussian 09:  ES64L-G09RevD.01 24-Apr-2013

 --------------------
 #p B2PLYPD3/Def2QZVP
 --------------------

 --------
 methanol
 --------
 Symbolic Z-matrix:
 Charge =  0 Multiplicity = 1

                         Standard orientation:
 ---------------------------------------------------------------------
 Center     Atomic      Atomic             Coordinates (Angstroms)
 Number     Number       Type             X           Y           Z
 ---------------------------------------------------------------------
      1          6           0       -0.670874   -0.025651    0.009259
      2          8           0        0.760162    0.099554   -0.016012
      3          1           0       -1.025814   -0.415590    0.961084
      4          1           0       -1.074017   -0.649092   -0.866823
      5          1           0       -1.078577    1.047706   -0.097202
      6          1           0        1.122359   -0.625550    0.075477
 ---------------------------------------------------------------------

 SCF Done:  E(RB2PLYPD3) =  -115.522301597     A.U. after   10 cycles
 E2(B2PLYPD3) =    -0.1455130795D+00 E(B2PLYPD3) =    -0.11566781467642D+03

 The electronic state is 1-A.
 Alpha  occ. eigenvalues --  -19.71201 -10.67312  -1.19440  -0.79562  -0.60332
 Alpha  occ. eigenvalues --   -0.51619  -0.49318  -0.40976  -0.36041
 Alpha virt. eigenvalues --    0.05380   0.08651   0.12000   0.12146   0.14654
 Alpha virt. eigenvalues --    0.17054   0.18134   0.28885   0.32429   0.33372
 Alpha virt. eigenvalues --    0.36856   0.38444   0.39512   0.40548   0.42719

 Mulliken charges:
               1
     1  C    0.059694
     2  O   -0.374829
     3  H    0.059442
     4  H    0.051395
     5  H    0.069789
     6  H    0.134510
 Sum of Mulliken charges =   0.00000

 Dipole moment (field-independent basis, Debye):
    X=             -0.9373    Y=             -1.3654    Z=              0.2303  Tot=              1.6721
 Quadrupole moment (field-independent basis, Debye-Ang):
   XX=            -13.0154   YY=            -12.4971   ZZ=            -13.6280
   XY=             -2.0306   XZ=              0.2177   YZ=             -0.1271

 Normal termination of Gaussian 09 at Thu Aug 27 00:12:19 2020.
