 Gaussian 09, Revision D.01,
 Gaussian 09:  ES64L-G09RevD.01 24-Apr-2013

 --------------------
 #p B2PLYPD3/Def2QZVP
 --------------------

 --------
 methanol
 --------
 Symbolic Z-matrix:
 Charge =  0 Multiplicity = 1

                         Standard orientation:
 ---------------------------------------------------------------------
 Center     Atomic      Atomic             Coordinates (Angstroms)
 Number     Number       Type             X           Y           Z
 ---------------------------------------------------------------------
      1          6           0       -0.653166    0.019312    0.004964
      2          8           0        0.736046   -0.155945   -0.012236
      3          1           0       -1.128122    0.546027   -0.816198
      4          1           0       -0.979153    0.509587    0.846112
      5          1           0       -1.066206   -0.888553    0.020604
      6          1           0        1.204105    0.964628    0.017588
 ---------------------------------------------------------------------

 SCF Done:  E(RB2PLYPD3) =  -115.501193959     A.U. after   11 cycles
 E2(B2PLYPD3) =    -0.1515746264D+00 E(B2PLYPD3) =    -0.11565276858506D+03

 The electronic state is 1-A.
 Alpha  occ. eigenvalues --  -19.74536 -10.63274  -1.13490  -0.78845  -0.56390
 Alpha  occ. eigenvalues --   -0.51678  -0.50069  -0.40512  -0.34913
 Alpha virt. eigenvalues --    0.02055   0.07604   0.12730   0.12863   0.15094
 Alpha virt. eigenvalues --    0.17408   0.18464   0.25882   0.29547   0.33320
 Alpha virt. eigenvalues --    0.35140   0.38806   0.40081   0.41742   0.43923

 Mulliken charges:
               1
     1  C    0.081202
     2  O   -0.481867
     3  H    0.037809
     4  H    0.041400
     5  H    0.065961
     6  H    0.255495
 Sum of Mulliken charges =   0.00000

 Dipole moment (field-independent basis, Debye):
    X=             -0.8390    Y=              1.6456    Z=              0.1125  Tot=              1.8505
 Quadrupole moment (field-independent basis, Debye-Ang):
   XX=            -12.8459   YY=            -11.8153   ZZ=            -14.0318
   XY=              2.4924   XZ=              0.0851   YZ=              0.0571

 Normal termination of Gaussian 09 at Wed Aug 26 16:19:02 2020.
