 Gaussian 09, Revision D.01,
 Gaussian 09:  ES64L-G09RevD.01 24-Apr-2013

 --------------------
 #p B2PLYPD3/Def2QZVP
 --------------------

 --------
 methanol
 --------
 Symbolic Z-matrix:
 Charge =  0 Multiplicity = 1

                         Standard orientation:
 ---------------------------------------------------------------------
 Center     Atomic      Atomic             Coordinates (Angstroms)
 Number     Number       Type             X           Y           Z
 ---------------------------------------------------------------------
      1          6           0        0.667614   -0.016666    0.014418
      2          8           0       -0.751495    0.097623   -0.013408
      3          1           0        0.990529   -0.740556   -0.849456
      4          1           0        1.040295   -0.350830    0.993047
      5          1           0        1.081303    1.008620   -0.212993
      6          1           0       -1.105852   -0.598227    0.090161
 ---------------------------------------------------------------------

 SCF Done:  E(RB2PLYPD3) =  -115.507559135     A.U. after   10 cycles
 E2(B2PLYPD3) =    -0.1448917768D+00 E(B2PLYPD3) =    -0.11565245091168D+03

 The electronic state is 1-A.
 Alpha  occ. eigenvalues --  -19.70723 -10.67408  -1.20651  -0.79978  -0.60575
 Alpha  occ. eigenvalues --   -0.51711  -0.50120  -0.40928  -0.35798
 Alpha virt. eigenvalues --    0.05386   0.08896   0.11907   0.12216   0.14480
 Alpha virt. eigenvalues --    0.17096   0.17926   0.28863   0.32570   0.33196
 Alpha virt. eigenvalues --    0.36858   0.38771   0.39846   0.40462   0.42922

 Mulliken charges:
               1
     1  C    0.060305
     2  O   -0.343934
     3  H    0.042489
     4  H    0.058418
     5  H    0.075571
     6  H    0.107151
 Sum of Mulliken charges =   0.00000

 Dipole moment (field-independent basis, Debye):
    X=              0.9101    Y=             -1.2863    Z=              0.2531  Tot=              1.5959
 Quadrupole moment (field-independent basis, Debye-Ang):
   XX=            -13.1208   YY=            -12.5273   ZZ=            -13.5458
   XY=              2.0918   XZ=             -0.1898   YZ=             -0.1983

 Normal termination of Gaussian 09 at Thu Aug 27 00:14:25 2020.
