 Gaussian 09, Revision D.01,
 Gaussian 09:  ES64L-G09RevD.01 24-Apr-2013

 --------------------
 #p B2PLYPD3/Def2QZVP
 --------------------

 --------
 methanol
 --------
 Symbolic Z-matrix:
 Charge =  0 Multiplicity = 1

                         Standard orientation:
 ---------------------------------------------------------------------
 Center     Atomic      Atomic             Coordinates (Angstroms)
 Number     Number       Type             X           Y           Z
 ---------------------------------------------------------------------
      1          6           0        0.670375   -0.016204    0.004476
      2          8           0       -0.757168    0.106379   -0.002791
      3          1           0        1.011182   -0.639796   -0.889171
      4          1           0        1.103268   -0.452224    0.940699
      5          1           0        1.079522    1.004007   -0.106594
      6          1           0       -1.158878   -0.665798    0.050541
 ---------------------------------------------------------------------

 SCF Done:  E(RB2PLYPD3) =  -115.542324659     A.U. after   10 cycles
 E2(B2PLYPD3) =    -0.1462541648D+00 E(B2PLYPD3) =    -0.11568857882343D+03

 The electronic state is 1-A.
 Alpha  occ. eigenvalues --  -19.71792 -10.66987  -1.17736  -0.79149  -0.59589
 Alpha  occ. eigenvalues --   -0.51071  -0.49905  -0.40927  -0.35598
 Alpha virt. eigenvalues --    0.05303   0.08367   0.12146   0.12324   0.14701
 Alpha virt. eigenvalues --    0.17104   0.18147   0.28991   0.32587   0.33471
 Alpha virt. eigenvalues --    0.36770   0.38898   0.39261   0.39976   0.42817

 Mulliken charges:
               1
     1  C    0.063250
     2  O   -0.421085
     3  H    0.046323
     4  H    0.053002
     5  H    0.075819
     6  H    0.182691
 Sum of Mulliken charges =   0.00000

 Dipole moment (field-independent basis, Debye):
    X=              0.8701    Y=             -1.3765    Z=              0.1091  Tot=              1.6321
 Quadrupole moment (field-independent basis, Debye-Ang):
   XX=            -12.8680   YY=            -12.4595   ZZ=            -13.7638
   XY=              2.2053   XZ=             -0.0513   YZ=             -0.0964

 Normal termination of Gaussian 09 at Wed Aug 26 23:51:13 2020.
