 Gaussian 09, Revision D.01,
 Gaussian 09:  ES64L-G09RevD.01 24-Apr-2013

 --------------------
 #p B2PLYPD3/Def2QZVP
 --------------------

 --------
 methanol
 --------
 Symbolic Z-matrix:
 Charge =  0 Multiplicity = 1

                         Standard orientation:
 ---------------------------------------------------------------------
 Center     Atomic      Atomic             Coordinates (Angstroms)
 Number     Number       Type             X           Y           Z
 ---------------------------------------------------------------------
      1          6           0        0.668128    0.030809    0.002009
      2          8           0       -0.735119   -0.156331    0.000295
      3          1           0        1.019424    0.491501    0.802473
      4          1           0        1.010235    0.563048   -0.773270
      5          1           0        1.014261   -0.960461   -0.043138
      6          1           0       -1.171734    0.971705   -0.000477
 ---------------------------------------------------------------------

 SCF Done:  E(RB2PLYPD3) =  -115.496973448     A.U. after   11 cycles
 E2(B2PLYPD3) =    -0.1515057555D+00 E(B2PLYPD3) =    -0.11564847920324D+03

 The electronic state is 1-A.
 Alpha  occ. eigenvalues --  -19.74191 -10.62593  -1.12961  -0.79351  -0.57025
 Alpha  occ. eigenvalues --   -0.52914  -0.48528  -0.40803  -0.35181
 Alpha virt. eigenvalues --    0.02291   0.07816   0.12309   0.13018   0.15251
 Alpha virt. eigenvalues --    0.17094   0.18109   0.26258   0.29626   0.33682
 Alpha virt. eigenvalues --    0.34563   0.38663   0.39274   0.43415   0.45346

 Mulliken charges:
               1
     1  C    0.095261
     2  O   -0.488399
     3  H    0.043568
     4  H    0.040410
     5  H    0.064378
     6  H    0.244782
 Sum of Mulliken charges =   0.00000

 Dipole moment (field-independent basis, Debye):
    X=              0.9819    Y=              1.7289    Z=              0.0046  Tot=              1.9883
 Quadrupole moment (field-independent basis, Debye-Ang):
   XX=            -13.1143   YY=            -11.5628   ZZ=            -13.9458
   XY=             -2.2225   XZ=              0.0175   YZ=              0.0113

 Normal termination of Gaussian 09 at Wed Aug 26 14:52:15 2020.
