 Gaussian 09, Revision D.01,
 Gaussian 09:  ES64L-G09RevD.01 24-Apr-2013

 --------------------
 #p B2PLYPD3/Def2QZVP
 --------------------

 --------
 methanol
 --------
 Symbolic Z-matrix:
 Charge =  0 Multiplicity = 1

                         Standard orientation:
 ---------------------------------------------------------------------
 Center     Atomic      Atomic             Coordinates (Angstroms)
 Number     Number       Type             X           Y           Z
 ---------------------------------------------------------------------
      1          6           0        0.668428   -0.025299    0.001355
      2          8           0       -0.752774    0.111192   -0.005401
      3          1           0        1.005385   -0.612235   -0.864054
      4          1           0        1.017830   -0.452875    0.933355
      5          1           0        1.068546    1.024425   -0.072700
      6          1           0       -1.080138   -0.697057    0.038483
 ---------------------------------------------------------------------

 SCF Done:  E(RB2PLYPD3) =  -115.544289574     A.U. after   10 cycles
 E2(B2PLYPD3) =    -0.1460342954D+00 E(B2PLYPD3) =    -0.11569032386968D+03

 The electronic state is 1-A.
 Alpha  occ. eigenvalues --  -19.71681 -10.66167  -1.18143  -0.79115  -0.59667
 Alpha  occ. eigenvalues --   -0.52325  -0.49381  -0.41407  -0.35796
 Alpha virt. eigenvalues --    0.05268   0.08664   0.12146   0.12256   0.14716
 Alpha virt. eigenvalues --    0.17205   0.17995   0.29018   0.32840   0.33349
 Alpha virt. eigenvalues --    0.37551   0.37993   0.40150   0.41029   0.43641

 Mulliken charges:
               1
     1  C    0.067242
     2  O   -0.418465
     3  H    0.051118
     4  H    0.053695
     5  H    0.067739
     6  H    0.178671
 Sum of Mulliken charges =   0.00000

 Dipole moment (field-independent basis, Debye):
    X=              0.9799    Y=             -1.4603    Z=              0.0921  Tot=              1.7610
 Quadrupole moment (field-independent basis, Debye-Ang):
   XX=            -13.2811   YY=            -12.2559   ZZ=            -13.6289
   XY=              2.0678   XZ=             -0.0834   YZ=             -0.0466

 Normal termination of Gaussian 09 at Thu Aug 27 00:06:06 2020.
