 Gaussian 09, Revision D.01,
 Gaussian 09:  ES64L-G09RevD.01 24-Apr-2013

 --------------------
 #p B2PLYPD3/Def2QZVP
 --------------------

 --------
 methanol
 --------
 Symbolic Z-matrix:
 Charge =  0 Multiplicity = 1

                         Standard orientation:
 ---------------------------------------------------------------------
 Center     Atomic      Atomic             Coordinates (Angstroms)
 Number     Number       Type             X           Y           Z
 ---------------------------------------------------------------------
      1          6           0        0.703663    0.000943    0.009449
      2          8           0       -0.761425    0.079829   -0.009713
      3          1           0        0.924310   -0.875867   -0.811781
      4          1           0        1.200441   -0.243251    1.016221
      5          1           0        0.956560    0.995785   -0.364746
      6          1           0       -1.211892   -0.520957    0.181315
 ---------------------------------------------------------------------

 SCF Done:  E(RB2PLYPD3) =  -115.483020819     A.U. after   11 cycles
 E2(B2PLYPD3) =    -0.1456770407D+00 E(B2PLYPD3) =    -0.11562869785971D+03

 The electronic state is 1-A.
 Alpha  occ. eigenvalues --  -19.69928 -10.68752  -1.19158  -0.80443  -0.59659
 Alpha  occ. eigenvalues --   -0.50391  -0.49757  -0.40346  -0.35270
 Alpha virt. eigenvalues --    0.05288   0.08535   0.11580   0.12100   0.14188
 Alpha virt. eigenvalues --    0.16387   0.17990   0.28554   0.30500   0.33392
 Alpha virt. eigenvalues --    0.35839   0.37435   0.39892   0.40133   0.42262

 Mulliken charges:
               1
     1  C    0.052223
     2  O   -0.347339
     3  H    0.046171
     4  H    0.065141
     5  H    0.094673
     6  H    0.089130
 Sum of Mulliken charges =   0.00000

 Dipole moment (field-independent basis, Debye):
    X=              0.9051    Y=             -1.1073    Z=              0.4110  Tot=              1.4880
 Quadrupole moment (field-independent basis, Debye-Ang):
   XX=            -12.7754   YY=            -12.6805   ZZ=            -13.5390
   XY=              2.0385   XZ=             -0.2696   YZ=             -0.3751

 Normal termination of Gaussian 09 at Wed Aug 26 23:28:59 2020.
