 Gaussian 09, Revision D.01,
 Gaussian 09:  ES64L-G09RevD.01 24-Apr-2013

 --------------------
 #p B2PLYPD3/Def2QZVP
 --------------------

 --------
 methanol
 --------
 Symbolic Z-matrix:
 Charge =  0 Multiplicity = 1

                         Standard orientation:
 ---------------------------------------------------------------------
 Center     Atomic      Atomic             Coordinates (Angstroms)
 Number     Number       Type             X           Y           Z
 ---------------------------------------------------------------------
      1          6           0        0.671744   -0.006590    0.006789
      2          8           0       -0.742055    0.106441   -0.014303
      3          1           0        1.042034   -0.691856   -0.845900
      4          1           0        0.994267   -0.440624    0.963118
      5          1           0        1.049669    0.984749   -0.107540
      6          1           0       -1.179989   -0.664259    0.064012
 ---------------------------------------------------------------------

 SCF Done:  E(RB2PLYPD3) =  -115.545501673     A.U. after   10 cycles
 E2(B2PLYPD3) =    -0.1460382986D+00 E(B2PLYPD3) =    -0.11569153997172D+03

 The electronic state is 1-A.
 Alpha  occ. eigenvalues --  -19.71531 -10.66348  -1.17364  -0.79413  -0.59449
 Alpha  occ. eigenvalues --   -0.51228  -0.50741  -0.40758  -0.35110
 Alpha virt. eigenvalues --    0.05255   0.08505   0.12183   0.12460   0.14788
 Alpha virt. eigenvalues --    0.17001   0.17838   0.29181   0.32976   0.33340
 Alpha virt. eigenvalues --    0.36901   0.38935   0.40032   0.40236   0.43353

 Mulliken charges:
               1
     1  C    0.071114
     2  O   -0.436519
     3  H    0.039743
     4  H    0.049555
     5  H    0.081833
     6  H    0.194274
 Sum of Mulliken charges =   0.00000

 Dipole moment (field-independent basis, Debye):
    X=              0.7866    Y=             -1.3552    Z=              0.1936  Tot=              1.5789
 Quadrupole moment (field-independent basis, Debye-Ang):
   XX=            -12.8642   YY=            -12.3480   ZZ=            -13.7607
   XY=              2.2633   XZ=             -0.1993   YZ=             -0.1423

 Normal termination of Gaussian 09 at Wed Aug 26 10:04:11 2020.
