 Gaussian 09, Revision D.01,
 Gaussian 09:  ES64L-G09RevD.01 24-Apr-2013

 --------------------
 #p B2PLYPD3/Def2QZVP
 --------------------

 --------
 methanol
 --------
 Symbolic Z-matrix:
 Charge =  0 Multiplicity = 1

                         Standard orientation:
 ---------------------------------------------------------------------
 Center     Atomic      Atomic             Coordinates (Angstroms)
 Number     Number       Type             X           Y           Z
 ---------------------------------------------------------------------
      1          6           0       -0.645467   -0.050130    0.012731
      2          8           0        0.727771    0.104230   -0.017161
      3          1           0       -0.895416   -0.467723    0.941991
      4          1           0       -1.029667   -0.535848   -0.917279
      5          1           0       -1.031794    1.101154   -0.005756
      6          1           0        1.007511   -0.630639    0.041949
 ---------------------------------------------------------------------

 SCF Done:  E(RB2PLYPD3) =  -115.498371313     A.U. after   10 cycles
 E2(B2PLYPD3) =    -0.1446487633D+00 E(B2PLYPD3) =    -0.11564302007647D+03

 The electronic state is 1-A.
 Alpha  occ. eigenvalues --  -19.70767 -10.66581  -1.22548  -0.79608  -0.61395
 Alpha  occ. eigenvalues --   -0.54302  -0.49420  -0.40188  -0.36161
 Alpha virt. eigenvalues --    0.05283   0.09256   0.11700   0.12010   0.14420
 Alpha virt. eigenvalues --    0.17194   0.18113   0.28594   0.33110   0.33843
 Alpha virt. eigenvalues --    0.35536   0.38753   0.41250   0.41979   0.44237

 Mulliken charges:
               1
     1  C    0.051566
     2  O   -0.317329
     3  H    0.060241
     4  H    0.054755
     5  H    0.047898
     6  H    0.102869
 Sum of Mulliken charges =   0.00000

 Dipole moment (field-independent basis, Debye):
    X=             -0.8268    Y=             -1.4531    Z=              0.1687  Tot=              1.6803
 Quadrupole moment (field-independent basis, Debye-Ang):
   XX=            -13.6771   YY=            -12.4550   ZZ=            -13.3394
   XY=             -1.7882   XZ=              0.2058   YZ=             -0.0982

 Normal termination of Gaussian 09 at Wed Aug 26 23:09:15 2020.
