 Gaussian 09, Revision D.01,
 Gaussian 09:  ES64L-G09RevD.01 24-Apr-2013

 --------------------
 #p B2PLYPD3/Def2QZVP
 --------------------

 --------
 methanol
 --------
 Symbolic Z-matrix:
 Charge =  0 Multiplicity = 1

                         Standard orientation:
 ---------------------------------------------------------------------
 Center     Atomic      Atomic             Coordinates (Angstroms)
 Number     Number       Type             X           Y           Z
 ---------------------------------------------------------------------
      1          6           0        0.673194    0.013492    0.013719
      2          8           0       -0.749758   -0.047117   -0.072831
      3          1           0        0.827777   -0.281305    1.103291
      4          1           0        1.082758    1.072931   -0.355463
      5          1           0        1.052319   -0.857655   -0.617200
      6          1           0       -1.003956    0.362017    0.369706
 ---------------------------------------------------------------------

 SCF Done:  E(RB2PLYPD3) =  -115.342474554     A.U. after   11 cycles
 E2(B2PLYPD3) =    -0.1437278468D+00 E(B2PLYPD3) =    -0.11548620240101D+03

 The electronic state is 1-A.
 Alpha  occ. eigenvalues --  -19.68921 -10.68394  -1.26471  -0.81245  -0.61007
 Alpha  occ. eigenvalues --   -0.52403  -0.50366  -0.41207  -0.36153
 Alpha virt. eigenvalues --    0.05280   0.09367   0.11436   0.12030   0.13795
 Alpha virt. eigenvalues --    0.16770   0.17860   0.28237   0.31774   0.32774
 Alpha virt. eigenvalues --    0.35938   0.37331   0.39324   0.41255   0.44186

 Mulliken charges:
               1
     1  C    0.050886
     2  O   -0.218966
     3  H    0.052509
     4  H    0.054137
     5  H    0.078520
     6  H   -0.017086
 Sum of Mulliken charges =   0.00000

 Dipole moment (field-independent basis, Debye):
    X=              1.0613    Y=              0.7490    Z=              0.9137  Tot=              1.5882
 Quadrupole moment (field-independent basis, Debye-Ang):
   XX=            -13.6281   YY=            -12.7251   ZZ=            -13.0012
   XY=             -1.2094   XZ=             -1.5209   YZ=              0.3474

 Normal termination of Gaussian 09 at Wed Aug 26 22:23:01 2020.
