 Gaussian 09, Revision D.01,
 Gaussian 09:  ES64L-G09RevD.01 24-Apr-2013

 --------------------
 #p B2PLYPD3/Def2QZVP
 --------------------

 --------
 methanol
 --------
 Symbolic Z-matrix:
 Charge =  0 Multiplicity = 1

                         Standard orientation:
 ---------------------------------------------------------------------
 Center     Atomic      Atomic             Coordinates (Angstroms)
 Number     Number       Type             X           Y           Z
 ---------------------------------------------------------------------
      1          6           0        0.657245    0.027029    0.002033
      2          8           0       -0.715327   -0.139378   -0.038019
      3          1           0        0.795717    0.225896    1.027572
      4          1           0        1.019579    0.801693   -0.673815
      5          1           0        1.118790   -0.874181   -0.188068
      6          1           0       -1.154941    0.799445    0.126264
 ---------------------------------------------------------------------

 SCF Done:  E(RB2PLYPD3) =  -115.535064950     A.U. after   11 cycles
 E2(B2PLYPD3) =    -0.1480187005D+00 E(B2PLYPD3) =    -0.11568308365100D+03

 The electronic state is 1-A.
 Alpha  occ. eigenvalues --  -19.72599 -10.63959  -1.15708  -0.78359  -0.57551
 Alpha  occ. eigenvalues --   -0.53427  -0.50980  -0.40164  -0.34391
 Alpha virt. eigenvalues --    0.04221   0.08262   0.12163   0.13054   0.14430
 Alpha virt. eigenvalues --    0.17375   0.18201   0.29153   0.31577   0.32765
 Alpha virt. eigenvalues --    0.34829   0.39962   0.41135   0.41708   0.43546

 Mulliken charges:
               1
     1  C    0.067965
     2  O   -0.468579
     3  H    0.049059
     4  H    0.038646
     5  H    0.065852
     6  H    0.247057
 Sum of Mulliken charges =   0.00000

 Dipole moment (field-independent basis, Debye):
    X=              0.7470    Y=              1.5110    Z=              0.2963  Tot=              1.7114
 Quadrupole moment (field-independent basis, Debye-Ang):
   XX=            -13.0895   YY=            -12.1395   ZZ=            -13.6771
   XY=             -2.4553   XZ=             -0.6355   YZ=              0.0959

 Normal termination of Gaussian 09 at Wed Aug 26 23:57:09 2020.
