 Gaussian 09, Revision D.01,
 Gaussian 09:  ES64L-G09RevD.01 24-Apr-2013

 --------------------
 #p B2PLYPD3/Def2QZVP
 --------------------

 --------
 methanol
 --------
 Symbolic Z-matrix:
 Charge =  0 Multiplicity = 1

                         Standard orientation:
 ---------------------------------------------------------------------
 Center     Atomic      Atomic             Coordinates (Angstroms)
 Number     Number       Type             X           Y           Z
 ---------------------------------------------------------------------
      1          6           0        0.676008    0.023467    0.009179
      2          8           0       -0.737242   -0.154356    0.000665
      3          1           0        1.006223    0.528602    0.841853
      4          1           0        1.043016    0.549813   -0.834138
      5          1           0        1.056051   -0.901579   -0.041574
      6          1           0       -1.263401    0.917211   -0.026536
 ---------------------------------------------------------------------

 SCF Done:  E(RB2PLYPD3) =  -115.507927460     A.U. after   11 cycles
 E2(B2PLYPD3) =    -0.1511556311D+00 E(B2PLYPD3) =    -0.11565908309093D+03

 The electronic state is 1-A.
 Alpha  occ. eigenvalues --  -19.73919 -10.63299  -1.12482  -0.78997  -0.56291
 Alpha  occ. eigenvalues --   -0.52025  -0.49519  -0.40421  -0.34917
 Alpha virt. eigenvalues --    0.02565   0.07672   0.12707   0.12804   0.14962
 Alpha virt. eigenvalues --    0.17161   0.18260   0.26797   0.29536   0.33483
 Alpha virt. eigenvalues --    0.34148   0.38852   0.40193   0.42250   0.44064

 Mulliken charges:
               1
     1  C    0.086258
     2  O   -0.501763
     3  H    0.048788
     4  H    0.041738
     5  H    0.071280
     6  H    0.253698
 Sum of Mulliken charges =   0.00000

 Dipole moment (field-independent basis, Debye):
    X=              0.8553    Y=              1.6365    Z=             -0.0290  Tot=              1.8468
 Quadrupole moment (field-independent basis, Debye-Ang):
   XX=            -12.6336   YY=            -11.8968   ZZ=            -13.9271
   XY=             -2.5396   XZ=              0.0396   YZ=              0.0289

 Normal termination of Gaussian 09 at Wed Aug 26 14:40:51 2020.
