 Gaussian 09, Revision D.01,
 Gaussian 09:  ES64L-G09RevD.01 24-Apr-2013

 --------------------
 #p B2PLYPD3/Def2QZVP
 --------------------

 --------
 methanol
 --------
 Symbolic Z-matrix:
 Charge =  0 Multiplicity = 1

                         Standard orientation:
 ---------------------------------------------------------------------
 Center     Atomic      Atomic             Coordinates (Angstroms)
 Number     Number       Type             X           Y           Z
 ---------------------------------------------------------------------
      1          6           0       -0.661824   -0.035054   -0.008520
      2          8           0        0.736860    0.139382    0.007168
      3          1           0       -1.039560   -0.535557    0.860685
      4          1           0       -1.037147   -0.527742   -0.819686
      5          1           0       -1.062548    0.991121   -0.011369
      6          1           0        1.215317   -0.832554   -0.035849
 ---------------------------------------------------------------------

 SCF Done:  E(RB2PLYPD3) =  -115.535128021     A.U. after   11 cycles
 E2(B2PLYPD3) =    -0.1491851421D+00 E(B2PLYPD3) =    -0.11568431316263D+03

 The electronic state is 1-A.
 Alpha  occ. eigenvalues --  -19.73491 -10.64434  -1.14309  -0.78499  -0.57788
 Alpha  occ. eigenvalues --   -0.52152  -0.49150  -0.40477  -0.35229
 Alpha virt. eigenvalues --    0.03989   0.07824   0.12342   0.12779   0.15192
 Alpha virt. eigenvalues --    0.17107   0.18313   0.29008   0.30807   0.33604
 Alpha virt. eigenvalues --    0.34588   0.38152   0.39550   0.42051   0.44778

 Mulliken charges:
               1
     1  C    0.073966
     2  O   -0.481300
     3  H    0.046710
     4  H    0.049595
     5  H    0.063067
     6  H    0.247962
 Sum of Mulliken charges =   0.00000

 Dipole moment (field-independent basis, Debye):
    X=             -0.7727    Y=             -1.6343    Z=             -0.1171  Tot=              1.8115
 Quadrupole moment (field-independent basis, Debye-Ang):
   XX=            -12.7625   YY=            -12.0943   ZZ=            -13.9138
   XY=             -2.3090   XZ=             -0.0358   YZ=              0.0862

 Normal termination of Gaussian 09 at Wed Aug 26 12:28:03 2020.
