 Gaussian 09, Revision D.01,
 Gaussian 09:  ES64L-G09RevD.01 24-Apr-2013

 --------------------
 #p B2PLYPD3/Def2QZVP
 --------------------

 --------
 methanol
 --------
 Symbolic Z-matrix:
 Charge =  0 Multiplicity = 1

                         Standard orientation:
 ---------------------------------------------------------------------
 Center     Atomic      Atomic             Coordinates (Angstroms)
 Number     Number       Type             X           Y           Z
 ---------------------------------------------------------------------
      1          6           0        0.680353    0.016187    0.002628
      2          8           0       -0.757173   -0.127394   -0.003044
      3          1           0        1.013737    0.475115    0.920960
      4          1           0        1.069314    0.545235   -0.868484
      5          1           0        1.014796   -0.941709   -0.039003
      6          1           0       -1.122585    0.843388   -0.004887
 ---------------------------------------------------------------------

 SCF Done:  E(RB2PLYPD3) =  -115.541844340     A.U. after   10 cycles
 E2(B2PLYPD3) =    -0.1489264357D+00 E(B2PLYPD3) =    -0.11569077077570D+03

 The electronic state is 1-A.
 Alpha  occ. eigenvalues --  -19.73119 -10.64690  -1.14040  -0.78927  -0.57247
 Alpha  occ. eigenvalues --   -0.51857  -0.49343  -0.41580  -0.35395
 Alpha virt. eigenvalues --    0.04464   0.08012   0.12302   0.12640   0.14722
 Alpha virt. eigenvalues --    0.17079   0.18341   0.28903   0.32062   0.33378
 Alpha virt. eigenvalues --    0.33639   0.38442   0.40509   0.41245   0.43914

 Mulliken charges:
               1
     1  C    0.071183
     2  O   -0.484216
     3  H    0.051908
     4  H    0.048287
     5  H    0.073608
     6  H    0.239230
 Sum of Mulliken charges =   0.00000

 Dipole moment (field-independent basis, Debye):
    X=              1.0326    Y=              1.5285    Z=              0.0027  Tot=              1.8446
 Quadrupole moment (field-independent basis, Debye-Ang):
   XX=            -13.2104   YY=            -12.0105   ZZ=            -13.7218
   XY=             -2.2696   XZ=             -0.0459   YZ=              0.0106

 Normal termination of Gaussian 09 at Wed Aug 26 12:14:38 2020.
