 Gaussian 09, Revision D.01,
 Gaussian 09:  ES64L-G09RevD.01 24-Apr-2013

 --------------------
 #p B2PLYPD3/Def2QZVP
 --------------------

 --------
 methanol
 --------
 Symbolic Z-matrix:
 Charge =  0 Multiplicity = 1

                         Standard orientation:
 ---------------------------------------------------------------------
 Center     Atomic      Atomic             Coordinates (Angstroms)
 Number     Number       Type             X           Y           Z
 ---------------------------------------------------------------------
      1          6           0        0.669351    0.030083   -0.002081
      2          8           0       -0.737927   -0.148018    0.004747
      3          1           0        1.024451    0.525508    0.855413
      4          1           0        1.015025    0.525108   -0.836990
      5          1           0        1.057976   -0.935941   -0.019188
      6          1           0       -1.210144    0.888968   -0.024724
 ---------------------------------------------------------------------

 SCF Done:  E(RB2PLYPD3) =  -115.523916567     A.U. after   11 cycles
 E2(B2PLYPD3) =    -0.1501414615D+00 E(B2PLYPD3) =    -0.11567405802814D+03

 The electronic state is 1-A.
 Alpha  occ. eigenvalues --  -19.73699 -10.63650  -1.13324  -0.78768  -0.56740
 Alpha  occ. eigenvalues --   -0.52422  -0.49362  -0.40609  -0.35141
 Alpha virt. eigenvalues --    0.03342   0.07806   0.12610   0.12715   0.15000
 Alpha virt. eigenvalues --    0.17177   0.18298   0.28217   0.29715   0.33568
 Alpha virt. eigenvalues --    0.34261   0.39176   0.39769   0.42362   0.44235

 Mulliken charges:
               1
     1  C    0.081646
     2  O   -0.492866
     3  H    0.047219
     4  H    0.046493
     5  H    0.066635
     6  H    0.250874
 Sum of Mulliken charges =   0.00000

 Dipole moment (field-independent basis, Debye):
    X=              0.8724    Y=              1.6364    Z=             -0.0704  Tot=              1.8558
 Quadrupole moment (field-independent basis, Debye-Ang):
   XX=            -12.8464   YY=            -11.9534   ZZ=            -13.8496
   XY=             -2.4152   XZ=              0.0364   YZ=             -0.0370

 Normal termination of Gaussian 09 at Thu Aug 27 00:02:35 2020.
