 Gaussian 09, Revision D.01,
 Gaussian 09:  ES64L-G09RevD.01 24-Apr-2013

 --------------------
 #p B2PLYPD3/Def2QZVP
 --------------------

 --------
 methanol
 --------
 Symbolic Z-matrix:
 Charge =  0 Multiplicity = 1

                         Standard orientation:
 ---------------------------------------------------------------------
 Center     Atomic      Atomic             Coordinates (Angstroms)
 Number     Number       Type             X           Y           Z
 ---------------------------------------------------------------------
      1          6           0        0.645975    0.027221   -0.012618
      2          8           0       -0.705665   -0.183941    0.010469
      3          1           0        0.847285    0.579879    0.884791
      4          1           0        1.048825    0.492288   -0.749408
      5          1           0        1.084071   -0.813060   -0.012774
      6          1           0       -1.210706    1.049093   -0.130653
 ---------------------------------------------------------------------

 SCF Done:  E(RB2PLYPD3) =  -115.445906488     A.U. after   11 cycles
 E2(B2PLYPD3) =    -0.1532986180D+00 E(B2PLYPD3) =    -0.11559920510578D+03

 The electronic state is 1-A.
 Alpha  occ. eigenvalues --  -19.74674 -10.61435  -1.13940  -0.79567  -0.56343
 Alpha  occ. eigenvalues --   -0.53818  -0.49895  -0.39596  -0.34297
 Alpha virt. eigenvalues --   -0.00307   0.07754   0.12616   0.12999   0.14847
 Alpha virt. eigenvalues --    0.17646   0.18324   0.23311   0.29594   0.32607
 Alpha virt. eigenvalues --    0.36290   0.38970   0.40079   0.43475   0.45903

 Mulliken charges:
               1
     1  C    0.088019
     2  O   -0.466569
     3  H    0.039141
     4  H    0.033461
     5  H    0.061444
     6  H    0.244504
 Sum of Mulliken charges =   0.00000

 Dipole moment (field-independent basis, Debye):
    X=              0.8492    Y=              1.6691    Z=             -0.3051  Tot=              1.8974
 Quadrupole moment (field-independent basis, Debye-Ang):
   XX=            -13.0054   YY=            -11.6290   ZZ=            -13.8642
   XY=             -2.6152   XZ=             -0.0785   YZ=             -0.2186

 Normal termination of Gaussian 09 at Wed Aug 26 19:29:40 2020.
