 Gaussian 09, Revision D.01,
 Gaussian 09:  ES64L-G09RevD.01 24-Apr-2013

 --------------------
 #p B2PLYPD3/Def2QZVP
 --------------------

 --------
 methanol
 --------
 Symbolic Z-matrix:
 Charge =  0 Multiplicity = 1

                         Standard orientation:
 ---------------------------------------------------------------------
 Center     Atomic      Atomic             Coordinates (Angstroms)
 Number     Number       Type             X           Y           Z
 ---------------------------------------------------------------------
      1          6           0        0.667034    0.003681    0.007408
      2          8           0       -0.762523   -0.007220   -0.069864
      3          1           0        0.882795   -0.699563    0.936120
      4          1           0        1.057743    1.191179    0.081399
      5          1           0        1.082081   -0.559493   -0.913670
      6          1           0       -0.924639    0.103556    0.410615
 ---------------------------------------------------------------------

 SCF Done:  E(RB2PLYPD3) =  -114.881354233     A.U. after   11 cycles
 E2(B2PLYPD3) =    -0.1433573175D+00 E(B2PLYPD3) =    -0.11502471155024D+03

 The electronic state is 1-A.
 Alpha  occ. eigenvalues --  -19.68716 -10.69987  -1.34152  -0.82222  -0.62067
 Alpha  occ. eigenvalues --   -0.51825  -0.50817  -0.42002  -0.36742
 Alpha virt. eigenvalues --    0.04958   0.09645   0.10890   0.11668   0.13753
 Alpha virt. eigenvalues --    0.16803   0.17661   0.27045   0.31524   0.32023
 Alpha virt. eigenvalues --    0.34448   0.35887   0.38490   0.41006   0.45200

 Mulliken charges:
               1
     1  C    0.050409
     2  O   -0.065313
     3  H    0.049055
     4  H    0.053821
     5  H    0.083711
     6  H   -0.171683
 Sum of Mulliken charges =   0.00000

 Dipole moment (field-independent basis, Debye):
    X=              1.2420    Y=              0.1272    Z=              1.0243  Tot=              1.6149
 Quadrupole moment (field-independent basis, Debye-Ang):
   XX=            -13.8282   YY=            -12.9496   ZZ=            -12.6139
   XY=             -0.4455   XZ=             -1.7240   YZ=              0.2208

 Normal termination of Gaussian 09 at Wed Aug 26 23:49:26 2020.
