 Gaussian 09, Revision D.01,
 Gaussian 09:  ES64L-G09RevD.01 24-Apr-2013

 --------------------
 #p B2PLYPD3/Def2QZVP
 --------------------

 --------
 methanol
 --------
 Symbolic Z-matrix:
 Charge =  0 Multiplicity = 1

                         Standard orientation:
 ---------------------------------------------------------------------
 Center     Atomic      Atomic             Coordinates (Angstroms)
 Number     Number       Type             X           Y           Z
 ---------------------------------------------------------------------
      1          6           0       -0.684397    0.030111   -0.015420
      2          8           0        0.744167   -0.179976    0.003320
      3          1           0       -0.936133    0.425074   -0.822038
      4          1           0       -0.871085    0.526067    0.850768
      5          1           0       -1.107780   -0.791573    0.069536
      6          1           0        1.068043    1.099573   -0.032307
 ---------------------------------------------------------------------

 SCF Done:  E(RB2PLYPD3) =  -115.434912829     A.U. after   11 cycles
 E2(B2PLYPD3) =    -0.1540877654D+00 E(B2PLYPD3) =    -0.11558900059453D+03

 The electronic state is 1-A.
 Alpha  occ. eigenvalues --  -19.74421 -10.60896  -1.11435  -0.80880  -0.56383
 Alpha  occ. eigenvalues --   -0.54599  -0.48281  -0.40054  -0.35201
 Alpha virt. eigenvalues --    0.00379   0.07802   0.12335   0.12789   0.14116
 Alpha virt. eigenvalues --    0.18008   0.18152   0.23835   0.29373   0.32539
 Alpha virt. eigenvalues --    0.33411   0.39297   0.41292   0.43585   0.45199

 Mulliken charges:
               1
     1  C    0.099188
     2  O   -0.497224
     3  H    0.049804
     4  H    0.048328
     5  H    0.061085
     6  H    0.238819
 Sum of Mulliken charges =   0.00000

 Dipole moment (field-independent basis, Debye):
    X=             -1.3392    Y=              1.6837    Z=             -0.0709  Tot=              2.1525
 Quadrupole moment (field-independent basis, Debye-Ang):
   XX=            -13.5916   YY=            -11.4295   ZZ=            -13.5224
   XY=              2.3954   XZ=              0.0374   YZ=             -0.1072

 Normal termination of Gaussian 09 at Wed Aug 26 19:23:42 2020.
