 Gaussian 09, Revision D.01,
 Gaussian 09:  ES64L-G09RevD.01 24-Apr-2013

 --------------------
 #p B2PLYPD3/Def2QZVP
 --------------------

 --------
 methanol
 --------
 Symbolic Z-matrix:
 Charge =  0 Multiplicity = 1

                         Standard orientation:
 ---------------------------------------------------------------------
 Center     Atomic      Atomic             Coordinates (Angstroms)
 Number     Number       Type             X           Y           Z
 ---------------------------------------------------------------------
      1          6           0        0.672802   -0.030544   -0.000285
      2          8           0       -0.746453    0.141040   -0.004708
      3          1           0        1.013048   -0.578002   -0.829147
      4          1           0        1.047818   -0.486986    0.849864
      5          1           0        1.072447    0.971001   -0.024281
      6          1           0       -1.198501   -0.851067    0.042935
 ---------------------------------------------------------------------

 SCF Done:  E(RB2PLYPD3) =  -115.534574345     A.U. after   11 cycles
 E2(B2PLYPD3) =    -0.1494989031D+00 E(B2PLYPD3) =    -0.11568407324847D+03

 The electronic state is 1-A.
 Alpha  occ. eigenvalues --  -19.73474 -10.64268  -1.13550  -0.78772  -0.57169
 Alpha  occ. eigenvalues --   -0.52223  -0.48983  -0.40854  -0.35300
 Alpha virt. eigenvalues --    0.03940   0.07824   0.12406   0.12726   0.15030
 Alpha virt. eigenvalues --    0.17183   0.18234   0.28964   0.30624   0.33486
 Alpha virt. eigenvalues --    0.33897   0.38715   0.39595   0.42187   0.44415

 Mulliken charges:
               1
     1  C    0.079931
     2  O   -0.491124
     3  H    0.048629
     4  H    0.048891
     5  H    0.066181
     6  H    0.247492
 Sum of Mulliken charges =   0.00000

 Dipole moment (field-independent basis, Debye):
    X=              0.8972    Y=             -1.6368    Z=              0.0946  Tot=              1.8689
 Quadrupole moment (field-independent basis, Debye-Ang):
   XX=            -12.8432   YY=            -12.0039   ZZ=            -13.8851
   XY=              2.3347   XZ=             -0.0521   YZ=             -0.0428

 Normal termination of Gaussian 09 at Wed Aug 26 12:28:43 2020.
