 Gaussian 09, Revision D.01,
 Gaussian 09:  ES64L-G09RevD.01 24-Apr-2013

 --------------------
 #p B2PLYPD3/Def2QZVP
 --------------------

 --------
 methanol
 --------
 Symbolic Z-matrix:
 Charge =  0 Multiplicity = 1

                         Standard orientation:
 ---------------------------------------------------------------------
 Center     Atomic      Atomic             Coordinates (Angstroms)
 Number     Number       Type             X           Y           Z
 ---------------------------------------------------------------------
      1          6           0       -0.667319    0.010444    0.005661
      2          8           0        0.749774   -0.142932   -0.006410
      3          1           0       -1.049292    0.562306   -0.852621
      4          1           0       -1.007073    0.528315    0.854042
      5          1           0       -1.098922   -0.899426   -0.003586
      6          1           0        1.161010    0.889595    0.019473
 ---------------------------------------------------------------------

 SCF Done:  E(RB2PLYPD3) =  -115.528217839     A.U. after   11 cycles
 E2(B2PLYPD3) =    -0.1498212372D+00 E(B2PLYPD3) =    -0.11567803907651D+03

 The electronic state is 1-A.
 Alpha  occ. eigenvalues --  -19.73751 -10.64047  -1.13565  -0.78958  -0.56833
 Alpha  occ. eigenvalues --   -0.51435  -0.50229  -0.41198  -0.35017
 Alpha virt. eigenvalues --    0.03594   0.07800   0.12603   0.12736   0.14878
 Alpha virt. eigenvalues --    0.17616   0.18143   0.28710   0.30022   0.33361
 Alpha virt. eigenvalues --    0.33776   0.39003   0.40797   0.41199   0.43660

 Mulliken charges:
               1
     1  C    0.083886
     2  O   -0.489796
     3  H    0.039455
     4  H    0.043027
     5  H    0.070806
     6  H    0.252621
 Sum of Mulliken charges =   0.00000

 Dipole moment (field-independent basis, Debye):
    X=             -0.9440    Y=              1.6026    Z=              0.0794  Tot=              1.8617
 Quadrupole moment (field-independent basis, Debye-Ang):
   XX=            -12.9673   YY=            -11.9072   ZZ=            -13.9365
   XY=              2.4486   XZ=              0.0402   YZ=              0.0589

 Normal termination of Gaussian 09 at Thu Aug 27 00:13:56 2020.
