 Gaussian 09, Revision D.01,
 Gaussian 09:  ES64L-G09RevD.01 24-Apr-2013

 --------------------
 #p B2PLYPD3/Def2QZVP
 --------------------

 --------
 methanol
 --------
 Symbolic Z-matrix:
 Charge =  0 Multiplicity = 1

                         Standard orientation:
 ---------------------------------------------------------------------
 Center     Atomic      Atomic             Coordinates (Angstroms)
 Number     Number       Type             X           Y           Z
 ---------------------------------------------------------------------
      1          6           0        0.671707   -0.004398    0.028882
      2          8           0       -0.739501    0.045173   -0.019470
      3          1           0        1.142363   -0.849775   -0.812303
      4          1           0        1.014405   -0.272235    1.064980
      5          1           0        0.961686    1.140194   -0.326765
      6          1           0       -1.232691   -0.353186    0.056558
 ---------------------------------------------------------------------

 SCF Done:  E(RB2PLYPD3) =  -115.281953920     A.U. after   11 cycles
 E2(B2PLYPD3) =    -0.1443784076D+00 E(B2PLYPD3) =    -0.11542633232806D+03

 The electronic state is 1-A.
 Alpha  occ. eigenvalues --  -19.68379 -10.70891  -1.25408  -0.84084  -0.61555
 Alpha  occ. eigenvalues --   -0.51086  -0.49512  -0.38095  -0.35685
 Alpha virt. eigenvalues --    0.04940   0.09233   0.11052   0.11665   0.14286
 Alpha virt. eigenvalues --    0.16354   0.17692   0.28963   0.31556   0.32015
 Alpha virt. eigenvalues --    0.34823   0.35452   0.39372   0.39848   0.42726

 Mulliken charges:
               1
     1  C    0.046472
     2  O   -0.186583
     3  H    0.036913
     4  H    0.071599
     5  H    0.088203
     6  H   -0.056604
 Sum of Mulliken charges =   0.00000

 Dipole moment (field-independent basis, Debye):
    X=              0.6118    Y=             -0.8743    Z=              0.3406  Tot=              1.1202
 Quadrupole moment (field-independent basis, Debye-Ang):
   XX=            -12.5645   YY=            -12.9539   ZZ=            -13.4976
   XY=              1.5128   XZ=             -0.1857   YZ=             -0.2551

 Normal termination of Gaussian 09 at Wed Aug 26 18:57:37 2020.
