 Gaussian 09, Revision D.01,
 Gaussian 09:  ES64L-G09RevD.01 24-Apr-2013

 --------------------
 #p B2PLYPD3/Def2QZVP
 --------------------

 --------
 methanol
 --------
 Symbolic Z-matrix:
 Charge =  0 Multiplicity = 1

                         Standard orientation:
 ---------------------------------------------------------------------
 Center     Atomic      Atomic             Coordinates (Angstroms)
 Number     Number       Type             X           Y           Z
 ---------------------------------------------------------------------
      1          6           0       -0.703700   -0.025272   -0.030214
      2          8           0        0.775768    0.016354    0.055097
      3          1           0       -0.942176   -0.927654   -0.693437
      4          1           0       -1.153487    1.164391   -0.333316
      5          1           0       -1.016118   -0.235284    1.106677
      6          1           0        1.127840    0.019345   -0.339418
 ---------------------------------------------------------------------

 SCF Done:  E(RB2PLYPD3) =  -114.911078824     A.U. after   12 cycles
 E2(B2PLYPD3) =    -0.1443609963D+00 E(B2PLYPD3) =    -0.11505543981991D+03

 The electronic state is 1-A.
 Alpha  occ. eigenvalues --  -19.67584 -10.71557  -1.30326  -0.83482  -0.61143
 Alpha  occ. eigenvalues --   -0.51011  -0.49008  -0.39687  -0.36494
 Alpha virt. eigenvalues --    0.04658   0.09366   0.10667   0.11402   0.13263
 Alpha virt. eigenvalues --    0.16313   0.18041   0.27918   0.29161   0.31348
 Alpha virt. eigenvalues --    0.33719   0.35468   0.38314   0.41160   0.42580

 Mulliken charges:
               1
     1  C    0.052167
     2  O   -0.104856
     3  H    0.077332
     4  H    0.060702
     5  H    0.091373
     6  H   -0.176718
 Sum of Mulliken charges =   0.00000

 Dipole moment (field-independent basis, Debye):
    X=             -1.1690    Y=             -0.1653    Z=             -0.9622  Tot=              1.5230
 Quadrupole moment (field-independent basis, Debye-Ang):
   XX=            -12.9986   YY=            -13.0400   ZZ=            -12.8127
   XY=              0.0162   XZ=             -1.7388   YZ=              0.1162

 Normal termination of Gaussian 09 at Wed Aug 26 19:48:52 2020.
