 Gaussian 09, Revision D.01,
 Gaussian 09:  ES64L-G09RevD.01 24-Apr-2013

 --------------------
 #p B2PLYPD3/Def2QZVP
 --------------------

 --------
 methanol
 --------
 Symbolic Z-matrix:
 Charge =  0 Multiplicity = 1

                         Standard orientation:
 ---------------------------------------------------------------------
 Center     Atomic      Atomic             Coordinates (Angstroms)
 Number     Number       Type             X           Y           Z
 ---------------------------------------------------------------------
      1          6           0       -0.658500   -0.009186    0.022499
      2          8           0        0.753081    0.069729   -0.040234
      3          1           0       -1.023522   -0.163383    1.060257
      4          1           0       -1.131673   -0.862376   -0.745892
      5          1           0       -1.023854    1.022757   -0.335003
      6          1           0        1.105401   -0.499717    0.207517
 ---------------------------------------------------------------------

 SCF Done:  E(RB2PLYPD3) =  -115.434581668     A.U. after   11 cycles
 E2(B2PLYPD3) =    -0.1443543901D+00 E(B2PLYPD3) =    -0.11557893605792D+03

 The electronic state is 1-A.
 Alpha  occ. eigenvalues --  -19.70240 -10.68590  -1.23794  -0.81087  -0.61611
 Alpha  occ. eigenvalues --   -0.51041  -0.50178  -0.40806  -0.35983
 Alpha virt. eigenvalues --    0.05334   0.08950   0.11653   0.12012   0.14606
 Alpha virt. eigenvalues --    0.16780   0.18134   0.28600   0.32542   0.33036
 Alpha virt. eigenvalues --    0.35597   0.37841   0.40051   0.40585   0.42269

 Mulliken charges:
               1
     1  C    0.044440
     2  O   -0.253506
     3  H    0.060123
     4  H    0.039205
     5  H    0.078330
     6  H    0.031408
 Sum of Mulliken charges =   0.00000

 Dipole moment (field-independent basis, Debye):
    X=             -0.8261    Y=             -1.0400    Z=              0.6168  Tot=              1.4644
 Quadrupole moment (field-independent basis, Debye-Ang):
   XX=            -13.0768   YY=            -12.7937   ZZ=            -13.4317
   XY=             -1.8014   XZ=              0.6667   YZ=             -0.3592

 Normal termination of Gaussian 09 at Wed Aug 26 12:24:37 2020.
