 Gaussian 09, Revision D.01,
 Gaussian 09:  ES64L-G09RevD.01 24-Apr-2013

 --------------------
 #p B2PLYPD3/Def2QZVP
 --------------------

 --------
 methanol
 --------
 Symbolic Z-matrix:
 Charge =  0 Multiplicity = 1

                         Standard orientation:
 ---------------------------------------------------------------------
 Center     Atomic      Atomic             Coordinates (Angstroms)
 Number     Number       Type             X           Y           Z
 ---------------------------------------------------------------------
      1          6           0       -0.676659   -0.015356    0.005736
      2          8           0        0.738580    0.116507    0.000196
      3          1           0       -1.054359   -0.460424    0.916696
      4          1           0       -0.955751   -0.687377   -0.843852
      5          1           0       -1.059329    0.995144   -0.138150
      6          1           0        1.220752   -0.687259    0.029321
 ---------------------------------------------------------------------

 SCF Done:  E(RB2PLYPD3) =  -115.550354199     A.U. after   11 cycles
 E2(B2PLYPD3) =    -0.1467542280D+00 E(B2PLYPD3) =    -0.11569710842735D+03

 The electronic state is 1-A.
 Alpha  occ. eigenvalues --  -19.71794 -10.65974  -1.15994  -0.78972  -0.58982
 Alpha  occ. eigenvalues --   -0.51428  -0.50233  -0.40405  -0.34996
 Alpha virt. eigenvalues --    0.05093   0.08297   0.12318   0.12433   0.14858
 Alpha virt. eigenvalues --    0.16969   0.17803   0.29303   0.32771   0.33575
 Alpha virt. eigenvalues --    0.36133   0.38937   0.39496   0.40895   0.43225

 Mulliken charges:
               1
     1  C    0.074675
     2  O   -0.464627
     3  H    0.052771
     4  H    0.041319
     5  H    0.078676
     6  H    0.217186
 Sum of Mulliken charges =   0.00000

 Dipole moment (field-independent basis, Debye):
    X=             -0.7531    Y=             -1.4415    Z=              0.0721  Tot=              1.6280
 Quadrupole moment (field-independent basis, Debye-Ang):
   XX=            -12.7095   YY=            -12.3055   ZZ=            -13.8208
   XY=             -2.3197   XZ=             -0.0216   YZ=             -0.0997

 Normal termination of Gaussian 09 at Wed Aug 26 12:30:34 2020.
