 Gaussian 09, Revision D.01,
 Gaussian 09:  ES64L-G09RevD.01 24-Apr-2013

 --------------------
 #p B2PLYPD3/Def2QZVP
 --------------------

 --------
 methanol
 --------
 Symbolic Z-matrix:
 Charge =  0 Multiplicity = 1

                         Standard orientation:
 ---------------------------------------------------------------------
 Center     Atomic      Atomic             Coordinates (Angstroms)
 Number     Number       Type             X           Y           Z
 ---------------------------------------------------------------------
      1          6           0        0.657382   -0.019988    0.010151
      2          8           0       -0.738569    0.092824   -0.010381
      3          1           0        1.050320   -0.621307   -0.876940
      4          1           0        0.933095   -0.474723    0.962891
      5          1           0        1.027781    1.069259   -0.070167
      6          1           0       -1.046936   -0.595896    0.006360
 ---------------------------------------------------------------------

 SCF Done:  E(RB2PLYPD3) =  -115.484217471     A.U. after   10 cycles
 E2(B2PLYPD3) =    -0.1440999346D+00 E(B2PLYPD3) =    -0.11562831740589D+03

 The electronic state is 1-A.
 Alpha  occ. eigenvalues --  -19.70264 -10.66984  -1.22713  -0.80402  -0.61396
 Alpha  occ. eigenvalues --   -0.52622  -0.49946  -0.41237  -0.35856
 Alpha virt. eigenvalues --    0.05406   0.09241   0.11912   0.12109   0.14724
 Alpha virt. eigenvalues --    0.16944   0.17709   0.28828   0.32808   0.33701
 Alpha virt. eigenvalues --    0.37232   0.38656   0.40213   0.41123   0.43383

 Mulliken charges:
               1
     1  C    0.057424
     2  O   -0.297781
     3  H    0.044444
     4  H    0.054364
     5  H    0.071012
     6  H    0.070536
 Sum of Mulliken charges =   0.00000

 Dipole moment (field-independent basis, Debye):
    X=              0.8858    Y=             -1.3303    Z=              0.0763  Tot=              1.6000
 Quadrupole moment (field-independent basis, Debye-Ang):
   XX=            -13.4149   YY=            -12.3242   ZZ=            -13.5206
   XY=              1.9000   XZ=             -0.1158   YZ=             -0.0582

 Normal termination of Gaussian 09 at Wed Aug 26 15:13:03 2020.
