 Gaussian 09, Revision D.01,
 Gaussian 09:  ES64L-G09RevD.01 24-Apr-2013

 --------------------
 #p B2PLYPD3/Def2QZVP
 --------------------

 --------
 methanol
 --------
 Symbolic Z-matrix:
 Charge =  0 Multiplicity = 1

                         Standard orientation:
 ---------------------------------------------------------------------
 Center     Atomic      Atomic             Coordinates (Angstroms)
 Number     Number       Type             X           Y           Z
 ---------------------------------------------------------------------
      1          6           0       -0.670228   -0.031200    0.008745
      2          8           0        0.744423    0.127953   -0.004883
      3          1           0       -1.021489   -0.459212    0.894779
      4          1           0       -1.025846   -0.595494   -0.852454
      5          1           0       -1.065722    0.991107   -0.075499
      6          1           0        1.179046   -0.772826    0.019766
 ---------------------------------------------------------------------

 SCF Done:  E(RB2PLYPD3) =  -115.549230214     A.U. after   10 cycles
 E2(B2PLYPD3) =    -0.1478742254D+00 E(B2PLYPD3) =    -0.11569710443949D+03

 The electronic state is 1-A.
 Alpha  occ. eigenvalues --  -19.72725 -10.65116  -1.15094  -0.78687  -0.58200
 Alpha  occ. eigenvalues --   -0.52311  -0.49258  -0.40701  -0.35439
 Alpha virt. eigenvalues --    0.04759   0.08103   0.12373   0.12508   0.14910
 Alpha virt. eigenvalues --    0.17111   0.18235   0.29111   0.33268   0.33584
 Alpha virt. eigenvalues --    0.34188   0.38424   0.39700   0.41862   0.44164

 Mulliken charges:
               1
     1  C    0.071742
     2  O   -0.474867
     3  H    0.055082
     4  H    0.047552
     5  H    0.066751
     6  H    0.233739
 Sum of Mulliken charges =   0.00000

 Dipole moment (field-independent basis, Debye):
    X=             -0.8509    Y=             -1.5529    Z=              0.0738  Tot=              1.7723
 Quadrupole moment (field-independent basis, Debye-Ang):
   XX=            -12.8976   YY=            -12.2223   ZZ=            -13.7543
   XY=             -2.2744   XZ=              0.0286   YZ=             -0.0653

 Normal termination of Gaussian 09 at Wed Aug 26 23:14:24 2020.
