 Gaussian 09, Revision D.01,
 Gaussian 09:  ES64L-G09RevD.01 24-Apr-2013

 --------------------
 #p B2PLYPD3/Def2QZVP
 --------------------

 --------
 methanol
 --------
 Symbolic Z-matrix:
 Charge =  0 Multiplicity = 1

                         Standard orientation:
 ---------------------------------------------------------------------
 Center     Atomic      Atomic             Coordinates (Angstroms)
 Number     Number       Type             X           Y           Z
 ---------------------------------------------------------------------
      1          6           0        0.675045    0.033184    0.008671
      2          8           0       -0.734027   -0.161192    0.001740
      3          1           0        0.969821    0.494878    0.855359
      4          1           0        1.057773    0.514238   -0.816452
      5          1           0        1.021021   -0.892074   -0.053143
      6          1           0       -1.226668    0.973386   -0.051714
 ---------------------------------------------------------------------

 SCF Done:  E(RB2PLYPD3) =  -115.491072694     A.U. after   11 cycles
 E2(B2PLYPD3) =    -0.1520518366D+00 E(B2PLYPD3) =    -0.11564312453065D+03

 The electronic state is 1-A.
 Alpha  occ. eigenvalues --  -19.74190 -10.62483  -1.12372  -0.79339  -0.56078
 Alpha  occ. eigenvalues --   -0.53217  -0.48805  -0.40290  -0.35166
 Alpha virt. eigenvalues --    0.01919   0.07729   0.12725   0.12745   0.14929
 Alpha virt. eigenvalues --    0.17028   0.18446   0.25635   0.29452   0.33399
 Alpha virt. eigenvalues --    0.34506   0.38963   0.39900   0.43359   0.44312

 Mulliken charges:
               1
     1  C    0.088020
     2  O   -0.496280
     3  H    0.050523
     4  H    0.043220
     5  H    0.067176
     6  H    0.247341
 Sum of Mulliken charges =   0.00000

 Dipole moment (field-independent basis, Debye):
    X=              0.9570    Y=              1.6542    Z=             -0.0800  Tot=              1.9127
 Quadrupole moment (field-independent basis, Debye-Ang):
   XX=            -12.8888   YY=            -11.7800   ZZ=            -13.7908
   XY=             -2.4524   XZ=              0.0206   YZ=             -0.0039

 Normal termination of Gaussian 09 at Wed Aug 26 14:18:46 2020.
