 Gaussian 09, Revision D.01,
 Gaussian 09:  ES64L-G09RevD.01 24-Apr-2013

 --------------------
 #p B2PLYPD3/Def2QZVP
 --------------------

 --------
 methanol
 --------
 Symbolic Z-matrix:
 Charge =  0 Multiplicity = 1

                         Standard orientation:
 ---------------------------------------------------------------------
 Center     Atomic      Atomic             Coordinates (Angstroms)
 Number     Number       Type             X           Y           Z
 ---------------------------------------------------------------------
      1          6           0        0.689031    0.003358    0.030513
      2          8           0       -0.740958   -0.100302   -0.036730
      3          1           0        0.903923    0.169510    1.049440
      4          1           0        1.102384    0.891762   -0.691282
      5          1           0        1.042861   -0.911473   -0.365916
      6          1           0       -1.255692    0.632468    0.118518
 ---------------------------------------------------------------------

 SCF Done:  E(RB2PLYPD3) =  -115.536824886     A.U. after   11 cycles
 E2(B2PLYPD3) =    -0.1466541168D+00 E(B2PLYPD3) =    -0.11568347900256D+03

 The electronic state is 1-A.
 Alpha  occ. eigenvalues --  -19.71238 -10.66636  -1.15974  -0.79529  -0.58417
 Alpha  occ. eigenvalues --   -0.52696  -0.49544  -0.39580  -0.35050
 Alpha virt. eigenvalues --    0.05234   0.08266   0.11920   0.12551   0.14401
 Alpha virt. eigenvalues --    0.16800   0.17919   0.29187   0.32037   0.32467
 Alpha virt. eigenvalues --    0.36124   0.38358   0.40032   0.41309   0.43603

 Mulliken charges:
               1
     1  C    0.074130
     2  O   -0.464278
     3  H    0.067086
     4  H    0.031337
     5  H    0.085282
     6  H    0.206443
 Sum of Mulliken charges =   0.00000

 Dipole moment (field-independent basis, Debye):
    X=              0.7281    Y=              1.2401    Z=              0.3945  Tot=              1.4912
 Quadrupole moment (field-independent basis, Debye-Ang):
   XX=            -12.6145   YY=            -12.6603   ZZ=            -13.5449
   XY=             -2.3271   XZ=             -0.5463   YZ=              0.3133

 Normal termination of Gaussian 09 at Wed Aug 26 23:51:55 2020.
