 Gaussian 09, Revision D.01,
 Gaussian 09:  ES64L-G09RevD.01 24-Apr-2013

 --------------------
 #p B2PLYPD3/Def2QZVP
 --------------------

 --------
 methanol
 --------
 Symbolic Z-matrix:
 Charge =  0 Multiplicity = 1

                         Standard orientation:
 ---------------------------------------------------------------------
 Center     Atomic      Atomic             Coordinates (Angstroms)
 Number     Number       Type             X           Y           Z
 ---------------------------------------------------------------------
      1          6           0        0.669522    0.029971   -0.009810
      2          8           0       -0.743766   -0.144629    0.006003
      3          1           0        1.032330    0.517052    0.865382
      4          1           0        0.999173    0.531030   -0.823522
      5          1           0        1.069167   -0.951379   -0.014136
      6          1           0       -1.167675    0.880498   -0.016890
 ---------------------------------------------------------------------

 SCF Done:  E(RB2PLYPD3) =  -115.529313052     A.U. after   11 cycles
 E2(B2PLYPD3) =    -0.1497359882D+00 E(B2PLYPD3) =    -0.11567904904049D+03

 The electronic state is 1-A.
 Alpha  occ. eigenvalues --  -19.73593 -10.63859  -1.13600  -0.78845  -0.57061
 Alpha  occ. eigenvalues --   -0.52486  -0.49151  -0.40945  -0.35262
 Alpha virt. eigenvalues --    0.03705   0.07881   0.12505   0.12675   0.14962
 Alpha virt. eigenvalues --    0.17283   0.18237   0.28730   0.30126   0.33534
 Alpha virt. eigenvalues --    0.33998   0.39035   0.39816   0.42194   0.44519

 Mulliken charges:
               1
     1  C    0.082716
     2  O   -0.489792
     3  H    0.045707
     4  H    0.048311
     5  H    0.064999
     6  H    0.248059
 Sum of Mulliken charges =   0.00000

 Dipole moment (field-independent basis, Debye):
    X=              0.9359    Y=              1.6442    Z=             -0.0800  Tot=              1.8936
 Quadrupole moment (field-independent basis, Debye-Ang):
   XX=            -13.0137   YY=            -11.9274   ZZ=            -13.8314
   XY=             -2.3351   XZ=              0.0167   YZ=             -0.0737

 Normal termination of Gaussian 09 at Wed Aug 26 10:09:36 2020.
