 Gaussian 09, Revision D.01,
 Gaussian 09:  ES64L-G09RevD.01 24-Apr-2013

 --------------------
 #p B2PLYPD3/Def2QZVP
 --------------------

 --------
 methanol
 --------
 Symbolic Z-matrix:
 Charge =  0 Multiplicity = 1

                         Standard orientation:
 ---------------------------------------------------------------------
 Center     Atomic      Atomic             Coordinates (Angstroms)
 Number     Number       Type             X           Y           Z
 ---------------------------------------------------------------------
      1          6           0       -0.662427   -0.014978    0.027300
      2          8           0        0.750250    0.065889   -0.047238
      3          1           0       -0.976762   -0.068323    1.062356
      4          1           0       -1.108413   -0.920495   -0.678396
      5          1           0       -1.026234    1.014077   -0.408432
      6          1           0        1.083973   -0.462504    0.238576
 ---------------------------------------------------------------------

 SCF Done:  E(RB2PLYPD3) =  -115.398331099     A.U. after   11 cycles
 E2(B2PLYPD3) =    -0.1439488643D+00 E(B2PLYPD3) =    -0.11554227996345D+03

 The electronic state is 1-A.
 Alpha  occ. eigenvalues --  -19.69678 -10.68449  -1.24858  -0.81478  -0.61800
 Alpha  occ. eigenvalues --   -0.51676  -0.49890  -0.40719  -0.36217
 Alpha virt. eigenvalues --    0.05322   0.09176   0.11575   0.11939   0.14458
 Alpha virt. eigenvalues --    0.16753   0.18070   0.28566   0.32587   0.32842
 Alpha virt. eigenvalues --    0.35712   0.37159   0.40846   0.40859   0.42635

 Mulliken charges:
               1
     1  C    0.046332
     2  O   -0.233878
     3  H    0.064083
     4  H    0.043795
     5  H    0.074082
     6  H    0.005586
 Sum of Mulliken charges =   0.00000

 Dipole moment (field-independent basis, Debye):
    X=             -0.8771    Y=             -1.0001    Z=              0.7142  Tot=              1.5099
 Quadrupole moment (field-independent basis, Debye-Ang):
   XX=            -13.1964   YY=            -12.7907   ZZ=            -13.2589
   XY=             -1.6745   XZ=              0.8075   YZ=             -0.3336

 Normal termination of Gaussian 09 at Wed Aug 26 13:04:21 2020.
