 Gaussian 09, Revision D.01,
 Gaussian 09:  ES64L-G09RevD.01 24-Apr-2013

 --------------------
 #p B2PLYPD3/Def2QZVP
 --------------------

 --------
 methanol
 --------
 Symbolic Z-matrix:
 Charge =  0 Multiplicity = 1

                         Standard orientation:
 ---------------------------------------------------------------------
 Center     Atomic      Atomic             Coordinates (Angstroms)
 Number     Number       Type             X           Y           Z
 ---------------------------------------------------------------------
      1          6           0       -0.665296   -0.021165    0.002176
      2          8           0        0.756024    0.099455   -0.014228
      3          1           0       -1.000463   -0.468746    0.982296
      4          1           0       -1.086647   -0.612870   -0.893457
      5          1           0       -1.101258    1.024719   -0.041695
      6          1           0        1.131946   -0.611747    0.053624
 ---------------------------------------------------------------------

 SCF Done:  E(RB2PLYPD3) =  -115.518308412     A.U. after   10 cycles
 E2(B2PLYPD3) =    -0.1453291422D+00 E(B2PLYPD3) =    -0.11566363755440D+03

 The electronic state is 1-A.
 Alpha  occ. eigenvalues --  -19.71135 -10.67582  -1.19935  -0.79652  -0.60376
 Alpha  occ. eigenvalues --   -0.51400  -0.49967  -0.40697  -0.35870
 Alpha virt. eigenvalues --    0.05391   0.08662   0.11982   0.12241   0.14501
 Alpha virt. eigenvalues --    0.17148   0.18124   0.28845   0.32731   0.33243
 Alpha virt. eigenvalues --    0.36732   0.38905   0.39411   0.39734   0.42892

 Mulliken charges:
               1
     1  C    0.058411
     2  O   -0.363528
     3  H    0.051908
     4  H    0.050926
     5  H    0.073764
     6  H    0.128520
 Sum of Mulliken charges =   0.00000

 Dipole moment (field-independent basis, Debye):
    X=             -0.8804    Y=             -1.3165    Z=              0.1573  Tot=              1.5916
 Quadrupole moment (field-independent basis, Debye-Ang):
   XX=            -12.9531   YY=            -12.5849   ZZ=            -13.6438
   XY=             -2.1163   XZ=              0.2314   YZ=             -0.0660

 Normal termination of Gaussian 09 at Thu Aug 27 00:15:34 2020.
