 Gaussian 09, Revision D.01,
 Gaussian 09:  ES64L-G09RevD.01 24-Apr-2013

 --------------------
 #p B2PLYPD3/Def2QZVP
 --------------------

 --------
 methanol
 --------
 Symbolic Z-matrix:
 Charge =  0 Multiplicity = 1

                         Standard orientation:
 ---------------------------------------------------------------------
 Center     Atomic      Atomic             Coordinates (Angstroms)
 Number     Number       Type             X           Y           Z
 ---------------------------------------------------------------------
      1          6           0        0.647301    0.004339    0.005272
      2          8           0       -0.742221   -0.132168   -0.013814
      3          1           0        1.043911    0.424489    0.905822
      4          1           0        0.998155    0.675287   -0.837001
      5          1           0        1.113544   -0.900249   -0.090989
      6          1           0       -1.101650    0.831788    0.101046
 ---------------------------------------------------------------------

 SCF Done:  E(RB2PLYPD3) =  -115.541377328     A.U. after   10 cycles
 E2(B2PLYPD3) =    -0.1482793192D+00 E(B2PLYPD3) =    -0.11568965664723D+03

 The electronic state is 1-A.
 Alpha  occ. eigenvalues --  -19.73440 -10.64777  -1.15858  -0.78603  -0.58144
 Alpha  occ. eigenvalues --   -0.51629  -0.50901  -0.41211  -0.34913
 Alpha virt. eigenvalues --    0.04278   0.08052   0.12382   0.12790   0.14897
 Alpha virt. eigenvalues --    0.17784   0.18169   0.29128   0.31769   0.32980
 Alpha virt. eigenvalues --    0.34711   0.38932   0.40487   0.41313   0.43922

 Mulliken charges:
               1
     1  C    0.073690
     2  O   -0.461818
     3  H    0.039978
     4  H    0.031355
     5  H    0.070710
     6  H    0.246085
 Sum of Mulliken charges =   0.00000

 Dipole moment (field-independent basis, Debye):
    X=              0.8607    Y=              1.5063    Z=              0.2465  Tot=              1.7522
 Quadrupole moment (field-independent basis, Debye-Ang):
   XX=            -13.1593   YY=            -12.0760   ZZ=            -13.9027
   XY=             -2.3929   XZ=             -0.1455   YZ=              0.1864

 Normal termination of Gaussian 09 at Wed Aug 26 11:55:35 2020.
