 Gaussian 09, Revision D.01,
 Gaussian 09:  ES64L-G09RevD.01 24-Apr-2013

 --------------------
 #p B2PLYPD3/Def2QZVP
 --------------------

 --------
 methanol
 --------
 Symbolic Z-matrix:
 Charge =  0 Multiplicity = 1

                         Standard orientation:
 ---------------------------------------------------------------------
 Center     Atomic      Atomic             Coordinates (Angstroms)
 Number     Number       Type             X           Y           Z
 ---------------------------------------------------------------------
      1          6           0        0.674703    0.002374   -0.005466
      2          8           0       -0.747907    0.081407   -0.020899
      3          1           0        1.044653   -0.781107   -0.819130
      4          1           0        1.042007   -0.350186    1.057190
      5          1           0        1.022134    1.004183   -0.179195
      6          1           0       -1.173751   -0.538392    0.141127
 ---------------------------------------------------------------------

 SCF Done:  E(RB2PLYPD3) =  -115.488505016     A.U. after   10 cycles
 E2(B2PLYPD3) =    -0.1447706575D+00 E(B2PLYPD3) =    -0.11563327567314D+03

 The electronic state is 1-A.
 Alpha  occ. eigenvalues --  -19.70239 -10.68110  -1.20679  -0.80874  -0.60369
 Alpha  occ. eigenvalues --   -0.51459  -0.50323  -0.40473  -0.35320
 Alpha virt. eigenvalues --    0.05376   0.08878   0.11726   0.12321   0.14481
 Alpha virt. eigenvalues --    0.16759   0.17778   0.28964   0.32436   0.32701
 Alpha virt. eigenvalues --    0.36562   0.38131   0.39651   0.40883   0.42362

 Mulliken charges:
               1
     1  C    0.060786
     2  O   -0.328200
     3  H    0.046115
     4  H    0.042178
     5  H    0.092187
     6  H    0.086934
 Sum of Mulliken charges =   0.00000

 Dipole moment (field-independent basis, Debye):
    X=              0.7960    Y=             -1.1302    Z=              0.3150  Tot=              1.4179
 Quadrupole moment (field-independent basis, Debye-Ang):
   XX=            -12.8707   YY=            -12.5544   ZZ=            -13.6648
   XY=              2.0602   XZ=             -0.4988   YZ=             -0.1927

 Normal termination of Gaussian 09 at Wed Aug 26 16:13:02 2020.
