 Gaussian 09, Revision D.01,
 Gaussian 09:  ES64L-G09RevD.01 24-Apr-2013

 --------------------
 #p B2PLYPD3/Def2QZVP
 --------------------

 --------
 methanol
 --------
 Symbolic Z-matrix:
 Charge =  0 Multiplicity = 1

                         Standard orientation:
 ---------------------------------------------------------------------
 Center     Atomic      Atomic             Coordinates (Angstroms)
 Number     Number       Type             X           Y           Z
 ---------------------------------------------------------------------
      1          6           0       -0.656697   -0.024318   -0.000664
      2          8           0        0.735769    0.136446    0.001433
      3          1           0       -1.061354   -0.477221    0.871840
      4          1           0       -0.915667   -0.604275   -0.857662
      5          1           0       -1.097085    0.949124   -0.068931
      6          1           0        1.128139   -0.813290    0.047266
 ---------------------------------------------------------------------

 SCF Done:  E(RB2PLYPD3) =  -115.545644039     A.U. after   10 cycles
 E2(B2PLYPD3) =    -0.1480247589D+00 E(B2PLYPD3) =    -0.11569366879841D+03

 The electronic state is 1-A.
 Alpha  occ. eigenvalues --  -19.72996 -10.64503  -1.15563  -0.78512  -0.58153
 Alpha  occ. eigenvalues --   -0.52671  -0.49923  -0.40892  -0.35111
 Alpha virt. eigenvalues --    0.04434   0.08163   0.12503   0.12581   0.14866
 Alpha virt. eigenvalues --    0.17488   0.18081   0.29154   0.32285   0.33027
 Alpha virt. eigenvalues --    0.34745   0.39350   0.40047   0.41865   0.44183

 Mulliken charges:
               1
     1  C    0.074295
     2  O   -0.468992
     3  H    0.044339
     4  H    0.043666
     5  H    0.066072
     6  H    0.240619
 Sum of Mulliken charges =   0.00000

 Dipole moment (field-independent basis, Debye):
    X=             -0.8579    Y=             -1.5761    Z=              0.0743  Tot=              1.7960
 Quadrupole moment (field-independent basis, Debye-Ang):
   XX=            -13.1172   YY=            -12.0792   ZZ=            -13.7885
   XY=             -2.3371   XZ=             -0.0214   YZ=             -0.0562

 Normal termination of Gaussian 09 at Wed Aug 26 10:04:41 2020.
