 Gaussian 09, Revision D.01,
 Gaussian 09:  ES64L-G09RevD.01 24-Apr-2013

 --------------------
 #p B2PLYPD3/Def2QZVP
 --------------------

 --------
 methanol
 --------
 Symbolic Z-matrix:
 Charge =  0 Multiplicity = 1

                         Standard orientation:
 ---------------------------------------------------------------------
 Center     Atomic      Atomic             Coordinates (Angstroms)
 Number     Number       Type             X           Y           Z
 ---------------------------------------------------------------------
      1          6           0       -0.674451   -0.022603   -0.006542
      2          8           0        0.768722    0.074467   -0.005334
      3          1           0       -1.131223   -0.401065    0.979114
      4          1           0       -0.878752   -0.735061   -0.887026
      5          1           0       -1.078601    1.121677   -0.166886
      6          1           0        0.985508   -0.445669    0.156723
 ---------------------------------------------------------------------

 SCF Done:  E(RB2PLYPD3) =  -115.168579795     A.U. after   11 cycles
 E2(B2PLYPD3) =    -0.1435252213D+00 E(B2PLYPD3) =    -0.11531210501598D+03

 The electronic state is 1-A.
 Alpha  occ. eigenvalues --  -19.68638 -10.69238  -1.29786  -0.81538  -0.62159
 Alpha  occ. eigenvalues --   -0.52275  -0.48943  -0.41903  -0.36722
 Alpha virt. eigenvalues --    0.05133   0.09299   0.11325   0.11720   0.14365
 Alpha virt. eigenvalues --    0.16914   0.17480   0.28249   0.30510   0.33327
 Alpha virt. eigenvalues --    0.34880   0.37343   0.38296   0.41274   0.43333

 Mulliken charges:
               1
     1  C    0.052124
     2  O   -0.160174
     3  H    0.055817
     4  H    0.062317
     5  H    0.073655
     6  H   -0.083740
 Sum of Mulliken charges =   0.00000

 Dipole moment (field-independent basis, Debye):
    X=             -1.1997    Y=             -1.1545    Z=              0.3631  Tot=              1.7041
 Quadrupole moment (field-independent basis, Debye-Ang):
   XX=            -13.5260   YY=            -12.3949   ZZ=            -13.3266
   XY=             -1.6882   XZ=              0.1929   YZ=             -0.1829

 Normal termination of Gaussian 09 at Wed Aug 26 23:36:15 2020.
