 Gaussian 09, Revision D.01,
 Gaussian 09:  ES64L-G09RevD.01 24-Apr-2013

 --------------------
 #p B2PLYPD3/Def2QZVP
 --------------------

 --------
 methanol
 --------
 Symbolic Z-matrix:
 Charge =  0 Multiplicity = 1

                         Standard orientation:
 ---------------------------------------------------------------------
 Center     Atomic      Atomic             Coordinates (Angstroms)
 Number     Number       Type             X           Y           Z
 ---------------------------------------------------------------------
      1          6           0       -0.678121   -0.021424    0.010162
      2          8           0        0.757416    0.102664   -0.006912
      3          1           0       -1.045831   -0.432434    0.939177
      4          1           0       -0.976511   -0.663773   -0.881545
      5          1           0       -1.066873    1.040367   -0.126604
      6          1           0        1.098619   -0.636923    0.063298
 ---------------------------------------------------------------------

 SCF Done:  E(RB2PLYPD3) =  -115.524030817     A.U. after   10 cycles
 E2(B2PLYPD3) =    -0.1454287125D+00 E(B2PLYPD3) =    -0.11566945952911D+03

 The electronic state is 1-A.
 Alpha  occ. eigenvalues --  -19.70939 -10.66991  -1.19225  -0.79577  -0.60082
 Alpha  occ. eigenvalues --   -0.51905  -0.49367  -0.41330  -0.35846
 Alpha virt. eigenvalues --    0.05352   0.08795   0.12014   0.12100   0.14586
 Alpha virt. eigenvalues --    0.17043   0.17852   0.28990   0.32044   0.33333
 Alpha virt. eigenvalues --    0.37380   0.38357   0.39832   0.40814   0.42907

 Mulliken charges:
               1
     1  C    0.065198
     2  O   -0.381334
     3  H    0.059438
     4  H    0.049172
     5  H    0.073115
     6  H    0.134410
 Sum of Mulliken charges =   0.00000

 Dipole moment (field-independent basis, Debye):
    X=             -0.9967    Y=             -1.3824    Z=              0.1760  Tot=              1.7133
 Quadrupole moment (field-independent basis, Debye-Ang):
   XX=            -13.2063   YY=            -12.3493   ZZ=            -13.5869
   XY=             -2.0554   XZ=              0.0652   YZ=             -0.1373

 Normal termination of Gaussian 09 at Wed Aug 26 14:38:45 2020.
