 Gaussian 09, Revision D.01,
 Gaussian 09:  ES64L-G09RevD.01 24-Apr-2013

 --------------------
 #p B2PLYPD3/Def2QZVP
 --------------------

 --------
 methanol
 --------
 Symbolic Z-matrix:
 Charge =  0 Multiplicity = 1

                         Standard orientation:
 ---------------------------------------------------------------------
 Center     Atomic      Atomic             Coordinates (Angstroms)
 Number     Number       Type             X           Y           Z
 ---------------------------------------------------------------------
      1          6           0        0.661792   -0.006544   -0.000980
      2          8           0       -0.749505    0.103575   -0.002184
      3          1           0        1.070979   -0.550908   -0.916025
      4          1           0        1.043870   -0.531503    0.937226
      5          1           0        1.025150    0.990040   -0.001918
      6          1           0       -1.114710   -0.696968    0.004071
 ---------------------------------------------------------------------

 SCF Done:  E(RB2PLYPD3) =  -115.544015456     A.U. after   10 cycles
 E2(B2PLYPD3) =    -0.1461215942D+00 E(B2PLYPD3) =    -0.11569013705041D+03

 The electronic state is 1-A.
 Alpha  occ. eigenvalues --  -19.71943 -10.66483  -1.18223  -0.79216  -0.59663
 Alpha  occ. eigenvalues --   -0.51046  -0.50598  -0.41399  -0.35399
 Alpha virt. eigenvalues --    0.05255   0.08495   0.12105   0.12467   0.14841
 Alpha virt. eigenvalues --    0.17054   0.18122   0.28977   0.33117   0.33592
 Alpha virt. eigenvalues --    0.36627   0.38894   0.39585   0.40338   0.43495

 Mulliken charges:
               1
     1  C    0.061607
     2  O   -0.416196
     3  H    0.044657
     4  H    0.043807
     5  H    0.078573
     6  H    0.187551
 Sum of Mulliken charges =   0.00000

 Dipole moment (field-independent basis, Debye):
    X=              0.8533    Y=             -1.3613    Z=              0.0114  Tot=              1.6067
 Quadrupole moment (field-independent basis, Debye-Ang):
   XX=            -13.1175   YY=            -12.3132   ZZ=            -13.7622
   XY=              2.1699   XZ=             -0.0401   YZ=              0.0015

 Normal termination of Gaussian 09 at Wed Aug 26 20:27:12 2020.
