 Gaussian 09, Revision D.01,
 Gaussian 09:  ES64L-G09RevD.01 24-Apr-2013

 --------------------
 #p B2PLYPD3/Def2QZVP
 --------------------

 --------
 methanol
 --------
 Symbolic Z-matrix:
 Charge =  0 Multiplicity = 1

                         Standard orientation:
 ---------------------------------------------------------------------
 Center     Atomic      Atomic             Coordinates (Angstroms)
 Number     Number       Type             X           Y           Z
 ---------------------------------------------------------------------
      1          6           0        0.650384   -0.033843    0.015733
      2          8           0       -0.751238    0.095364   -0.014625
      3          1           0        1.000725   -0.806786   -0.780698
      4          1           0        1.061007   -0.271498    0.989549
      5          1           0        1.136119    1.062644   -0.278932
      6          1           0       -1.090251   -0.544218    0.092681
 ---------------------------------------------------------------------

 SCF Done:  E(RB2PLYPD3) =  -115.454320181     A.U. after   11 cycles
 E2(B2PLYPD3) =    -0.1443940772D+00 E(B2PLYPD3) =    -0.11559871425786D+03

 The electronic state is 1-A.
 Alpha  occ. eigenvalues --  -19.70534 -10.68212  -1.23518  -0.80511  -0.62043
 Alpha  occ. eigenvalues --   -0.52279  -0.49483  -0.40191  -0.36358
 Alpha virt. eigenvalues --    0.05270   0.09019   0.11550   0.12133   0.14609
 Alpha virt. eigenvalues --    0.17174   0.18051   0.28636   0.32821   0.33430
 Alpha virt. eigenvalues --    0.34854   0.37987   0.40103   0.41045   0.42646

 Mulliken charges:
               1
     1  C    0.049711
     2  O   -0.270663
     3  H    0.046463
     4  H    0.064150
     5  H    0.059478
     6  H    0.050860
 Sum of Mulliken charges =   0.00000

 Dipole moment (field-independent basis, Debye):
    X=              0.8437    Y=             -1.3225    Z=              0.2984  Tot=              1.5968
 Quadrupole moment (field-independent basis, Debye-Ang):
   XX=            -13.0665   YY=            -12.6662   ZZ=            -13.5980
   XY=              1.8997   XZ=             -0.1767   YZ=             -0.1220

 Normal termination of Gaussian 09 at Wed Aug 26 14:42:02 2020.
