 Gaussian 09, Revision D.01,
 Gaussian 09:  ES64L-G09RevD.01 24-Apr-2013

 --------------------
 #p B2PLYPD3/Def2QZVP
 --------------------

 --------
 methanol
 --------
 Symbolic Z-matrix:
 Charge =  0 Multiplicity = 1

                         Standard orientation:
 ---------------------------------------------------------------------
 Center     Atomic      Atomic             Coordinates (Angstroms)
 Number     Number       Type             X           Y           Z
 ---------------------------------------------------------------------
      1          6           0       -0.680144   -0.024613    0.022687
      2          8           0        0.759337    0.079001   -0.031515
      3          1           0       -0.985846   -0.336443    0.966742
      4          1           0       -1.076304   -0.762270   -0.822637
      5          1           0       -1.036087    1.126372   -0.178802
      6          1           0        1.104403   -0.511990    0.150690
 ---------------------------------------------------------------------

 SCF Done:  E(RB2PLYPD3) =  -115.423674592     A.U. after   11 cycles
 E2(B2PLYPD3) =    -0.1443351516D+00 E(B2PLYPD3) =    -0.11556800974344D+03

 The electronic state is 1-A.
 Alpha  occ. eigenvalues --  -19.69620 -10.68230  -1.23089  -0.81037  -0.61786
 Alpha  occ. eigenvalues --   -0.51691  -0.48709  -0.41010  -0.36277
 Alpha virt. eigenvalues --    0.05252   0.09132   0.11380   0.11951   0.14733
 Alpha virt. eigenvalues --    0.16682   0.17744   0.28847   0.31591   0.33027
 Alpha virt. eigenvalues --    0.35250   0.37234   0.40613   0.41491   0.42475

 Mulliken charges:
               1
     1  C    0.054352
     2  O   -0.267668
     3  H    0.068164
     4  H    0.051760
     5  H    0.072015
     6  H    0.021377
 Sum of Mulliken charges =   0.00000

 Dipole moment (field-independent basis, Debye):
    X=             -0.9768    Y=             -1.2383    Z=              0.5157  Tot=              1.6594
 Quadrupole moment (field-independent basis, Debye-Ang):
   XX=            -13.1526   YY=            -12.4915   ZZ=            -13.4587
   XY=             -1.7351   XZ=              0.4263   YZ=             -0.2665

 Normal termination of Gaussian 09 at Wed Aug 26 16:09:37 2020.
