 Gaussian 09, Revision D.01,
 Gaussian 09:  ES64L-G09RevD.01 24-Apr-2013

 --------------------
 #p B2PLYPD3/Def2QZVP
 --------------------

 --------
 methanol
 --------
 Symbolic Z-matrix:
 Charge =  0 Multiplicity = 1

                         Standard orientation:
 ---------------------------------------------------------------------
 Center     Atomic      Atomic             Coordinates (Angstroms)
 Number     Number       Type             X           Y           Z
 ---------------------------------------------------------------------
      1          6           0        0.662240    0.028163   -0.005090
      2          8           0       -0.734666   -0.144279    0.004133
      3          1           0        1.032130    0.496537    0.869889
      4          1           0        0.940358    0.585258   -0.830606
      5          1           0        1.102190   -0.939626   -0.053325
      6          1           0       -1.170789    0.843087    0.011519
 ---------------------------------------------------------------------

 SCF Done:  E(RB2PLYPD3) =  -115.537012796     A.U. after   11 cycles
 E2(B2PLYPD3) =    -0.1488376491D+00 E(B2PLYPD3) =    -0.11568585044491D+03

 The electronic state is 1-A.
 Alpha  occ. eigenvalues --  -19.73240 -10.63996  -1.14467  -0.78622  -0.57481
 Alpha  occ. eigenvalues --   -0.52673  -0.49785  -0.40695  -0.35064
 Alpha virt. eigenvalues --    0.03994   0.07997   0.12581   0.12663   0.14919
 Alpha virt. eigenvalues --    0.17452   0.18067   0.29106   0.30777   0.33227
 Alpha virt. eigenvalues --    0.34464   0.39506   0.39997   0.42211   0.44192

 Mulliken charges:
               1
     1  C    0.081580
     2  O   -0.484356
     3  H    0.044334
     4  H    0.044749
     5  H    0.066007
     6  H    0.247686
 Sum of Mulliken charges =   0.00000

 Dipole moment (field-independent basis, Debye):
    X=              0.8529    Y=              1.6238    Z=             -0.0132  Tot=              1.8342
 Quadrupole moment (field-independent basis, Debye-Ang):
   XX=            -12.9626   YY=            -12.0173   ZZ=            -13.8174
   XY=             -2.4036   XZ=              0.0247   YZ=             -0.0153

 Normal termination of Gaussian 09 at Wed Aug 26 23:57:27 2020.
