 Gaussian 09, Revision D.01,
 Gaussian 09:  ES64L-G09RevD.01 24-Apr-2013

 --------------------
 #p B2PLYPD3/Def2QZVP
 --------------------

 --------
 methanol
 --------
 Symbolic Z-matrix:
 Charge =  0 Multiplicity = 1

                         Standard orientation:
 ---------------------------------------------------------------------
 Center     Atomic      Atomic             Coordinates (Angstroms)
 Number     Number       Type             X           Y           Z
 ---------------------------------------------------------------------
      1          6           0        0.669737   -0.012711    0.000948
      2          8           0       -0.753578    0.105803   -0.006785
      3          1           0        1.060768   -0.603525   -0.880152
      4          1           0        1.031879   -0.472392    0.950777
      5          1           0        1.039589    0.999087   -0.054074
      6          1           0       -1.122034   -0.693327    0.032040
 ---------------------------------------------------------------------

 SCF Done:  E(RB2PLYPD3) =  -115.545807660     A.U. after   10 cycles
 E2(B2PLYPD3) =    -0.1461915523D+00 E(B2PLYPD3) =    -0.11569199921212D+03

 The electronic state is 1-A.
 Alpha  occ. eigenvalues --  -19.71808 -10.66403  -1.17730  -0.79216  -0.59471
 Alpha  occ. eigenvalues --   -0.51311  -0.50100  -0.41367  -0.35553
 Alpha virt. eigenvalues --    0.05279   0.08496   0.12148   0.12401   0.14775
 Alpha virt. eigenvalues --    0.17048   0.18094   0.29021   0.33005   0.33309
 Alpha virt. eigenvalues --    0.36997   0.38821   0.39959   0.40101   0.43385

 Mulliken charges:
               1
     1  C    0.064665
     2  O   -0.424707
     3  H    0.047312
     4  H    0.049620
     5  H    0.076565
     6  H    0.186546
 Sum of Mulliken charges =   0.00000

 Dipole moment (field-independent basis, Debye):
    X=              0.9111    Y=             -1.3918    Z=              0.0819  Tot=              1.6655
 Quadrupole moment (field-independent basis, Debye-Ang):
   XX=            -13.0852   YY=            -12.3081   ZZ=            -13.7153
   XY=              2.1549   XZ=             -0.1125   YZ=             -0.0495

 Normal termination of Gaussian 09 at Wed Aug 26 13:57:22 2020.
