 Gaussian 09, Revision D.01,
 Gaussian 09:  ES64L-G09RevD.01 24-Apr-2013

 --------------------
 #p B2PLYPD3/Def2QZVP
 --------------------

 --------
 methanol
 --------
 Symbolic Z-matrix:
 Charge =  0 Multiplicity = 1

                         Standard orientation:
 ---------------------------------------------------------------------
 Center     Atomic      Atomic             Coordinates (Angstroms)
 Number     Number       Type             X           Y           Z
 ---------------------------------------------------------------------
      1          6           0        0.691001    0.021417   -0.012631
      2          8           0       -0.749067   -0.156494    0.009350
      3          1           0        1.045310    0.497126    0.887931
      4          1           0        1.002887    0.553893   -0.801949
      5          1           0        1.045312   -0.877471   -0.053000
      6          1           0       -1.246978    0.949902   -0.032000
 ---------------------------------------------------------------------

 SCF Done:  E(RB2PLYPD3) =  -115.494998410     A.U. after   11 cycles
 E2(B2PLYPD3) =    -0.1519317011D+00 E(B2PLYPD3) =    -0.11564693011128D+03

 The electronic state is 1-A.
 Alpha  occ. eigenvalues --  -19.74025 -10.63033  -1.11487  -0.79624  -0.56039
 Alpha  occ. eigenvalues --   -0.51845  -0.49176  -0.40749  -0.35021
 Alpha virt. eigenvalues --    0.02328   0.07623   0.12619   0.12826   0.14739
 Alpha virt. eigenvalues --    0.17131   0.18270   0.26326   0.29414   0.33026
 Alpha virt. eigenvalues --    0.33512   0.38851   0.40768   0.41566   0.44365

 Mulliken charges:
               1
     1  C    0.089069
     2  O   -0.510106
     3  H    0.047864
     4  H    0.048028
     5  H    0.074224
     6  H    0.250922
 Sum of Mulliken charges =   0.00000

 Dipole moment (field-independent basis, Debye):
    X=              0.9975    Y=              1.6377    Z=             -0.1321  Tot=              1.9221
 Quadrupole moment (field-independent basis, Debye-Ang):
   XX=            -12.7547   YY=            -11.7995   ZZ=            -13.8605
   XY=             -2.5373   XZ=              0.0204   YZ=             -0.0900

 Normal termination of Gaussian 09 at Wed Aug 26 13:14:56 2020.
