 Gaussian 09, Revision D.01,
 Gaussian 09:  ES64L-G09RevD.01 24-Apr-2013

 --------------------
 #p B2PLYPD3/Def2QZVP
 --------------------

 --------
 methanol
 --------
 Symbolic Z-matrix:
 Charge =  0 Multiplicity = 1

                         Standard orientation:
 ---------------------------------------------------------------------
 Center     Atomic      Atomic             Coordinates (Angstroms)
 Number     Number       Type             X           Y           Z
 ---------------------------------------------------------------------
      1          6           0        0.676113    0.030009   -0.058394
      2          8           0       -0.735453   -0.177278    0.036583
      3          1           0        1.060394    0.660920    0.806989
      4          1           0        0.808428    0.428599   -0.739001
      5          1           0        1.159523   -0.861325    0.076863
      6          1           0       -1.201393    1.009974   -0.087150
 ---------------------------------------------------------------------

 SCF Done:  E(RB2PLYPD3) =  -115.395791858     A.U. after   12 cycles
 E2(B2PLYPD3) =    -0.1531618585D+00 E(B2PLYPD3) =    -0.11554895371697D+03

 The electronic state is 1-A.
 Alpha  occ. eigenvalues --  -19.74443 -10.61930  -1.12149  -0.81115  -0.58526
 Alpha  occ. eigenvalues --   -0.51799  -0.48816  -0.40426  -0.34775
 Alpha virt. eigenvalues --    0.00983   0.07536   0.12410   0.12772   0.14778
 Alpha virt. eigenvalues --    0.17896   0.18089   0.24341   0.29575   0.32287
 Alpha virt. eigenvalues --    0.33500   0.38164   0.40077   0.41408   0.45353

 Mulliken charges:
               1
     1  C   -0.036613
     2  O   -0.496426
     3  H    0.040600
     4  H    0.172672
     5  H    0.073497
     6  H    0.246271
 Sum of Mulliken charges =   0.00000

 Dipole moment (field-independent basis, Debye):
    X=              1.0064    Y=              1.6815    Z=             -0.3599  Tot=              1.9925
 Quadrupole moment (field-independent basis, Debye-Ang):
   XX=            -12.9901   YY=            -11.6316   ZZ=            -13.8405
   XY=             -2.6244   XZ=              0.2146   YZ=             -0.3768

 Normal termination of Gaussian 09 at Wed Aug 26 23:32:48 2020.
