 Gaussian 09, Revision D.01,
 Gaussian 09:  ES64L-G09RevD.01 24-Apr-2013

 --------------------
 #p B2PLYPD3/Def2QZVP
 --------------------

 --------
 methanol
 --------
 Symbolic Z-matrix:
 Charge =  0 Multiplicity = 1

                         Standard orientation:
 ---------------------------------------------------------------------
 Center     Atomic      Atomic             Coordinates (Angstroms)
 Number     Number       Type             X           Y           Z
 ---------------------------------------------------------------------
      1          6           0       -0.675828    0.020824   -0.001000
      2          8           0        0.750836   -0.178781   -0.016049
      3          1           0       -1.010343    0.651254   -0.786705
      4          1           0       -1.096051    0.400304    0.822547
      5          1           0       -1.126099   -0.801903   -0.030263
      6          1           0        1.280769    1.055648    0.128811
 ---------------------------------------------------------------------

 SCF Done:  E(RB2PLYPD3) =  -115.448808236     A.U. after   11 cycles
 E2(B2PLYPD3) =    -0.1548150742D+00 E(B2PLYPD3) =    -0.11560362331034D+03

 The electronic state is 1-A.
 Alpha  occ. eigenvalues --  -19.75230 -10.62331  -1.11115  -0.80610  -0.54559
 Alpha  occ. eigenvalues --   -0.51996  -0.49207  -0.39952  -0.35123
 Alpha virt. eigenvalues --   -0.00377   0.07337   0.12749   0.12981   0.14726
 Alpha virt. eigenvalues --    0.17615   0.18690   0.23030   0.29497   0.32989
 Alpha virt. eigenvalues --    0.34078   0.38537   0.40075   0.42461   0.43617

 Mulliken charges:
               1
     1  C    0.091884
     2  O   -0.495309
     3  H    0.042560
     4  H    0.041798
     5  H    0.069455
     6  H    0.249612
 Sum of Mulliken charges =   0.00000

 Dipole moment (field-independent basis, Debye):
    X=             -1.0022    Y=              1.6780    Z=              0.2689  Tot=              1.9729
 Quadrupole moment (field-independent basis, Debye-Ang):
   XX=            -12.5183   YY=            -11.6977   ZZ=            -14.0529
   XY=              2.6962   XZ=              0.1151   YZ=              0.1219

 Normal termination of Gaussian 09 at Wed Aug 26 22:46:40 2020.
