 Gaussian 09, Revision D.01,
 Gaussian 09:  ES64L-G09RevD.01 24-Apr-2013

 --------------------
 #p B2PLYPD3/Def2QZVP
 --------------------

 --------
 methanol
 --------
 Symbolic Z-matrix:
 Charge =  0 Multiplicity = 1

                         Standard orientation:
 ---------------------------------------------------------------------
 Center     Atomic      Atomic             Coordinates (Angstroms)
 Number     Number       Type             X           Y           Z
 ---------------------------------------------------------------------
      1          6           0       -0.666879   -0.040297    0.017008
      2          8           0        0.742610    0.141292   -0.009679
      3          1           0       -1.013695   -0.424893    0.877859
      4          1           0       -1.047180   -0.623672   -0.822623
      5          1           0       -1.123530    0.964235   -0.106996
      6          1           0        1.244800   -0.804224    0.027144
 ---------------------------------------------------------------------

 SCF Done:  E(RB2PLYPD3) =  -115.535535167     A.U. after   11 cycles
 E2(B2PLYPD3) =    -0.1490567786D+00 E(B2PLYPD3) =    -0.11568459194559D+03

 The electronic state is 1-A.
 Alpha  occ. eigenvalues --  -19.73346 -10.64707  -1.13975  -0.78676  -0.57354
 Alpha  occ. eigenvalues --   -0.52455  -0.49129  -0.40037  -0.35417
 Alpha virt. eigenvalues --    0.04173   0.07709   0.12476   0.12673   0.14927
 Alpha virt. eigenvalues --    0.17289   0.18435   0.29015   0.31007   0.33702
 Alpha virt. eigenvalues --    0.33915   0.38219   0.39523   0.42181   0.44441

 Mulliken charges:
               1
     1  C    0.075696
     2  O   -0.489131
     3  H    0.057359
     4  H    0.045413
     5  H    0.061371
     6  H    0.249292
 Sum of Mulliken charges =   0.00000

 Dipole moment (field-independent basis, Debye):
    X=             -0.7754    Y=             -1.6104    Z=              0.1236  Tot=              1.7917
 Quadrupole moment (field-independent basis, Debye-Ang):
   XX=            -12.5488   YY=            -12.3103   ZZ=            -13.8329
   XY=             -2.4180   XZ=              0.0513   YZ=             -0.1013

 Normal termination of Gaussian 09 at Wed Aug 26 11:40:57 2020.
