 Gaussian 09, Revision D.01,
 Gaussian 09:  ES64L-G09RevD.01 24-Apr-2013

 --------------------
 #p B2PLYPD3/Def2QZVP
 --------------------

 --------
 methanol
 --------
 Symbolic Z-matrix:
 Charge =  0 Multiplicity = 1

                         Standard orientation:
 ---------------------------------------------------------------------
 Center     Atomic      Atomic             Coordinates (Angstroms)
 Number     Number       Type             X           Y           Z
 ---------------------------------------------------------------------
      1          6           0       -0.657346    0.010136   -0.009478
      2          8           0        0.743921   -0.144444   -0.005886
      3          1           0       -1.130267    0.500090   -0.845916
      4          1           0       -1.020919    0.559312    0.863454
      5          1           0       -1.045945   -0.891780    0.080403
      6          1           0        1.189844    0.927107    0.006009
 ---------------------------------------------------------------------

 SCF Done:  E(RB2PLYPD3) =  -115.514305660     A.U. after   11 cycles
 E2(B2PLYPD3) =    -0.1508224623D+00 E(B2PLYPD3) =    -0.11566512812199D+03

 The electronic state is 1-A.
 Alpha  occ. eigenvalues --  -19.74314 -10.63982  -1.13662  -0.78732  -0.56679
 Alpha  occ. eigenvalues --   -0.51000  -0.50331  -0.40887  -0.34906
 Alpha virt. eigenvalues --    0.02897   0.07622   0.12635   0.12812   0.15072
 Alpha virt. eigenvalues --    0.17305   0.18500   0.27353   0.29611   0.33347
 Alpha virt. eigenvalues --    0.34701   0.38286   0.40390   0.41104   0.43492

 Mulliken charges:
               1
     1  C    0.073839
     2  O   -0.481238
     3  H    0.044403
     4  H    0.034976
     5  H    0.071242
     6  H    0.256778
 Sum of Mulliken charges =   0.00000

 Dipole moment (field-independent basis, Debye):
    X=             -0.8400    Y=              1.5910    Z=              0.0284  Tot=              1.7993
 Quadrupole moment (field-independent basis, Debye-Ang):
   XX=            -12.8705   YY=            -11.9087   ZZ=            -14.0362
   XY=              2.4697   XZ=              0.0897   YZ=             -0.0573

 Normal termination of Gaussian 09 at Wed Aug 26 14:21:09 2020.
