 Gaussian 09, Revision D.01,
 Gaussian 09:  ES64L-G09RevD.01 24-Apr-2013

 --------------------
 #p B2PLYPD3/Def2QZVP
 --------------------

 --------
 methanol
 --------
 Symbolic Z-matrix:
 Charge =  0 Multiplicity = 1

                         Standard orientation:
 ---------------------------------------------------------------------
 Center     Atomic      Atomic             Coordinates (Angstroms)
 Number     Number       Type             X           Y           Z
 ---------------------------------------------------------------------
      1          6           0        0.666194   -0.004480    0.008299
      2          8           0       -0.756135    0.098806   -0.009296
      3          1           0        1.058977   -0.647999   -0.891138
      4          1           0        1.035279   -0.484215    0.954626
      5          1           0        1.081180    1.005711   -0.080615
      6          1           0       -1.123518   -0.637061    0.041702
 ---------------------------------------------------------------------

 SCF Done:  E(RB2PLYPD3) =  -115.526497664     A.U. after   10 cycles
 E2(B2PLYPD3) =    -0.1454702516D+00 E(B2PLYPD3) =    -0.11567196791529D+03

 The electronic state is 1-A.
 Alpha  occ. eigenvalues --  -19.71323 -10.67322  -1.19427  -0.79618  -0.60261
 Alpha  occ. eigenvalues --   -0.50915  -0.50469  -0.41263  -0.35517
 Alpha virt. eigenvalues --    0.05347   0.08641   0.12010   0.12304   0.14709
 Alpha virt. eigenvalues --    0.17181   0.17873   0.28979   0.32864   0.32979
 Alpha virt. eigenvalues --    0.36854   0.39025   0.39625   0.39775   0.42778

 Mulliken charges:
               1
     1  C    0.063912
     2  O   -0.380146
     3  H    0.039736
     4  H    0.049980
     5  H    0.081173
     6  H    0.145346
 Sum of Mulliken charges =   0.00000

 Dipole moment (field-independent basis, Debye):
    X=              0.8914    Y=             -1.3110    Z=              0.1419  Tot=              1.5917
 Quadrupole moment (field-independent basis, Debye-Ang):
   XX=            -13.0201   YY=            -12.4111   ZZ=            -13.7680
   XY=              2.1584   XZ=             -0.1059   YZ=             -0.1230

 Normal termination of Gaussian 09 at Wed Aug 26 23:09:30 2020.
