 Gaussian 09, Revision D.01,
 Gaussian 09:  ES64L-G09RevD.01 24-Apr-2013

 --------------------
 #p B2PLYPD3/Def2QZVP
 --------------------

 --------
 methanol
 --------
 Symbolic Z-matrix:
 Charge =  0 Multiplicity = 1

                         Standard orientation:
 ---------------------------------------------------------------------
 Center     Atomic      Atomic             Coordinates (Angstroms)
 Number     Number       Type             X           Y           Z
 ---------------------------------------------------------------------
      1          6           0       -0.674604   -0.013058    0.005685
      2          8           0        0.757174    0.081442   -0.011448
      3          1           0       -1.039079   -0.494066    0.946384
      4          1           0       -0.952454   -0.680847   -0.914663
      5          1           0       -1.069583    1.103594   -0.083679
      6          1           0        1.051354   -0.501873    0.109427
 ---------------------------------------------------------------------

 SCF Done:  E(RB2PLYPD3) =  -115.364649022     A.U. after   11 cycles
 E2(B2PLYPD3) =    -0.1437340404D+00 E(B2PLYPD3) =    -0.11550838306254D+03

 The electronic state is 1-A.
 Alpha  occ. eigenvalues --  -19.69118 -10.68560  -1.25492  -0.81240  -0.61726
 Alpha  occ. eigenvalues --   -0.51584  -0.49640  -0.41584  -0.36056
 Alpha virt. eigenvalues --    0.05257   0.09379   0.11596   0.11788   0.14539
 Alpha virt. eigenvalues --    0.16853   0.17353   0.28725   0.31582   0.33117
 Alpha virt. eigenvalues --    0.36218   0.37882   0.39197   0.40802   0.42641

 Mulliken charges:
               1
     1  C    0.058102
     2  O   -0.232612
     3  H    0.055005
     4  H    0.051007
     5  H    0.079824
     6  H   -0.011325
 Sum of Mulliken charges =   0.00000

 Dipole moment (field-independent basis, Debye):
    X=             -1.0423    Y=             -1.2115    Z=              0.3064  Tot=              1.6273
 Quadrupole moment (field-independent basis, Debye-Ang):
   XX=            -13.3632   YY=            -12.3528   ZZ=            -13.4967
   XY=             -1.8430   XZ=              0.1837   YZ=             -0.1923

 Normal termination of Gaussian 09 at Wed Aug 26 14:13:44 2020.
