 Gaussian 09, Revision D.01,
 Gaussian 09:  ES64L-G09RevD.01 24-Apr-2013

 --------------------
 #p B2PLYPD3/Def2QZVP
 --------------------

 --------
 methanol
 --------
 Symbolic Z-matrix:
 Charge =  0 Multiplicity = 1

                         Standard orientation:
 ---------------------------------------------------------------------
 Center     Atomic      Atomic             Coordinates (Angstroms)
 Number     Number       Type             X           Y           Z
 ---------------------------------------------------------------------
      1          6           0        0.677927    0.029932    0.004464
      2          8           0       -0.746901   -0.147715   -0.006654
      3          1           0        1.005865    0.469198    0.848468
      4          1           0        1.001099    0.585956   -0.820276
      5          1           0        1.074043   -0.945601   -0.041040
      6          1           0       -1.173358    0.892576    0.039294
 ---------------------------------------------------------------------

 SCF Done:  E(RB2PLYPD3) =  -115.524505695     A.U. after   11 cycles
 E2(B2PLYPD3) =    -0.1500925919D+00 E(B2PLYPD3) =    -0.11567459828724D+03

 The electronic state is 1-A.
 Alpha  occ. eigenvalues --  -19.73577 -10.63610  -1.12970  -0.79085  -0.56667
 Alpha  occ. eigenvalues --   -0.52738  -0.48893  -0.40999  -0.35276
 Alpha virt. eigenvalues --    0.03545   0.07861   0.12487   0.12695   0.14897
 Alpha virt. eigenvalues --    0.17280   0.18138   0.28508   0.29906   0.33425
 Alpha virt. eigenvalues --    0.33665   0.39226   0.39750   0.42568   0.44398

 Mulliken charges:
               1
     1  C    0.088375
     2  O   -0.497796
     3  H    0.049057
     4  H    0.046459
     5  H    0.066093
     6  H    0.247811
 Sum of Mulliken charges =   0.00000

 Dipole moment (field-independent basis, Debye):
    X=              0.9936    Y=              1.6602    Z=              0.1040  Tot=              1.9376
 Quadrupole moment (field-independent basis, Debye-Ang):
   XX=            -13.0129   YY=            -11.8615   ZZ=            -13.8169
   XY=             -2.3500   XZ=             -0.0521   YZ=              0.0644

 Normal termination of Gaussian 09 at Thu Aug 27 00:05:25 2020.
