 Gaussian 09, Revision D.01,
 Gaussian 09:  ES64L-G09RevD.01 24-Apr-2013

 --------------------
 #p B2PLYPD3/Def2QZVP
 --------------------

 --------
 methanol
 --------
 Symbolic Z-matrix:
 Charge =  0 Multiplicity = 1

                         Standard orientation:
 ---------------------------------------------------------------------
 Center     Atomic      Atomic             Coordinates (Angstroms)
 Number     Number       Type             X           Y           Z
 ---------------------------------------------------------------------
      1          6           0       -0.672601    0.010565    0.000805
      2          8           0        0.753379   -0.139801   -0.010793
      3          1           0       -1.061250    0.598096   -0.843262
      4          1           0       -1.038715    0.490445    0.876649
      5          1           0       -1.090168   -0.904188   -0.011484
      6          1           0        1.198703    0.870664    0.059609
 ---------------------------------------------------------------------

 SCF Done:  E(RB2PLYPD3) =  -115.529250766     A.U. after   11 cycles
 E2(B2PLYPD3) =    -0.1498964325D+00 E(B2PLYPD3) =    -0.11567914719823D+03

 The electronic state is 1-A.
 Alpha  occ. eigenvalues --  -19.73729 -10.64392  -1.13258  -0.78939  -0.56669
 Alpha  occ. eigenvalues --   -0.51080  -0.50159  -0.41073  -0.35049
 Alpha virt. eigenvalues --    0.03700   0.07695   0.12562   0.12753   0.14880
 Alpha virt. eigenvalues --    0.17433   0.18262   0.28803   0.30124   0.33403
 Alpha virt. eigenvalues --    0.33502   0.38808   0.40587   0.40820   0.43571

 Mulliken charges:
               1
     1  C    0.080414
     2  O   -0.493374
     3  H    0.042672
     4  H    0.043822
     5  H    0.073200
     6  H    0.253266
 Sum of Mulliken charges =   0.00000

 Dipole moment (field-independent basis, Debye):
    X=             -0.9098    Y=              1.5752    Z=              0.1542  Tot=              1.8256
 Quadrupole moment (field-independent basis, Debye-Ang):
   XX=            -12.7886   YY=            -12.0032   ZZ=            -13.9597
   XY=              2.4825   XZ=              0.1182   YZ=              0.0804

 Normal termination of Gaussian 09 at Wed Aug 26 09:53:03 2020.
