 Gaussian 09, Revision D.01,
 Gaussian 09:  ES64L-G09RevD.01 24-Apr-2013

 --------------------
 #p B2PLYPD3/Def2QZVP
 --------------------

 --------
 methanol
 --------
 Symbolic Z-matrix:
 Charge =  0 Multiplicity = 1

                         Standard orientation:
 ---------------------------------------------------------------------
 Center     Atomic      Atomic             Coordinates (Angstroms)
 Number     Number       Type             X           Y           Z
 ---------------------------------------------------------------------
      1          6           0        0.639690    0.036266   -0.007909
      2          8           0       -0.715816   -0.181857    0.002174
      3          1           0        1.069359    0.430970    0.795282
      4          1           0        0.852031    0.578829   -0.790224
      5          1           0        1.089265   -0.849810   -0.048056
      6          1           0       -1.122263    1.077266    0.073062
 ---------------------------------------------------------------------

 SCF Done:  E(RB2PLYPD3) =  -115.455515713     A.U. after   11 cycles
 E2(B2PLYPD3) =    -0.1531890131D+00 E(B2PLYPD3) =    -0.11560870472606D+03

 The electronic state is 1-A.
 Alpha  occ. eigenvalues --  -19.74820 -10.61255  -1.14020  -0.79564  -0.56407
 Alpha  occ. eigenvalues --   -0.54313  -0.49670  -0.39540  -0.34977
 Alpha virt. eigenvalues --   -0.00026   0.07762   0.12720   0.12898   0.14859
 Alpha virt. eigenvalues --    0.17746   0.18430   0.23478   0.29388   0.32799
 Alpha virt. eigenvalues --    0.36091   0.39504   0.40254   0.44257   0.44621

 Mulliken charges:
               1
     1  C    0.104813
     2  O   -0.468739
     3  H    0.032581
     4  H    0.038286
     5  H    0.052010
     6  H    0.241049
 Sum of Mulliken charges =   0.00000

 Dipole moment (field-independent basis, Debye):
    X=              1.0072    Y=              1.7313    Z=              0.0894  Tot=              2.0050
 Quadrupole moment (field-independent basis, Debye-Ang):
   XX=            -13.3242   YY=            -11.4741   ZZ=            -13.8407
   XY=             -2.3768   XZ=              0.0594   YZ=              0.0261

 Normal termination of Gaussian 09 at Wed Aug 26 18:38:05 2020.
