 Gaussian 09, Revision D.01,
 Gaussian 09:  ES64L-G09RevD.01 24-Apr-2013

 --------------------
 #p B2PLYPD3/Def2QZVP
 --------------------

 --------
 methanol
 --------
 Symbolic Z-matrix:
 Charge =  0 Multiplicity = 1

                         Standard orientation:
 ---------------------------------------------------------------------
 Center     Atomic      Atomic             Coordinates (Angstroms)
 Number     Number       Type             X           Y           Z
 ---------------------------------------------------------------------
      1          6           0       -0.672294   -0.000883    0.008109
      2          8           0        0.752497   -0.081990   -0.034476
      3          1           0       -0.991689    0.963752   -0.650035
      4          1           0       -0.993105    0.111566    1.072332
      5          1           0       -1.076711   -0.930219   -0.404458
      6          1           0        1.075291    0.516118    0.209315
 ---------------------------------------------------------------------

 SCF Done:  E(RB2PLYPD3) =  -115.449252790     A.U. after   11 cycles
 E2(B2PLYPD3) =    -0.1440650165D+00 E(B2PLYPD3) =    -0.11559331780654D+03

 The electronic state is 1-A.
 Alpha  occ. eigenvalues --  -19.69792 -10.67858  -1.22997  -0.80997  -0.60914
 Alpha  occ. eigenvalues --   -0.51315  -0.51139  -0.41289  -0.35685
 Alpha virt. eigenvalues --    0.05361   0.09195   0.11607   0.12294   0.14340
 Alpha virt. eigenvalues --    0.17008   0.17593   0.28704   0.32086   0.32744
 Alpha virt. eigenvalues --    0.36392   0.38971   0.40103   0.40449   0.43157

 Mulliken charges:
               1
     1  C    0.061402
     2  O   -0.280556
     3  H    0.037516
     4  H    0.053975
     5  H    0.087834
     6  H    0.039830
 Sum of Mulliken charges =   0.00000

 Dipole moment (field-independent basis, Debye):
    X=             -0.9831    Y=              1.0748    Z=              0.5329  Tot=              1.5510
 Quadrupole moment (field-independent basis, Debye-Ang):
   XX=            -13.2631   YY=            -12.5549   ZZ=            -13.3988
   XY=              1.9828   XZ=              0.6831   YZ=              0.3729

 Normal termination of Gaussian 09 at Wed Aug 26 14:06:53 2020.
