 Gaussian 09, Revision D.01,
 Gaussian 09:  ES64L-G09RevD.01 24-Apr-2013

 --------------------
 #p B2PLYPD3/Def2QZVP
 --------------------

 --------
 methanol
 --------
 Symbolic Z-matrix:
 Charge =  0 Multiplicity = 1

                         Standard orientation:
 ---------------------------------------------------------------------
 Center     Atomic      Atomic             Coordinates (Angstroms)
 Number     Number       Type             X           Y           Z
 ---------------------------------------------------------------------
      1          6           0       -0.670470    0.020794    0.002254
      2          8           0        0.750319   -0.139544   -0.001819
      3          1           0       -1.001788    0.573619   -0.861076
      4          1           0       -1.076140    0.490451    0.863378
      5          1           0       -1.085668   -0.929495   -0.038770
      6          1           0        1.183863    0.857014    0.037499
 ---------------------------------------------------------------------

 SCF Done:  E(RB2PLYPD3) =  -115.535964766     A.U. after   11 cycles
 E2(B2PLYPD3) =    -0.1494964968D+00 E(B2PLYPD3) =    -0.11568546126302D+03

 The electronic state is 1-A.
 Alpha  occ. eigenvalues --  -19.73564 -10.64440  -1.13661  -0.78755  -0.56936
 Alpha  occ. eigenvalues --   -0.51716  -0.49685  -0.40985  -0.35208
 Alpha virt. eigenvalues --    0.03947   0.07794   0.12569   0.12650   0.14877
 Alpha virt. eigenvalues --    0.17354   0.18308   0.28938   0.30626   0.33219
 Alpha virt. eigenvalues --    0.33929   0.39041   0.40024   0.41497   0.43804

 Mulliken charges:
               1
     1  C    0.077323
     2  O   -0.489008
     3  H    0.045332
     4  H    0.047370
     5  H    0.069301
     6  H    0.249682
 Sum of Mulliken charges =   0.00000

 Dipole moment (field-independent basis, Debye):
    X=             -0.9117    Y=              1.5884    Z=              0.0733  Tot=              1.8329
 Quadrupole moment (field-independent basis, Debye-Ang):
   XX=            -12.8664   YY=            -12.0481   ZZ=            -13.8841
   XY=              2.4186   XZ=              0.0118   YZ=              0.0567

 Normal termination of Gaussian 09 at Wed Aug 26 10:05:13 2020.
