 Gaussian 09, Revision D.01,
 Gaussian 09:  ES64L-G09RevD.01 24-Apr-2013

 --------------------
 #p B2PLYPD3/Def2QZVP
 --------------------

 --------
 methanol
 --------
 Symbolic Z-matrix:
 Charge =  0 Multiplicity = 1

                         Standard orientation:
 ---------------------------------------------------------------------
 Center     Atomic      Atomic             Coordinates (Angstroms)
 Number     Number       Type             X           Y           Z
 ---------------------------------------------------------------------
      1          6           0        0.647830    0.064247   -0.009058
      2          8           0       -0.729572   -0.192403   -0.000436
      3          1           0        1.050541    0.500565    0.776508
      4          1           0        1.064576    0.499032   -0.750110
      5          1           0        1.167327   -0.889690    0.022944
      6          1           0       -1.332842    1.043832    0.008497
 ---------------------------------------------------------------------

 SCF Done:  E(RB2PLYPD3) =  -115.444347423     A.U. after   11 cycles
 E2(B2PLYPD3) =    -0.1549041577D+00 E(B2PLYPD3) =    -0.11559925158114D+03

 The electronic state is 1-A.
 Alpha  occ. eigenvalues --  -19.75602 -10.62290  -1.12501  -0.80187  -0.54550
 Alpha  occ. eigenvalues --   -0.53120  -0.49265  -0.38636  -0.35587
 Alpha virt. eigenvalues --   -0.00950   0.07199   0.12615   0.13227   0.15055
 Alpha virt. eigenvalues --    0.17554   0.18844   0.22354   0.29404   0.34359
 Alpha virt. eigenvalues --    0.35137   0.37426   0.39759   0.43506   0.44414

 Mulliken charges:
               1
     1  C    0.095640
     2  O   -0.474463
     3  H    0.044636
     4  H    0.047650
     5  H    0.043610
     6  H    0.242928
 Sum of Mulliken charges =   0.00000

 Dipole moment (field-independent basis, Debye):
    X=              0.8296    Y=              1.7976    Z=              0.0052  Tot=              1.9798
 Quadrupole moment (field-independent basis, Debye-Ang):
   XX=            -12.3047   YY=            -11.9110   ZZ=            -14.0990
   XY=             -2.5308   XZ=             -0.0303   YZ=             -0.0298

 Normal termination of Gaussian 09 at Wed Aug 26 23:33:26 2020.
