 Gaussian 09, Revision D.01,
 Gaussian 09:  ES64L-G09RevD.01 24-Apr-2013

 --------------------
 #p B2PLYPD3/Def2QZVP
 --------------------

 --------
 methanol
 --------
 Symbolic Z-matrix:
 Charge =  0 Multiplicity = 1

                         Standard orientation:
 ---------------------------------------------------------------------
 Center     Atomic      Atomic             Coordinates (Angstroms)
 Number     Number       Type             X           Y           Z
 ---------------------------------------------------------------------
      1          6           0        0.636638    0.046395   -0.008974
      2          8           0       -0.711278   -0.186203   -0.021183
      3          1           0        0.917075    0.375506    0.861043
      4          1           0        0.990768    0.717421   -0.688819
      5          1           0        1.241446   -0.849328   -0.050829
      6          1           0       -1.278892    0.967655    0.101916
 ---------------------------------------------------------------------

 SCF Done:  E(RB2PLYPD3) =  -115.472955186     A.U. after   11 cycles
 E2(B2PLYPD3) =    -0.1522778148D+00 E(B2PLYPD3) =    -0.11562523300081D+03

 The electronic state is 1-A.
 Alpha  occ. eigenvalues --  -19.74578 -10.62438  -1.14017  -0.78856  -0.55505
 Alpha  occ. eigenvalues --   -0.53452  -0.50283  -0.38942  -0.34670
 Alpha virt. eigenvalues --    0.00465   0.07453   0.12713   0.13242   0.14791
 Alpha virt. eigenvalues --    0.17757   0.18846   0.23816   0.29625   0.33250
 Alpha virt. eigenvalues --    0.35566   0.39840   0.40503   0.43017   0.43539

 Mulliken charges:
               1
     1  C    0.092209
     2  O   -0.479768
     3  H    0.043487
     4  H    0.036389
     5  H    0.051589
     6  H    0.256093
 Sum of Mulliken charges =   0.00000

 Dipole moment (field-independent basis, Debye):
    X=              0.6948    Y=              1.7821    Z=              0.2686  Tot=              1.9315
 Quadrupole moment (field-independent basis, Debye-Ang):
   XX=            -12.5011   YY=            -11.9460   ZZ=            -14.0184
   XY=             -2.6508   XZ=             -0.2021   YZ=              0.0483

 Normal termination of Gaussian 09 at Wed Aug 26 19:03:02 2020.
