 Gaussian 09, Revision D.01,
 Gaussian 09:  ES64L-G09RevD.01 24-Apr-2013

 --------------------
 #p B2PLYPD3/Def2QZVP
 --------------------

 --------
 methanol
 --------
 Symbolic Z-matrix:
 Charge =  0 Multiplicity = 1

                         Standard orientation:
 ---------------------------------------------------------------------
 Center     Atomic      Atomic             Coordinates (Angstroms)
 Number     Number       Type             X           Y           Z
 ---------------------------------------------------------------------
      1          6           0        0.666138   -0.012047    0.011526
      2          8           0       -0.742149    0.128223   -0.015420
      3          1           0        1.119995   -0.608541   -0.830442
      4          1           0        1.011770   -0.521917    0.848747
      5          1           0        1.047877    0.978663   -0.009523
      6          1           0       -1.239276   -0.801711    0.045418
 ---------------------------------------------------------------------

 SCF Done:  E(RB2PLYPD3) =  -115.539298718     A.U. after   11 cycles
 E2(B2PLYPD3) =    -0.1488320859D+00 E(B2PLYPD3) =    -0.11568813080441D+03

 The electronic state is 1-A.
 Alpha  occ. eigenvalues --  -19.73285 -10.64995  -1.14384  -0.78557  -0.58232
 Alpha  occ. eigenvalues --   -0.50769  -0.49887  -0.40901  -0.34834
 Alpha virt. eigenvalues --    0.04251   0.07767   0.12371   0.12787   0.15241
 Alpha virt. eigenvalues --    0.17099   0.18100   0.29264   0.31662   0.33290
 Alpha virt. eigenvalues --    0.34238   0.38821   0.39148   0.40452   0.44279

 Mulliken charges:
               1
     1  C    0.075079
     2  O   -0.483023
     3  H    0.037308
     4  H    0.047362
     5  H    0.075096
     6  H    0.248178
 Sum of Mulliken charges =   0.00000

 Dipole moment (field-independent basis, Debye):
    X=              0.7307    Y=             -1.5496    Z=              0.1969  Tot=              1.7245
 Quadrupole moment (field-independent basis, Debye-Ang):
   XX=            -12.5999   YY=            -12.0826   ZZ=            -14.0801
   XY=              2.3683   XZ=             -0.1049   YZ=             -0.1336

 Normal termination of Gaussian 09 at Wed Aug 26 11:32:14 2020.
