 Gaussian 09, Revision D.01,
 Gaussian 09:  ES64L-G09RevD.01 24-Apr-2013

 --------------------
 #p B2PLYPD3/Def2QZVP
 --------------------

 --------
 methanol
 --------
 Symbolic Z-matrix:
 Charge =  0 Multiplicity = 1

                         Standard orientation:
 ---------------------------------------------------------------------
 Center     Atomic      Atomic             Coordinates (Angstroms)
 Number     Number       Type             X           Y           Z
 ---------------------------------------------------------------------
      1          6           0       -0.676071   -0.027191    0.008946
      2          8           0        0.753419    0.098301   -0.016128
      3          1           0       -1.000294   -0.435394    0.950354
      4          1           0       -1.047677   -0.630237   -0.879564
      5          1           0       -1.037308    1.065015   -0.073223
      6          1           0        1.114350   -0.622648    0.077780
 ---------------------------------------------------------------------

 SCF Done:  E(RB2PLYPD3) =  -115.520693973     A.U. after   10 cycles
 E2(B2PLYPD3) =    -0.1452942944D+00 E(B2PLYPD3) =    -0.11566598826744D+03

 The electronic state is 1-A.
 Alpha  occ. eigenvalues --  -19.70851 -10.67008  -1.19470  -0.79732  -0.60299
 Alpha  occ. eigenvalues --   -0.52077  -0.49139  -0.41019  -0.35967
 Alpha virt. eigenvalues --    0.05384   0.08820   0.11962   0.12115   0.14660
 Alpha virt. eigenvalues --    0.16879   0.17991   0.28970   0.32454   0.33335
 Alpha virt. eigenvalues --    0.37116   0.38507   0.40021   0.40806   0.42832

 Mulliken charges:
               1
     1  C    0.061428
     2  O   -0.373569
     3  H    0.059629
     4  H    0.053635
     5  H    0.070609
     6  H    0.128267
 Sum of Mulliken charges =   0.00000

 Dipole moment (field-independent basis, Debye):
    X=             -0.9389    Y=             -1.3756    Z=              0.2354  Tot=              1.6820
 Quadrupole moment (field-independent basis, Debye-Ang):
   XX=            -13.1438   YY=            -12.4076   ZZ=            -13.5488
   XY=             -1.9790   XZ=              0.2183   YZ=             -0.1260

 Normal termination of Gaussian 09 at Thu Aug 27 00:13:02 2020.
