 Gaussian 09, Revision D.01,
 Gaussian 09:  ES64L-G09RevD.01 24-Apr-2013

 --------------------
 #p B2PLYPD3/Def2QZVP
 --------------------

 --------
 methanol
 --------
 Symbolic Z-matrix:
 Charge =  0 Multiplicity = 1

                         Standard orientation:
 ---------------------------------------------------------------------
 Center     Atomic      Atomic             Coordinates (Angstroms)
 Number     Number       Type             X           Y           Z
 ---------------------------------------------------------------------
      1          6           0        0.658940   -0.021973   -0.000806
      2          8           0       -0.744433    0.104435   -0.000094
      3          1           0        1.022240   -0.575482   -0.905008
      4          1           0        0.990407   -0.540926    0.942603
      5          1           0        1.115490    1.024958   -0.018668
      6          1           0       -1.126314   -0.612192   -0.013342
 ---------------------------------------------------------------------

 SCF Done:  E(RB2PLYPD3) =  -115.522512825     A.U. after   10 cycles
 E2(B2PLYPD3) =    -0.1449826492D+00 E(B2PLYPD3) =    -0.11566749547411D+03

 The electronic state is 1-A.
 Alpha  occ. eigenvalues --  -19.71023 -10.67127  -1.20196  -0.79760  -0.60676
 Alpha  occ. eigenvalues --   -0.51894  -0.50205  -0.40611  -0.35660
 Alpha virt. eigenvalues --    0.05388   0.08811   0.12107   0.12240   0.14606
 Alpha virt. eigenvalues --    0.17238   0.17876   0.28935   0.32975   0.33601
 Alpha virt. eigenvalues --    0.37089   0.38874   0.39848   0.40132   0.43109

 Mulliken charges:
               1
     1  C    0.062316
     2  O   -0.365194
     3  H    0.048652
     4  H    0.048947
     5  H    0.072177
     6  H    0.133102
 Sum of Mulliken charges =   0.00000

 Dipole moment (field-independent basis, Debye):
    X=              0.8231    Y=             -1.3538    Z=             -0.0332  Tot=              1.5847
 Quadrupole moment (field-independent basis, Debye-Ang):
   XX=            -12.9961   YY=            -12.5113   ZZ=            -13.6541
   XY=              2.1374   XZ=             -0.0126   YZ=              0.0235

 Normal termination of Gaussian 09 at Thu Aug 27 00:09:09 2020.
