 Gaussian 09, Revision D.01,
 Gaussian 09:  ES64L-G09RevD.01 24-Apr-2013

 --------------------
 #p B2PLYPD3/Def2QZVP
 --------------------

 --------
 methanol
 --------
 Symbolic Z-matrix:
 Charge =  0 Multiplicity = 1

                         Standard orientation:
 ---------------------------------------------------------------------
 Center     Atomic      Atomic             Coordinates (Angstroms)
 Number     Number       Type             X           Y           Z
 ---------------------------------------------------------------------
      1          6           0       -0.661574   -0.001818    0.000728
      2          8           0        0.756607    0.100776   -0.024133
      3          1           0       -1.034279   -0.350043    0.994317
      4          1           0       -0.978873   -0.782645   -0.819847
      5          1           0       -1.119775    0.967806   -0.165912
      6          1           0        1.049514   -0.630412    0.180138
 ---------------------------------------------------------------------

 SCF Done:  E(RB2PLYPD3) =  -115.521075504     A.U. after   10 cycles
 E2(B2PLYPD3) =    -0.1452896895D+00 E(B2PLYPD3) =    -0.11566636519310D+03

 The electronic state is 1-A.
 Alpha  occ. eigenvalues --  -19.71291 -10.67108  -1.20285  -0.79500  -0.60344
 Alpha  occ. eigenvalues --   -0.51589  -0.50518  -0.41743  -0.35504
 Alpha virt. eigenvalues --    0.05298   0.08814   0.11842   0.12398   0.14563
 Alpha virt. eigenvalues --    0.17403   0.17835   0.28881   0.32294   0.33307
 Alpha virt. eigenvalues --    0.36671   0.38807   0.39749   0.40455   0.43581

 Mulliken charges:
               1
     1  C    0.064926
     2  O   -0.364337
     3  H    0.044583
     4  H    0.039796
     5  H    0.080016
     6  H    0.135016
 Sum of Mulliken charges =   0.00000

 Dipole moment (field-independent basis, Debye):
    X=             -0.9961    Y=             -1.2589    Z=              0.4272  Tot=              1.6612
 Quadrupole moment (field-independent basis, Debye-Ang):
   XX=            -13.3345   YY=            -12.3901   ZZ=            -13.6443
   XY=             -2.1207   XZ=              0.3991   YZ=             -0.2767

 Normal termination of Gaussian 09 at Wed Aug 26 15:51:08 2020.
