 Gaussian 09, Revision D.01,
 Gaussian 09:  ES64L-G09RevD.01 24-Apr-2013

 --------------------
 #p B2PLYPD3/Def2QZVP
 --------------------

 --------
 methanol
 --------
 Symbolic Z-matrix:
 Charge =  0 Multiplicity = 1

                         Standard orientation:
 ---------------------------------------------------------------------
 Center     Atomic      Atomic             Coordinates (Angstroms)
 Number     Number       Type             X           Y           Z
 ---------------------------------------------------------------------
      1          6           0       -0.686306   -0.027414    0.004640
      2          8           0        0.774514    0.091970   -0.018886
      3          1           0       -1.139475   -0.305669    0.992254
      4          1           0       -1.000744   -0.811923   -0.798261
      5          1           0       -1.155152    1.057431   -0.233545
      6          1           0        1.217101   -0.511115    0.162798
 ---------------------------------------------------------------------

 SCF Done:  E(RB2PLYPD3) =  -115.482498064     A.U. after   11 cycles
 E2(B2PLYPD3) =    -0.1456569962D+00 E(B2PLYPD3) =    -0.11562815505985D+03

 The electronic state is 1-A.
 Alpha  occ. eigenvalues --  -19.70470 -10.69072  -1.19754  -0.79972  -0.60605
 Alpha  occ. eigenvalues --   -0.50855  -0.48514  -0.40016  -0.36086
 Alpha virt. eigenvalues --    0.05290   0.08453   0.11682   0.11970   0.14365
 Alpha virt. eigenvalues --    0.16990   0.18055   0.28740   0.30718   0.33339
 Alpha virt. eigenvalues --    0.35212   0.37793   0.38898   0.39972   0.41869

 Mulliken charges:
               1
     1  C    0.058488
     2  O   -0.341294
     3  H    0.062908
     4  H    0.057698
     5  H    0.075341
     6  H    0.086859
 Sum of Mulliken charges =   0.00000

 Dipole moment (field-independent basis, Debye):
    X=             -0.9390    Y=             -1.2364    Z=              0.4153  Tot=              1.6071
 Quadrupole moment (field-independent basis, Debye-Ang):
   XX=            -12.4850   YY=            -12.7835   ZZ=            -13.7125
   XY=             -2.0285   XZ=              0.3866   YZ=             -0.1627

 Normal termination of Gaussian 09 at Wed Aug 26 23:54:23 2020.
