 Gaussian 09, Revision D.01,
 Gaussian 09:  ES64L-G09RevD.01 24-Apr-2013

 --------------------
 #p B2PLYPD3/Def2QZVP
 --------------------

 --------
 methanol
 --------
 Symbolic Z-matrix:
 Charge =  0 Multiplicity = 1

                         Standard orientation:
 ---------------------------------------------------------------------
 Center     Atomic      Atomic             Coordinates (Angstroms)
 Number     Number       Type             X           Y           Z
 ---------------------------------------------------------------------
      1          6           0        0.698212    0.028768   -0.004392
      2          8           0       -0.757111   -0.155091    0.000892
      3          1           0        1.040098    0.517662    0.780504
      4          1           0        1.100777    0.517480   -0.737585
      5          1           0        0.918267   -1.008933   -0.002052
      6          1           0       -1.191527    1.041909   -0.021651
 ---------------------------------------------------------------------

 SCF Done:  E(RB2PLYPD3) =  -115.469349161     A.U. after   11 cycles
 E2(B2PLYPD3) =    -0.1541421345D+00 E(B2PLYPD3) =    -0.11562349129569D+03

 The electronic state is 1-A.
 Alpha  occ. eigenvalues --  -19.74767 -10.62831  -1.10953  -0.80073  -0.56770
 Alpha  occ. eigenvalues --   -0.52344  -0.46620  -0.40865  -0.35490
 Alpha virt. eigenvalues --    0.01372   0.07558   0.11808   0.13159   0.15095
 Alpha virt. eigenvalues --    0.16661   0.18146   0.24757   0.29065   0.32538
 Alpha virt. eigenvalues --    0.34169   0.37849   0.38820   0.43084   0.45577

 Mulliken charges:
               1
     1  C    0.087569
     2  O   -0.493353
     3  H    0.049113
     4  H    0.049816
     5  H    0.072019
     6  H    0.234836
 Sum of Mulliken charges =   0.00000

 Dipole moment (field-independent basis, Debye):
    X=              1.1648    Y=              1.7498    Z=             -0.0377  Tot=              2.1024
 Quadrupole moment (field-independent basis, Debye-Ang):
   XX=            -13.1875   YY=            -11.3262   ZZ=            -14.1083
   XY=             -1.9991   XZ=             -0.0137   YZ=             -0.0357

 Normal termination of Gaussian 09 at Wed Aug 26 23:03:49 2020.
