 Gaussian 09, Revision D.01,
 Gaussian 09:  ES64L-G09RevD.01 24-Apr-2013

 --------------------
 #p B2PLYPD3/Def2QZVP
 --------------------

 --------
 methanol
 --------
 Symbolic Z-matrix:
 Charge =  0 Multiplicity = 1

                         Standard orientation:
 ---------------------------------------------------------------------
 Center     Atomic      Atomic             Coordinates (Angstroms)
 Number     Number       Type             X           Y           Z
 ---------------------------------------------------------------------
      1          6           0        0.627432    0.021219    0.001213
      2          8           0       -0.729720   -0.160154   -0.010186
      3          1           0        1.030127    0.458682    0.868125
      4          1           0        1.110384    0.507549   -0.847231
      5          1           0        1.054424   -0.845674    0.019417
      6          1           0       -1.121770    1.033367    0.033902
 ---------------------------------------------------------------------

 SCF Done:  E(RB2PLYPD3) =  -115.482810356     A.U. after   11 cycles
 E2(B2PLYPD3) =    -0.1524058731D+00 E(B2PLYPD3) =    -0.11563521622913D+03

 The electronic state is 1-A.
 Alpha  occ. eigenvalues --  -19.75152 -10.62945  -1.14712  -0.78885  -0.56049
 Alpha  occ. eigenvalues --   -0.52098  -0.50969  -0.39840  -0.35024
 Alpha virt. eigenvalues --    0.01143   0.07555   0.12652   0.12998   0.15056
 Alpha virt. eigenvalues --    0.17635   0.18845   0.24565   0.29250   0.33567
 Alpha virt. eigenvalues --    0.36155   0.38301   0.41107   0.41674   0.43620

 Mulliken charges:
               1
     1  C    0.069730
     2  O   -0.460877
     3  H    0.037726
     4  H    0.036559
     5  H    0.060609
     6  H    0.256254
 Sum of Mulliken charges =   0.00000

 Dipole moment (field-independent basis, Debye):
    X=              0.8592    Y=              1.6101    Z=              0.1151  Tot=              1.8286
 Quadrupole moment (field-independent basis, Debye-Ang):
   XX=            -13.2076   YY=            -11.7692   ZZ=            -13.9712
   XY=             -2.4499   XZ=             -0.0696   YZ=              0.0491

 Normal termination of Gaussian 09 at Wed Aug 26 22:11:47 2020.
