 Gaussian 09, Revision D.01,
 Gaussian 09:  ES64L-G09RevD.01 24-Apr-2013

 --------------------
 #p B2PLYPD3/Def2QZVP
 --------------------

 --------
 methanol
 --------
 Symbolic Z-matrix:
 Charge =  0 Multiplicity = 1

                         Standard orientation:
 ---------------------------------------------------------------------
 Center     Atomic      Atomic             Coordinates (Angstroms)
 Number     Number       Type             X           Y           Z
 ---------------------------------------------------------------------
      1          6           0       -0.675126    0.026258    0.000224
      2          8           0        0.745630   -0.146139    0.002513
      3          1           0       -1.033268    0.505379   -0.822022
      4          1           0       -0.923978    0.594626    0.830363
      5          1           0       -1.108833   -0.951757    0.027383
      6          1           0        1.151793    0.863319   -0.057172
 ---------------------------------------------------------------------

 SCF Done:  E(RB2PLYPD3) =  -115.531406963     A.U. after   11 cycles
 E2(B2PLYPD3) =    -0.1493437747D+00 E(B2PLYPD3) =    -0.11568075073808D+03

 The electronic state is 1-A.
 Alpha  occ. eigenvalues --  -19.73283 -10.63811  -1.13584  -0.79030  -0.57162
 Alpha  occ. eigenvalues --   -0.52787  -0.49062  -0.41183  -0.35136
 Alpha virt. eigenvalues --    0.03902   0.07971   0.12422   0.12698   0.14893
 Alpha virt. eigenvalues --    0.17469   0.17900   0.29095   0.30535   0.32979
 Alpha virt. eigenvalues --    0.33975   0.39226   0.39828   0.42408   0.44498

 Mulliken charges:
               1
     1  C    0.089475
     2  O   -0.493236
     3  H    0.044652
     4  H    0.046293
     5  H    0.067091
     6  H    0.245724
 Sum of Mulliken charges =   0.00000

 Dipole moment (field-independent basis, Debye):
    X=             -0.9895    Y=              1.6632    Z=             -0.1146  Tot=              1.9387
 Quadrupole moment (field-independent basis, Debye-Ang):
   XX=            -13.0648   YY=            -11.8572   ZZ=            -13.8460
   XY=              2.3462   XZ=             -0.0021   YZ=             -0.0665

 Normal termination of Gaussian 09 at Wed Aug 26 15:31:05 2020.
