 Gaussian 09, Revision D.01,
 Gaussian 09:  ES64L-G09RevD.01 24-Apr-2013

 --------------------
 #p B2PLYPD3/Def2QZVP
 --------------------

 --------
 methanol
 --------
 Symbolic Z-matrix:
 Charge =  0 Multiplicity = 1

                         Standard orientation:
 ---------------------------------------------------------------------
 Center     Atomic      Atomic             Coordinates (Angstroms)
 Number     Number       Type             X           Y           Z
 ---------------------------------------------------------------------
      1          6           0        0.661842   -0.019503   -0.002346
      2          8           0       -0.744501    0.101549    0.005060
      3          1           0        1.012630   -0.525041   -0.931993
      4          1           0        0.975183   -0.579145    0.935384
      5          1           0        1.079223    1.027661    0.017957
      6          1           0       -1.082077   -0.618849   -0.047748
 ---------------------------------------------------------------------

 SCF Done:  E(RB2PLYPD3) =  -115.515387349     A.U. after   10 cycles
 E2(B2PLYPD3) =    -0.1447793175D+00 E(B2PLYPD3) =    -0.11566016666604D+03

 The electronic state is 1-A.
 Alpha  occ. eigenvalues --  -19.70788 -10.66994  -1.20777  -0.79817  -0.60610
 Alpha  occ. eigenvalues --   -0.52108  -0.50227  -0.41076  -0.35695
 Alpha virt. eigenvalues --    0.05387   0.08987   0.11997   0.12223   0.14540
 Alpha virt. eigenvalues --    0.17162   0.17811   0.28874   0.32844   0.33470
 Alpha virt. eigenvalues --    0.37435   0.38821   0.40140   0.40276   0.43293

 Mulliken charges:
               1
     1  C    0.061695
     2  O   -0.349657
     3  H    0.049627
     4  H    0.048401
     5  H    0.073402
     6  H    0.116532
 Sum of Mulliken charges =   0.00000

 Dipole moment (field-independent basis, Debye):
    X=              0.8946    Y=             -1.3373    Z=             -0.1227  Tot=              1.6136
 Quadrupole moment (field-independent basis, Debye-Ang):
   XX=            -13.2520   YY=            -12.4159   ZZ=            -13.5630
   XY=              2.0794   XZ=              0.0655   YZ=              0.0760

 Normal termination of Gaussian 09 at Wed Aug 26 10:03:55 2020.
