 Gaussian 09, Revision D.01,
 Gaussian 09:  ES64L-G09RevD.01 24-Apr-2013

 --------------------
 #p B2PLYPD3/Def2QZVP
 --------------------

 --------
 methanol
 --------
 Symbolic Z-matrix:
 Charge =  0 Multiplicity = 1

                         Standard orientation:
 ---------------------------------------------------------------------
 Center     Atomic      Atomic             Coordinates (Angstroms)
 Number     Number       Type             X           Y           Z
 ---------------------------------------------------------------------
      1          6           0       -0.679953   -0.022928    0.010475
      2          8           0        0.762692    0.098658   -0.006947
      3          1           0       -1.048055   -0.497742    0.916799
      4          1           0       -1.018793   -0.642148   -0.890390
      5          1           0       -1.122151    1.066337   -0.077824
      6          1           0        1.167180   -0.578139    0.044145
 ---------------------------------------------------------------------

 SCF Done:  E(RB2PLYPD3) =  -115.505593960     A.U. after   10 cycles
 E2(B2PLYPD3) =    -0.1452294999D+00 E(B2PLYPD3) =    -0.11565082345988D+03

 The electronic state is 1-A.
 Alpha  occ. eigenvalues --  -19.70623 -10.67825  -1.19618  -0.80002  -0.60629
 Alpha  occ. eigenvalues --   -0.51287  -0.49225  -0.40691  -0.35912
 Alpha virt. eigenvalues --    0.05375   0.08690   0.11852   0.12160   0.14625
 Alpha virt. eigenvalues --    0.17058   0.17791   0.29020   0.31774   0.33289
 Alpha virt. eigenvalues --    0.36231   0.38501   0.39601   0.40452   0.42213

 Mulliken charges:
               1
     1  C    0.065195
     2  O   -0.360103
     3  H    0.060839
     4  H    0.050918
     5  H    0.074590
     6  H    0.108561
 Sum of Mulliken charges =   0.00000

 Dipole moment (field-independent basis, Debye):
    X=             -0.9394    Y=             -1.3539    Z=              0.1502  Tot=              1.6547
 Quadrupole moment (field-independent basis, Debye-Ang):
   XX=            -12.7873   YY=            -12.5081   ZZ=            -13.7041
   XY=             -2.0643   XZ=              0.0618   YZ=             -0.1126

 Normal termination of Gaussian 09 at Wed Aug 26 12:00:09 2020.
