 Gaussian 09, Revision D.01,
 Gaussian 09:  ES64L-G09RevD.01 24-Apr-2013

 --------------------
 #p B2PLYPD3/Def2QZVP
 --------------------

 --------
 methanol
 --------
 Symbolic Z-matrix:
 Charge =  0 Multiplicity = 1

                         Standard orientation:
 ---------------------------------------------------------------------
 Center     Atomic      Atomic             Coordinates (Angstroms)
 Number     Number       Type             X           Y           Z
 ---------------------------------------------------------------------
      1          6           0       -0.661390   -0.040173    0.007575
      2          8           0        0.741086    0.099018   -0.022819
      3          1           0       -0.942856   -0.405280    0.956953
      4          1           0       -0.998551   -0.661022   -0.855634
      5          1           0       -1.077191    1.092916   -0.082116
      6          1           0        1.058248   -0.577720    0.117898
 ---------------------------------------------------------------------

 SCF Done:  E(RB2PLYPD3) =  -115.483832473     A.U. after   10 cycles
 E2(B2PLYPD3) =    -0.1443168693D+00 E(B2PLYPD3) =    -0.11562814934187D+03

 The electronic state is 1-A.
 Alpha  occ. eigenvalues --  -19.70264 -10.66953  -1.22248  -0.80283  -0.61380
 Alpha  occ. eigenvalues --   -0.53385  -0.49164  -0.40672  -0.36206
 Alpha virt. eigenvalues --    0.05343   0.09229   0.11714   0.12085   0.14586
 Alpha virt. eigenvalues --    0.17043   0.17826   0.28811   0.32962   0.33285
 Alpha virt. eigenvalues --    0.35657   0.39020   0.40795   0.41462   0.43639

 Mulliken charges:
               1
     1  C    0.060070
     2  O   -0.308697
     3  H    0.058248
     4  H    0.056322
     5  H    0.059346
     6  H    0.074712
 Sum of Mulliken charges =   0.00000

 Dipole moment (field-independent basis, Debye):
    X=             -0.9070    Y=             -1.3845    Z=              0.3395  Tot=              1.6896
 Quadrupole moment (field-independent basis, Debye-Ang):
   XX=            -13.3766   YY=            -12.4488   ZZ=            -13.4014
   XY=             -1.8446   XZ=              0.3387   YZ=             -0.1363

 Normal termination of Gaussian 09 at Wed Aug 26 13:37:39 2020.
