 Gaussian 09, Revision D.01,
 Gaussian 09:  ES64L-G09RevD.01 24-Apr-2013

 --------------------
 #p B2PLYPD3/Def2QZVP
 --------------------

 --------
 methanol
 --------
 Symbolic Z-matrix:
 Charge =  0 Multiplicity = 1

                         Standard orientation:
 ---------------------------------------------------------------------
 Center     Atomic      Atomic             Coordinates (Angstroms)
 Number     Number       Type             X           Y           Z
 ---------------------------------------------------------------------
      1          6           0        0.703302    0.030243   -0.017527
      2          8           0       -0.745078   -0.201492    0.029901
      3          1           0        1.100160    0.635949    0.738214
      4          1           0        0.935430    0.472354   -0.703219
      5          1           0        1.079476   -0.826249   -0.054798
      6          1           0       -1.374251    1.148421   -0.114242
 ---------------------------------------------------------------------

 SCF Done:  E(RB2PLYPD3) =  -115.362062258     A.U. after   12 cycles
 E2(B2PLYPD3) =    -0.1581757587D+00 E(B2PLYPD3) =    -0.11552023801688D+03

 The electronic state is 1-A.
 Alpha  occ. eigenvalues --  -19.75549 -10.60707  -1.09842  -0.82506  -0.56748
 Alpha  occ. eigenvalues --   -0.52019  -0.47823  -0.39309  -0.35234
 Alpha virt. eigenvalues --   -0.02991   0.07277   0.12439   0.13261   0.14628
 Alpha virt. eigenvalues --    0.17208   0.18231   0.21331   0.29318   0.32697
 Alpha virt. eigenvalues --    0.33575   0.38330   0.39853   0.41512   0.46127

 Mulliken charges:
               1
     1  C    0.042695
     2  O   -0.494309
     3  H    0.048416
     4  H    0.108484
     5  H    0.073302
     6  H    0.221412
 Sum of Mulliken charges =   0.00000

 Dipole moment (field-independent basis, Debye):
    X=              1.1392    Y=              1.7494    Z=             -0.3516  Tot=              2.1170
 Quadrupole moment (field-independent basis, Debye-Ang):
   XX=            -12.4087   YY=            -11.2792   ZZ=            -14.1157
   XY=             -2.5875   XZ=              0.1341   YZ=             -0.1844

 Normal termination of Gaussian 09 at Wed Aug 26 22:21:08 2020.
