 Gaussian 09, Revision D.01,
 Gaussian 09:  ES64L-G09RevD.01 24-Apr-2013

 --------------------
 #p B2PLYPD3/Def2QZVP
 --------------------

 --------
 methanol
 --------
 Symbolic Z-matrix:
 Charge =  0 Multiplicity = 1

                         Standard orientation:
 ---------------------------------------------------------------------
 Center     Atomic      Atomic             Coordinates (Angstroms)
 Number     Number       Type             X           Y           Z
 ---------------------------------------------------------------------
      1          6           0        0.679790    0.005624   -0.023967
      2          8           0       -0.733188   -0.185004    0.029323
      3          1           0        0.986581    0.642699    0.835215
      4          1           0        0.964353    0.432813   -0.753922
      5          1           0        1.039062   -0.764131   -0.015279
      6          1           0       -1.203234    1.134907   -0.156799
 ---------------------------------------------------------------------

 SCF Done:  E(RB2PLYPD3) =  -115.370287106     A.U. after   11 cycles
 E2(B2PLYPD3) =    -0.1557690607D+00 E(B2PLYPD3) =    -0.11552605616699D+03

 The electronic state is 1-A.
 Alpha  occ. eigenvalues --  -19.75107 -10.60564  -1.11579  -0.82053  -0.57636
 Alpha  occ. eigenvalues --   -0.52328  -0.48830  -0.40097  -0.34736
 Alpha virt. eigenvalues --   -0.01575   0.07580   0.12609   0.12923   0.14690
 Alpha virt. eigenvalues --    0.17451   0.18254   0.22415   0.29634   0.32773
 Alpha virt. eigenvalues --    0.34184   0.37705   0.40570   0.42419   0.46466

 Mulliken charges:
               1
     1  C    0.028150
     2  O   -0.486009
     3  H    0.045333
     4  H    0.058722
     5  H    0.119656
     6  H    0.234148
 Sum of Mulliken charges =   0.00000

 Dipole moment (field-independent basis, Debye):
    X=              1.1216    Y=              1.6648    Z=             -0.4280  Tot=              2.0525
 Quadrupole moment (field-independent basis, Debye-Ang):
   XX=            -13.1038   YY=            -11.2600   ZZ=            -13.8464
   XY=             -2.5555   XZ=              0.0611   YZ=             -0.2871

 Normal termination of Gaussian 09 at Wed Aug 26 23:45:34 2020.
