 Gaussian 09, Revision D.01,
 Gaussian 09:  ES64L-G09RevD.01 24-Apr-2013

 --------------------
 #p B2PLYPD3/Def2QZVP
 --------------------

 --------
 methanol
 --------
 Symbolic Z-matrix:
 Charge =  0 Multiplicity = 1

                         Standard orientation:
 ---------------------------------------------------------------------
 Center     Atomic      Atomic             Coordinates (Angstroms)
 Number     Number       Type             X           Y           Z
 ---------------------------------------------------------------------
      1          6           0       -0.653220   -0.034086    0.006380
      2          8           0        0.757101    0.103010   -0.018972
      3          1           0       -0.997529   -0.439493    0.940968
      4          1           0       -1.051850   -0.630549   -0.870027
      5          1           0       -1.135134    1.068125   -0.054471
      6          1           0        1.047027   -0.617647    0.097023
 ---------------------------------------------------------------------

 SCF Done:  E(RB2PLYPD3) =  -115.502364339     A.U. after   10 cycles
 E2(B2PLYPD3) =    -0.1450492678D+00 E(B2PLYPD3) =    -0.11564741360641D+03

 The electronic state is 1-A.
 Alpha  occ. eigenvalues --  -19.71198 -10.67367  -1.21610  -0.79511  -0.61246
 Alpha  occ. eigenvalues --   -0.52401  -0.49416  -0.40943  -0.36311
 Alpha virt. eigenvalues --    0.05311   0.08876   0.11826   0.12107   0.14638
 Alpha virt. eigenvalues --    0.17420   0.18064   0.28712   0.32856   0.33326
 Alpha virt. eigenvalues --    0.35655   0.38487   0.39895   0.40930   0.43420

 Mulliken charges:
               1
     1  C    0.056947
     2  O   -0.329954
     3  H    0.057645
     4  H    0.053104
     5  H    0.057775
     6  H    0.104483
 Sum of Mulliken charges =   0.00000

 Dipole moment (field-independent basis, Debye):
    X=             -0.9612    Y=             -1.4103    Z=              0.2827  Tot=              1.7299
 Quadrupole moment (field-independent basis, Debye-Ang):
   XX=            -13.2855   YY=            -12.5066   ZZ=            -13.5854
   XY=             -1.9015   XZ=              0.2559   YZ=             -0.1343

 Normal termination of Gaussian 09 at Wed Aug 26 10:51:42 2020.
