 Gaussian 09, Revision D.01,
 Gaussian 09:  ES64L-G09RevD.01 24-Apr-2013

 --------------------
 #p B2PLYPD3/Def2QZVP
 --------------------

 --------
 methanol
 --------
 Symbolic Z-matrix:
 Charge =  0 Multiplicity = 1

                         Standard orientation:
 ---------------------------------------------------------------------
 Center     Atomic      Atomic             Coordinates (Angstroms)
 Number     Number       Type             X           Y           Z
 ---------------------------------------------------------------------
      1          6           0       -0.660842   -0.026818   -0.005631
      2          8           0        0.744305    0.120389   -0.002661
      3          1           0       -1.010199   -0.541483    0.891621
      4          1           0       -1.038357   -0.561051   -0.859252
      5          1           0       -1.098464    1.019654    0.010756
      6          1           0        1.157631   -0.719322    0.011952
 ---------------------------------------------------------------------

 SCF Done:  E(RB2PLYPD3) =  -115.551288012     A.U. after   10 cycles
 E2(B2PLYPD3) =    -0.1468070399D+00 E(B2PLYPD3) =    -0.11569809505202D+03

 The electronic state is 1-A.
 Alpha  occ. eigenvalues --  -19.72336 -10.65910  -1.16809  -0.78726  -0.59430
 Alpha  occ. eigenvalues --   -0.51917  -0.49540  -0.40764  -0.35446
 Alpha virt. eigenvalues --    0.05067   0.08288   0.12221   0.12485   0.14961
 Alpha virt. eigenvalues --    0.17242   0.18047   0.29160   0.33342   0.33824
 Alpha virt. eigenvalues --    0.35816   0.37996   0.39833   0.41165   0.43554

 Mulliken charges:
               1
     1  C    0.069197
     2  O   -0.448537
     3  H    0.046915
     4  H    0.051012
     5  H    0.066304
     6  H    0.215109
 Sum of Mulliken charges =   0.00000

 Dipole moment (field-independent basis, Debye):
    X=             -0.8082    Y=             -1.5201    Z=              0.0175  Tot=              1.7216
 Quadrupole moment (field-independent basis, Debye-Ang):
   XX=            -12.9186   YY=            -12.2914   ZZ=            -13.8239
   XY=             -2.2010   XZ=              0.0695   YZ=              0.0208

 Normal termination of Gaussian 09 at Thu Aug 27 00:07:34 2020.
