 Gaussian 09, Revision D.01,
 Gaussian 09:  ES64L-G09RevD.01 24-Apr-2013

 --------------------
 #p B2PLYPD3/Def2QZVP
 --------------------

 --------
 methanol
 --------
 Symbolic Z-matrix:
 Charge =  0 Multiplicity = 1

                         Standard orientation:
 ---------------------------------------------------------------------
 Center     Atomic      Atomic             Coordinates (Angstroms)
 Number     Number       Type             X           Y           Z
 ---------------------------------------------------------------------
      1          6           0       -0.643780   -0.003812    0.016981
      2          8           0        0.724559   -0.155226   -0.026975
      3          1           0       -1.099242    0.726616   -0.790975
      4          1           0       -1.020564    0.373626    0.910894
      5          1           0       -1.105193   -0.773142   -0.120953
      6          1           0        1.291202    0.937578    0.114954
 ---------------------------------------------------------------------

 SCF Done:  E(RB2PLYPD3) =  -115.468358827     A.U. after   11 cycles
 E2(B2PLYPD3) =    -0.1517351875D+00 E(B2PLYPD3) =    -0.11562009401425D+03

 The electronic state is 1-A.
 Alpha  occ. eigenvalues --  -19.74651 -10.63324  -1.14015  -0.79528  -0.56010
 Alpha  occ. eigenvalues --   -0.52585  -0.50476  -0.39768  -0.34219
 Alpha virt. eigenvalues --    0.01323   0.07468   0.12654   0.13233   0.15032
 Alpha virt. eigenvalues --    0.17893   0.18492   0.24878   0.29542   0.32872
 Alpha virt. eigenvalues --    0.35455   0.37500   0.40420   0.42443   0.43282

 Mulliken charges:
               1
     1  C    0.065566
     2  O   -0.479285
     3  H    0.016281
     4  H    0.042002
     5  H    0.085620
     6  H    0.269816
 Sum of Mulliken charges =   0.00000

 Dipole moment (field-independent basis, Debye):
    X=             -0.5638    Y=              1.5041    Z=              0.3483  Tot=              1.6437
 Quadrupole moment (field-independent basis, Debye-Ang):
   XX=            -12.3681   YY=            -12.0941   ZZ=            -14.0956
   XY=              2.8872   XZ=              0.2247   YZ=              0.3081

 Normal termination of Gaussian 09 at Wed Aug 26 22:16:36 2020.
