 Gaussian 09, Revision D.01,
 Gaussian 09:  ES64L-G09RevD.01 24-Apr-2013

 --------------------
 #p B2PLYPD3/Def2QZVP
 --------------------

 --------
 methanol
 --------
 Symbolic Z-matrix:
 Charge =  0 Multiplicity = 1

                         Standard orientation:
 ---------------------------------------------------------------------
 Center     Atomic      Atomic             Coordinates (Angstroms)
 Number     Number       Type             X           Y           Z
 ---------------------------------------------------------------------
      1          6           0        0.674528    0.027571   -0.001251
      2          8           0       -0.748577   -0.159146    0.012566
      3          1           0        1.109123    0.524511    0.808159
      4          1           0        1.004781    0.517132   -0.805948
      5          1           0        1.042403   -0.923994   -0.054016
      6          1           0       -1.214857    0.990095   -0.041221
 ---------------------------------------------------------------------

 SCF Done:  E(RB2PLYPD3) =  -115.493002791     A.U. after   11 cycles
 E2(B2PLYPD3) =    -0.1525832733D+00 E(B2PLYPD3) =    -0.11564558606439D+03

 The electronic state is 1-A.
 Alpha  occ. eigenvalues --  -19.74610 -10.63063  -1.12027  -0.79367  -0.56000
 Alpha  occ. eigenvalues --   -0.51957  -0.48703  -0.40718  -0.35264
 Alpha virt. eigenvalues --    0.01785   0.07547   0.12489   0.12932   0.15043
 Alpha virt. eigenvalues --    0.17141   0.18398   0.25368   0.29465   0.33469
 Alpha virt. eigenvalues --    0.34066   0.39019   0.39319   0.42144   0.44544

 Mulliken charges:
               1
     1  C    0.089043
     2  O   -0.493742
     3  H    0.046305
     4  H    0.044561
     5  H    0.065247
     6  H    0.248586
 Sum of Mulliken charges =   0.00000

 Dipole moment (field-independent basis, Debye):
    X=              0.9956    Y=              1.6994    Z=             -0.1385  Tot=              1.9744
 Quadrupole moment (field-independent basis, Debye-Ang):
   XX=            -12.8794   YY=            -11.6799   ZZ=            -14.0103
   XY=             -2.3687   XZ=              0.1058   YZ=             -0.0534

 Normal termination of Gaussian 09 at Wed Aug 26 13:17:32 2020.
