 Gaussian 09, Revision D.01,
 Gaussian 09:  ES64L-G09RevD.01 24-Apr-2013

 --------------------
 #p B2PLYPD3/Def2QZVP
 --------------------

 --------
 methanol
 --------
 Symbolic Z-matrix:
 Charge =  0 Multiplicity = 1

                         Standard orientation:
 ---------------------------------------------------------------------
 Center     Atomic      Atomic             Coordinates (Angstroms)
 Number     Number       Type             X           Y           Z
 ---------------------------------------------------------------------
      1          6           0       -0.665445    0.039888    0.003343
      2          8           0        0.750764   -0.146740   -0.004546
      3          1           0       -0.996426    0.580811   -0.804517
      4          1           0       -1.032199    0.432519    0.844625
      5          1           0       -1.091896   -0.979067   -0.062383
      6          1           0        1.107078    0.900334    0.038587
 ---------------------------------------------------------------------

 SCF Done:  E(RB2PLYPD3) =  -115.524504425     A.U. after   11 cycles
 E2(B2PLYPD3) =    -0.1499763291D+00 E(B2PLYPD3) =    -0.11567448075445D+03

 The electronic state is 1-A.
 Alpha  occ. eigenvalues --  -19.73825 -10.63841  -1.13766  -0.79044  -0.56889
 Alpha  occ. eigenvalues --   -0.53351  -0.48528  -0.40930  -0.35655
 Alpha virt. eigenvalues --    0.03689   0.07894   0.12298   0.12684   0.14922
 Alpha virt. eigenvalues --    0.17475   0.18322   0.28524   0.29942   0.33588
 Alpha virt. eigenvalues --    0.34094   0.37910   0.40148   0.43094   0.44445

 Mulliken charges:
               1
     1  C    0.085810
     2  O   -0.483919
     3  H    0.047238
     4  H    0.050102
     5  H    0.055076
     6  H    0.245693
 Sum of Mulliken charges =   0.00000

 Dipole moment (field-independent basis, Debye):
    X=             -1.0347    Y=              1.7058    Z=              0.0928  Tot=              1.9972
 Quadrupole moment (field-independent basis, Debye-Ang):
   XX=            -13.2567   YY=            -11.8708   ZZ=            -13.8063
   XY=              2.1717   XZ=              0.0237   YZ=              0.0420

 Normal termination of Gaussian 09 at Wed Aug 26 15:39:29 2020.
