 Gaussian 09, Revision D.01,
 Gaussian 09:  ES64L-G09RevD.01 24-Apr-2013

 --------------------
 #p B2PLYPD3/Def2QZVP
 --------------------

 --------
 methanol
 --------
 Symbolic Z-matrix:
 Charge =  0 Multiplicity = 1

                         Standard orientation:
 ---------------------------------------------------------------------
 Center     Atomic      Atomic             Coordinates (Angstroms)
 Number     Number       Type             X           Y           Z
 ---------------------------------------------------------------------
      1          6           0        0.652603   -0.032459    0.003905
      2          8           0       -0.743098    0.106770   -0.002898
      3          1           0        0.997312   -0.598960   -0.896393
      4          1           0        1.041863   -0.495804    0.920087
      5          1           0        1.119085    1.052982   -0.055234
      6          1           0       -1.129094   -0.617624    0.031288
 ---------------------------------------------------------------------

 SCF Done:  E(RB2PLYPD3) =  -115.524461638     A.U. after   10 cycles
 E2(B2PLYPD3) =    -0.1451635267D+00 E(B2PLYPD3) =    -0.11566962516452D+03

 The electronic state is 1-A.
 Alpha  occ. eigenvalues --  -19.71305 -10.67107  -1.20213  -0.79572  -0.60985
 Alpha  occ. eigenvalues --   -0.52225  -0.49687  -0.40305  -0.35854
 Alpha virt. eigenvalues --    0.05350   0.08732   0.12033   0.12241   0.14735
 Alpha virt. eigenvalues --    0.17229   0.18042   0.28900   0.33168   0.33918
 Alpha virt. eigenvalues --    0.36309   0.38601   0.39990   0.40686   0.42898

 Mulliken charges:
               1
     1  C    0.058680
     2  O   -0.367850
     3  H    0.050094
     4  H    0.054153
     5  H    0.063033
     6  H    0.141890
 Sum of Mulliken charges =   0.00000

 Dipole moment (field-independent basis, Debye):
    X=              0.7769    Y=             -1.4121    Z=              0.0846  Tot=              1.6139
 Quadrupole moment (field-independent basis, Debye-Ang):
   XX=            -12.9659   YY=            -12.5544   ZZ=            -13.6752
   XY=              2.0621   XZ=             -0.0303   YZ=             -0.0516

 Normal termination of Gaussian 09 at Thu Aug 27 00:04:58 2020.
