 Gaussian 09, Revision D.01,
 Gaussian 09:  ES64L-G09RevD.01 24-Apr-2013

 --------------------
 #p B2PLYPD3/Def2QZVP
 --------------------

 --------
 methanol
 --------
 Symbolic Z-matrix:
 Charge =  0 Multiplicity = 1

                         Standard orientation:
 ---------------------------------------------------------------------
 Center     Atomic      Atomic             Coordinates (Angstroms)
 Number     Number       Type             X           Y           Z
 ---------------------------------------------------------------------
      1          6           0       -0.659126   -0.017005    0.010877
      2          8           0        0.750295    0.094131   -0.020880
      3          1           0       -1.013163   -0.370971    0.983243
      4          1           0       -1.069955   -0.730781   -0.826984
      5          1           0       -1.077128    1.046468   -0.155408
      6          1           0        1.112644   -0.595732    0.100929
 ---------------------------------------------------------------------

 SCF Done:  E(RB2PLYPD3) =  -115.506975213     A.U. after   10 cycles
 E2(B2PLYPD3) =    -0.1449219725D+00 E(B2PLYPD3) =    -0.11565189718578D+03

 The electronic state is 1-A.
 Alpha  occ. eigenvalues --  -19.70963 -10.67556  -1.20977  -0.79933  -0.61074
 Alpha  occ. eigenvalues --   -0.51446  -0.49957  -0.40904  -0.35809
 Alpha virt. eigenvalues --    0.05368   0.08832   0.11933   0.12163   0.14769
 Alpha virt. eigenvalues --    0.17046   0.17943   0.28884   0.33013   0.33308
 Alpha virt. eigenvalues --    0.36860   0.38129   0.39772   0.40477   0.42607

 Mulliken charges:
               1
     1  C    0.057809
     2  O   -0.337779
     3  H    0.055641
     4  H    0.042733
     5  H    0.072509
     6  H    0.109087
 Sum of Mulliken charges =   0.00000

 Dipole moment (field-independent basis, Debye):
    X=             -0.8440    Y=             -1.2993    Z=              0.3144  Tot=              1.5809
 Quadrupole moment (field-independent basis, Debye-Ang):
   XX=            -13.0562   YY=            -12.5015   ZZ=            -13.6733
   XY=             -2.0063   XZ=              0.2881   YZ=             -0.1866

 Normal termination of Gaussian 09 at Thu Aug 27 00:08:37 2020.
