 Gaussian 09, Revision D.01,
 Gaussian 09:  ES64L-G09RevD.01 24-Apr-2013

 --------------------
 #p B2PLYPD3/Def2QZVP
 --------------------

 --------
 methanol
 --------
 Symbolic Z-matrix:
 Charge =  0 Multiplicity = 1

                         Standard orientation:
 ---------------------------------------------------------------------
 Center     Atomic      Atomic             Coordinates (Angstroms)
 Number     Number       Type             X           Y           Z
 ---------------------------------------------------------------------
      1          6           0        0.674197   -0.023327   -0.002180
      2          8           0       -0.753843    0.108367    0.003956
      3          1           0        1.013638   -0.551189   -0.892529
      4          1           0        1.065702   -0.512110    0.907530
      5          1           0        1.029362    1.036050   -0.031351
      6          1           0       -1.123134   -0.699726   -0.002216
 ---------------------------------------------------------------------

 SCF Done:  E(RB2PLYPD3) =  -115.547130727     A.U. after   10 cycles
 E2(B2PLYPD3) =    -0.1463741135D+00 E(B2PLYPD3) =    -0.11569350484093D+03

 The electronic state is 1-A.
 Alpha  occ. eigenvalues --  -19.71794 -10.66256  -1.17341  -0.79089  -0.59473
 Alpha  occ. eigenvalues --   -0.51844  -0.49209  -0.41289  -0.35724
 Alpha virt. eigenvalues --    0.05257   0.08503   0.12156   0.12282   0.14844
 Alpha virt. eigenvalues --    0.16954   0.18090   0.29039   0.32794   0.33471
 Alpha virt. eigenvalues --    0.37502   0.38030   0.39927   0.40678   0.43146

 Mulliken charges:
               1
     1  C    0.064742
     2  O   -0.431432
     3  H    0.053556
     4  H    0.053303
     5  H    0.071047
     6  H    0.188784
 Sum of Mulliken charges =   0.00000

 Dipole moment (field-independent basis, Debye):
    X=              0.9336    Y=             -1.4567    Z=             -0.0285  Tot=              1.7304
 Quadrupole moment (field-independent basis, Debye-Ang):
   XX=            -13.1158   YY=            -12.2645   ZZ=            -13.6908
   XY=              2.0768   XZ=              0.0385   YZ=              0.0136

 Normal termination of Gaussian 09 at Wed Aug 26 19:08:20 2020.
