 Gaussian 09, Revision D.01,
 Gaussian 09:  ES64L-G09RevD.01 24-Apr-2013

 --------------------
 #p B2PLYPD3/Def2QZVP
 --------------------

 --------
 methanol
 --------
 Symbolic Z-matrix:
 Charge =  0 Multiplicity = 1

                         Standard orientation:
 ---------------------------------------------------------------------
 Center     Atomic      Atomic             Coordinates (Angstroms)
 Number     Number       Type             X           Y           Z
 ---------------------------------------------------------------------
      1          6           0        0.664146   -0.007520    0.012822
      2          8           0       -0.740814    0.100196   -0.015406
      3          1           0        1.003342   -0.730645   -0.849349
      4          1           0        0.991977   -0.396876    0.986703
      5          1           0        1.068483    0.989188   -0.169426
      6          1           0       -1.122168   -0.618114    0.078387
 ---------------------------------------------------------------------

 SCF Done:  E(RB2PLYPD3) =  -115.524596208     A.U. after   10 cycles
 E2(B2PLYPD3) =    -0.1449617231D+00 E(B2PLYPD3) =    -0.11566955793128D+03

 The electronic state is 1-A.
 Alpha  occ. eigenvalues --  -19.70906 -10.66859  -1.19867  -0.79968  -0.60373
 Alpha  occ. eigenvalues --   -0.51675  -0.50836  -0.40894  -0.35341
 Alpha virt. eigenvalues --    0.05365   0.08880   0.11992   0.12382   0.14623
 Alpha virt. eigenvalues --    0.17101   0.17741   0.28991   0.32756   0.33451
 Alpha virt. eigenvalues --    0.37118   0.39517   0.39868   0.40420   0.43286

 Mulliken charges:
               1
     1  C    0.065711
     2  O   -0.373759
     3  H    0.036219
     4  H    0.052097
     5  H    0.080425
     6  H    0.139307
 Sum of Mulliken charges =   0.00000

 Dipole moment (field-independent basis, Debye):
    X=              0.8252    Y=             -1.2863    Z=              0.2399  Tot=              1.5470
 Quadrupole moment (field-independent basis, Debye-Ang):
   XX=            -13.0921   YY=            -12.4344   ZZ=            -13.6233
   XY=              2.1788   XZ=             -0.2080   YZ=             -0.2030

 Normal termination of Gaussian 09 at Thu Aug 27 00:15:10 2020.
