 Gaussian 09, Revision D.01,
 Gaussian 09:  ES64L-G09RevD.01 24-Apr-2013

 --------------------
 #p B2PLYPD3/Def2QZVP
 --------------------

 --------
 methanol
 --------
 Symbolic Z-matrix:
 Charge =  0 Multiplicity = 1

                         Standard orientation:
 ---------------------------------------------------------------------
 Center     Atomic      Atomic             Coordinates (Angstroms)
 Number     Number       Type             X           Y           Z
 ---------------------------------------------------------------------
      1          6           0        0.673742    0.046882    0.004426
      2          8           0       -0.747025   -0.203193   -0.019268
      3          1           0        0.941735    0.332453    0.819342
      4          1           0        1.044692    0.555433   -0.756292
      5          1           0        1.107018   -0.779953   -0.017519
      6          1           0       -1.159698    1.236316    0.082056
 ---------------------------------------------------------------------

 SCF Done:  E(RB2PLYPD3) =  -115.379118237     A.U. after   12 cycles
 E2(B2PLYPD3) =    -0.1582721711D+00 E(B2PLYPD3) =    -0.11553739040814D+03

 The electronic state is 1-A.
 Alpha  occ. eigenvalues --  -19.75849 -10.60303  -1.10903  -0.82229  -0.55396
 Alpha  occ. eigenvalues --   -0.53844  -0.48472  -0.38570  -0.35918
 Alpha virt. eigenvalues --   -0.03233   0.07421   0.12605   0.12838   0.14365
 Alpha virt. eigenvalues --    0.17761   0.18862   0.21298   0.29236   0.33225
 Alpha virt. eigenvalues --    0.33916   0.39008   0.40547   0.43648   0.44740

 Mulliken charges:
               1
     1  C    0.101930
     2  O   -0.475315
     3  H    0.059190
     4  H    0.045934
     5  H    0.051181
     6  H    0.217079
 Sum of Mulliken charges =   0.00000

 Dipole moment (field-independent basis, Debye):
    X=              1.3731    Y=              1.6920    Z=              0.1883  Tot=              2.1872
 Quadrupole moment (field-independent basis, Debye-Ang):
   XX=            -13.2553   YY=            -11.2981   ZZ=            -13.7284
   XY=             -2.3816   XZ=             -0.1365   YZ=              0.0488

 Normal termination of Gaussian 09 at Wed Aug 26 21:53:38 2020.
