 Gaussian 09, Revision D.01,
 Gaussian 09:  ES64L-G09RevD.01 24-Apr-2013

 --------------------
 #p B2PLYPD3/Def2QZVP
 --------------------

 --------
 methanol
 --------
 Symbolic Z-matrix:
 Charge =  0 Multiplicity = 1

                         Standard orientation:
 ---------------------------------------------------------------------
 Center     Atomic      Atomic             Coordinates (Angstroms)
 Number     Number       Type             X           Y           Z
 ---------------------------------------------------------------------
      1          6           0       -0.661724   -0.032270    0.005228
      2          8           0        0.743108    0.104831   -0.005615
      3          1           0       -0.979221   -0.515673    0.923061
      4          1           0       -1.001620   -0.570406   -0.908727
      5          1           0       -1.092202    1.055412   -0.022221
      6          1           0        1.098521   -0.614367    0.021439
 ---------------------------------------------------------------------

 SCF Done:  E(RB2PLYPD3) =  -115.516782703     A.U. after   10 cycles
 E2(B2PLYPD3) =    -0.1448192689D+00 E(B2PLYPD3) =    -0.11566160197148D+03

 The electronic state is 1-A.
 Alpha  occ. eigenvalues --  -19.70803 -10.66843  -1.20530  -0.79834  -0.60783
 Alpha  occ. eigenvalues --   -0.52671  -0.49587  -0.40688  -0.35914
 Alpha virt. eigenvalues --    0.05385   0.08966   0.12025   0.12149   0.14613
 Alpha virt. eigenvalues --    0.17145   0.17880   0.28908   0.33179   0.33348
 Alpha virt. eigenvalues --    0.36779   0.38738   0.40256   0.40999   0.43319

 Mulliken charges:
               1
     1  C    0.062574
     2  O   -0.356382
     3  H    0.055546
     4  H    0.051897
     5  H    0.065632
     6  H    0.120733
 Sum of Mulliken charges =   0.00000

 Dipole moment (field-independent basis, Debye):
    X=             -0.8712    Y=             -1.4017    Z=              0.0781  Tot=              1.6522
 Quadrupole moment (field-independent basis, Debye-Ang):
   XX=            -13.1675   YY=            -12.4501   ZZ=            -13.5438
   XY=             -2.0275   XZ=              0.0608   YZ=             -0.0504

 Normal termination of Gaussian 09 at Wed Aug 26 10:31:21 2020.
