 Gaussian 09, Revision D.01,
 Gaussian 09:  ES64L-G09RevD.01 24-Apr-2013

 --------------------
 #p B2PLYPD3/Def2QZVP
 --------------------

 --------
 methanol
 --------
 Symbolic Z-matrix:
 Charge =  0 Multiplicity = 1

                         Standard orientation:
 ---------------------------------------------------------------------
 Center     Atomic      Atomic             Coordinates (Angstroms)
 Number     Number       Type             X           Y           Z
 ---------------------------------------------------------------------
      1          6           0        0.670014   -0.015040    0.011976
      2          8           0       -0.763725    0.086644   -0.014502
      3          1           0        1.102276   -0.742464   -0.827910
      4          1           0        1.027085   -0.385793    1.002477
      5          1           0        1.109070    1.066512   -0.178755
      6          1           0       -1.148712   -0.541169    0.048352
 ---------------------------------------------------------------------

 SCF Done:  E(RB2PLYPD3) =  -115.462529903     A.U. after   11 cycles
 E2(B2PLYPD3) =    -0.1448103360D+00 E(B2PLYPD3) =    -0.11560734023931D+03

 The electronic state is 1-A.
 Alpha  occ. eigenvalues --  -19.70342 -10.68738  -1.21946  -0.80471  -0.61239
 Alpha  occ. eigenvalues --   -0.50895  -0.49532  -0.40575  -0.36043
 Alpha virt. eigenvalues --    0.05322   0.08818   0.11692   0.12039   0.14589
 Alpha virt. eigenvalues --    0.16996   0.17858   0.28868   0.32049   0.32973
 Alpha virt. eigenvalues --    0.35942   0.37307   0.39705   0.40068   0.42010

 Mulliken charges:
               1
     1  C    0.055781
     2  O   -0.294797
     3  H    0.044623
     4  H    0.060904
     5  H    0.077409
     6  H    0.056080
 Sum of Mulliken charges =   0.00000

 Dipole moment (field-independent basis, Debye):
    X=              0.9039    Y=             -1.2463    Z=              0.1972  Tot=              1.5522
 Quadrupole moment (field-independent basis, Debye-Ang):
   XX=            -12.8308   YY=            -12.6160   ZZ=            -13.7078
   XY=              1.9879   XZ=             -0.1861   YZ=             -0.1390

 Normal termination of Gaussian 09 at Wed Aug 26 14:00:03 2020.
