 Gaussian 09, Revision D.01,
 Gaussian 09:  ES64L-G09RevD.01 24-Apr-2013

 --------------------
 #p B2PLYPD3/Def2QZVP
 --------------------

 --------
 methanol
 --------
 Symbolic Z-matrix:
 Charge =  0 Multiplicity = 1

                         Standard orientation:
 ---------------------------------------------------------------------
 Center     Atomic      Atomic             Coordinates (Angstroms)
 Number     Number       Type             X           Y           Z
 ---------------------------------------------------------------------
      1          6           0        0.656971    0.044701    0.030629
      2          8           0       -0.729515   -0.152958   -0.026432
      3          1           0        0.980361    0.389765    0.792208
      4          1           0        1.088771    0.673184   -0.771964
      5          1           0        1.075353   -0.996896   -0.086799
      6          1           0       -1.250192    0.889402    0.094234
 ---------------------------------------------------------------------

 SCF Done:  E(RB2PLYPD3) =  -115.485713998     A.U. after   11 cycles
 E2(B2PLYPD3) =    -0.1507908408D+00 E(B2PLYPD3) =    -0.11563650483913D+03

 The electronic state is 1-A.
 Alpha  occ. eigenvalues --  -19.74195 -10.63557  -1.13735  -0.79460  -0.57630
 Alpha  occ. eigenvalues --   -0.52356  -0.48801  -0.39979  -0.35254
 Alpha virt. eigenvalues --    0.02825   0.07566   0.12138   0.12990   0.15399
 Alpha virt. eigenvalues --    0.17140   0.18437   0.27171   0.29539   0.33563
 Alpha virt. eigenvalues --    0.34993   0.36987   0.38938   0.41570   0.45124

 Mulliken charges:
               1
     1  C    0.059262
     2  O   -0.480091
     3  H    0.071926
     4  H    0.039844
     5  H    0.057676
     6  H    0.251382
 Sum of Mulliken charges =   0.00000

 Dipole moment (field-independent basis, Debye):
    X=              0.7273    Y=              1.6925    Z=              0.3596  Tot=              1.8769
 Quadrupole moment (field-independent basis, Debye-Ang):
   XX=            -12.6867   YY=            -11.9875   ZZ=            -13.9740
   XY=             -2.3301   XZ=             -0.1197   YZ=              0.2440

 Normal termination of Gaussian 09 at Wed Aug 26 21:36:32 2020.
