 Gaussian 09, Revision D.01,
 Gaussian 09:  ES64L-G09RevD.01 24-Apr-2013

 --------------------
 #p B2PLYPD3/Def2QZVP
 --------------------

 --------
 methanol
 --------
 Symbolic Z-matrix:
 Charge =  0 Multiplicity = 1

                         Standard orientation:
 ---------------------------------------------------------------------
 Center     Atomic      Atomic             Coordinates (Angstroms)
 Number     Number       Type             X           Y           Z
 ---------------------------------------------------------------------
      1          6           0        0.657210    0.009413    0.003464
      2          8           0       -0.742746   -0.136498   -0.007891
      3          1           0        1.054502    0.468276    0.882033
      4          1           0        1.005869    0.622063   -0.850252
      5          1           0        1.082308   -0.912026   -0.055397
      6          1           0       -1.143971    0.857195    0.065958
 ---------------------------------------------------------------------

 SCF Done:  E(RB2PLYPD3) =  -115.536639703     A.U. after   11 cycles
 E2(B2PLYPD3) =    -0.1490055056D+00 E(B2PLYPD3) =    -0.11568564520893D+03

 The electronic state is 1-A.
 Alpha  occ. eigenvalues --  -19.73560 -10.64434  -1.14718  -0.78633  -0.57535
 Alpha  occ. eigenvalues --   -0.51521  -0.50472  -0.41150  -0.34941
 Alpha virt. eigenvalues --    0.03974   0.07931   0.12508   0.12737   0.14957
 Alpha virt. eigenvalues --    0.17524   0.18190   0.29054   0.30844   0.33180
 Alpha virt. eigenvalues --    0.34502   0.38887   0.40503   0.41225   0.43782

 Mulliken charges:
               1
     1  C    0.076276
     2  O   -0.476421
     3  H    0.041861
     4  H    0.037159
     5  H    0.071108
     6  H    0.250016
 Sum of Mulliken charges =   0.00000

 Dipole moment (field-independent basis, Debye):
    X=              0.8654    Y=              1.5539    Z=              0.1547  Tot=              1.7853
 Quadrupole moment (field-independent basis, Debye-Ang):
   XX=            -13.0385   YY=            -11.9977   ZZ=            -13.9193
   XY=             -2.4144   XZ=             -0.0769   YZ=              0.1146

 Normal termination of Gaussian 09 at Thu Aug 27 00:10:42 2020.
