 Gaussian 09, Revision D.01,
 Gaussian 09:  ES64L-G09RevD.01 24-Apr-2013

 --------------------
 #p B2PLYPD3/Def2QZVP
 --------------------

 --------
 methanol
 --------
 Symbolic Z-matrix:
 Charge =  0 Multiplicity = 1

                         Standard orientation:
 ---------------------------------------------------------------------
 Center     Atomic      Atomic             Coordinates (Angstroms)
 Number     Number       Type             X           Y           Z
 ---------------------------------------------------------------------
      1          6           0       -0.668902   -0.008216    0.004005
      2          8           0        0.754010    0.116568   -0.004421
      3          1           0       -1.034922   -0.486340    0.943728
      4          1           0       -0.987124   -0.661777   -0.875422
      5          1           0       -1.162584    0.945452   -0.095208
      6          1           0        1.165961   -0.680582    0.038242
 ---------------------------------------------------------------------

 SCF Done:  E(RB2PLYPD3) =  -115.546633545     A.U. after   10 cycles
 E2(B2PLYPD3) =    -0.1464204194D+00 E(B2PLYPD3) =    -0.11569305396391D+03

 The electronic state is 1-A.
 Alpha  occ. eigenvalues --  -19.71930 -10.66628  -1.17111  -0.79100  -0.59185
 Alpha  occ. eigenvalues --   -0.51037  -0.50822  -0.40720  -0.35263
 Alpha virt. eigenvalues --    0.05201   0.08299   0.12142   0.12590   0.14524
 Alpha virt. eigenvalues --    0.17626   0.17852   0.29176   0.32646   0.33088
 Alpha virt. eigenvalues --    0.35834   0.39039   0.39813   0.40389   0.43670

 Mulliken charges:
               1
     1  C    0.071694
     2  O   -0.439458
     3  H    0.047114
     4  H    0.040247
     5  H    0.079750
     6  H    0.200653
 Sum of Mulliken charges =   0.00000

 Dipole moment (field-independent basis, Debye):
    X=             -0.8690    Y=             -1.3914    Z=              0.0914  Tot=              1.6430
 Quadrupole moment (field-independent basis, Debye-Ang):
   XX=            -12.8027   YY=            -12.4479   ZZ=            -13.8104
   XY=             -2.3909   XZ=              0.0726   YZ=             -0.0893

 Normal termination of Gaussian 09 at Wed Aug 26 16:31:47 2020.
