 Gaussian 09, Revision D.01,
 Gaussian 09:  ES64L-G09RevD.01 24-Apr-2013

 --------------------
 #p B2PLYPD3/Def2QZVP
 --------------------

 --------
 methanol
 --------
 Symbolic Z-matrix:
 Charge =  0 Multiplicity = 1

                         Standard orientation:
 ---------------------------------------------------------------------
 Center     Atomic      Atomic             Coordinates (Angstroms)
 Number     Number       Type             X           Y           Z
 ---------------------------------------------------------------------
      1          6           0       -0.664989   -0.019516   -0.001907
      2          8           0        0.741286    0.101496   -0.006298
      3          1           0       -1.020424   -0.474616    0.971720
      4          1           0       -0.980551   -0.635538   -0.898268
      5          1           0       -1.082390    1.016411   -0.069110
      6          1           0        1.143014   -0.601133    0.057484
 ---------------------------------------------------------------------

 SCF Done:  E(RB2PLYPD3) =  -115.522182358     A.U. after   10 cycles
 E2(B2PLYPD3) =    -0.1449436175D+00 E(B2PLYPD3) =    -0.11566712597579D+03

 The electronic state is 1-A.
 Alpha  occ. eigenvalues --  -19.70793 -10.67107  -1.19908  -0.79950  -0.60356
 Alpha  occ. eigenvalues --   -0.51871  -0.50400  -0.40475  -0.35539
 Alpha virt. eigenvalues --    0.05405   0.08850   0.12035   0.12313   0.14522
 Alpha virt. eigenvalues --    0.17053   0.17873   0.28956   0.32913   0.33422
 Alpha virt. eigenvalues --    0.37381   0.39229   0.39783   0.40059   0.43025

 Mulliken charges:
               1
     1  C    0.062847
     2  O   -0.369077
     3  H    0.048041
     4  H    0.049366
     5  H    0.076670
     6  H    0.132153
 Sum of Mulliken charges =   0.00000

 Dipole moment (field-independent basis, Debye):
    X=             -0.8042    Y=             -1.3108    Z=              0.1210  Tot=              1.5426
 Quadrupole moment (field-independent basis, Debye-Ang):
   XX=            -12.9794   YY=            -12.5202   ZZ=            -13.6027
   XY=             -2.1603   XZ=              0.1448   YZ=             -0.0565

 Normal termination of Gaussian 09 at Thu Aug 27 00:12:33 2020.
