 Gaussian 09, Revision D.01,
 Gaussian 09:  ES64L-G09RevD.01 24-Apr-2013

 --------------------
 #p B2PLYPD3/Def2QZVP
 --------------------

 --------
 methanol
 --------
 Symbolic Z-matrix:
 Charge =  0 Multiplicity = 1

                         Standard orientation:
 ---------------------------------------------------------------------
 Center     Atomic      Atomic             Coordinates (Angstroms)
 Number     Number       Type             X           Y           Z
 ---------------------------------------------------------------------
      1          6           0        0.674075    0.018149   -0.003135
      2          8           0       -0.751611   -0.163914   -0.008306
      3          1           0        1.070613    0.399036    0.881114
      4          1           0        0.994131    0.675471   -0.771578
      5          1           0        1.151182   -0.833027   -0.101653
      6          1           0       -1.247485    0.960939    0.077375
 ---------------------------------------------------------------------

 SCF Done:  E(RB2PLYPD3) =  -115.494320038     A.U. after   11 cycles
 E2(B2PLYPD3) =    -0.1522183225D+00 E(B2PLYPD3) =    -0.11564653836001D+03

 The electronic state is 1-A.
 Alpha  occ. eigenvalues --  -19.74483 -10.63322  -1.11864  -0.79512  -0.55080
 Alpha  occ. eigenvalues --   -0.51628  -0.49977  -0.40384  -0.35013
 Alpha virt. eigenvalues --    0.01809   0.07462   0.12683   0.12975   0.14678
 Alpha virt. eigenvalues --    0.17763   0.18435   0.25494   0.29551   0.33161
 Alpha virt. eigenvalues --    0.33616   0.38997   0.40861   0.41906   0.43005

 Mulliken charges:
               1
     1  C    0.091740
     2  O   -0.501541
     3  H    0.043962
     4  H    0.040376
     5  H    0.067568
     6  H    0.257895
 Sum of Mulliken charges =   0.00000

 Dipole moment (field-independent basis, Debye):
    X=              0.9388    Y=              1.6586    Z=              0.1390  Tot=              1.9110
 Quadrupole moment (field-independent basis, Debye-Ang):
   XX=            -12.5842   YY=            -11.8873   ZZ=            -14.0131
   XY=             -2.6725   XZ=             -0.1184   YZ=              0.0799

 Normal termination of Gaussian 09 at Wed Aug 26 13:48:51 2020.
