 Gaussian 09, Revision D.01,
 Gaussian 09:  ES64L-G09RevD.01 24-Apr-2013

 --------------------
 #p B2PLYPD3/Def2QZVP
 --------------------

 --------
 methanol
 --------
 Symbolic Z-matrix:
 Charge =  0 Multiplicity = 1

                         Standard orientation:
 ---------------------------------------------------------------------
 Center     Atomic      Atomic             Coordinates (Angstroms)
 Number     Number       Type             X           Y           Z
 ---------------------------------------------------------------------
      1          6           0        0.690919    0.025414    0.006106
      2          8           0       -0.752588   -0.132771   -0.022138
      3          1           0        0.973507    0.320515    0.956870
      4          1           0        1.002297    0.696817   -0.796593
      5          1           0        1.072673   -0.908954   -0.140222
      6          1           0       -1.173287    0.801304    0.120414
 ---------------------------------------------------------------------

 SCF Done:  E(RB2PLYPD3) =  -115.540542827     A.U. after   10 cycles
 E2(B2PLYPD3) =    -0.1485929512D+00 E(B2PLYPD3) =    -0.11568913577800D+03

 The electronic state is 1-A.
 Alpha  occ. eigenvalues --  -19.72644 -10.64333  -1.13516  -0.79341  -0.56745
 Alpha  occ. eigenvalues --   -0.52684  -0.49718  -0.40883  -0.35308
 Alpha virt. eigenvalues --    0.04558   0.08059   0.12263   0.12760   0.14477
 Alpha virt. eigenvalues --    0.17170   0.18219   0.29079   0.32249   0.32759
 Alpha virt. eigenvalues --    0.33484   0.39054   0.40822   0.41842   0.43996

 Mulliken charges:
               1
     1  C    0.082069
     2  O   -0.498579
     3  H    0.054707
     4  H    0.050765
     5  H    0.071792
     6  H    0.239247
 Sum of Mulliken charges =   0.00000

 Dipole moment (field-independent basis, Debye):
    X=              1.0203    Y=              1.5113    Z=              0.2759  Tot=              1.8442
 Quadrupole moment (field-independent basis, Debye-Ang):
   XX=            -12.9719   YY=            -12.1470   ZZ=            -13.5874
   XY=             -2.4041   XZ=             -0.3264   YZ=              0.1436

 Normal termination of Gaussian 09 at Wed Aug 26 23:54:53 2020.
