 Gaussian 09, Revision D.01,
 Gaussian 09:  ES64L-G09RevD.01 24-Apr-2013

 --------------------
 #p B2PLYPD3/Def2QZVP
 --------------------

 --------
 methanol
 --------
 Symbolic Z-matrix:
 Charge =  0 Multiplicity = 1

                         Standard orientation:
 ---------------------------------------------------------------------
 Center     Atomic      Atomic             Coordinates (Angstroms)
 Number     Number       Type             X           Y           Z
 ---------------------------------------------------------------------
      1          6           0        0.664567    0.002540   -0.007742
      2          8           0       -0.766760    0.078956   -0.026537
      3          1           0        1.109789   -0.867533   -0.699673
      4          1           0        1.062185   -0.167807    1.095582
      5          1           0        1.041608    0.962602   -0.315612
      6          1           0       -1.066904   -0.574150    0.178447
 ---------------------------------------------------------------------

 SCF Done:  E(RB2PLYPD3) =  -115.472027123     A.U. after   11 cycles
 E2(B2PLYPD3) =    -0.1448660731D+00 E(B2PLYPD3) =    -0.11561689319665D+03

 The electronic state is 1-A.
 Alpha  occ. eigenvalues --  -19.70786 -10.68195  -1.22323  -0.80307  -0.60801
 Alpha  occ. eigenvalues --   -0.50959  -0.50284  -0.41879  -0.35789
 Alpha virt. eigenvalues --    0.05345   0.08789   0.11605   0.12321   0.14596
 Alpha virt. eigenvalues --    0.17016   0.18039   0.28650   0.32201   0.32846
 Alpha virt. eigenvalues --    0.35611   0.37927   0.40119   0.40355   0.42859

 Mulliken charges:
               1
     1  C    0.053127
     2  O   -0.296243
     3  H    0.043619
     4  H    0.043222
     5  H    0.087492
     6  H    0.068782
 Sum of Mulliken charges =   0.00000

 Dipole moment (field-independent basis, Debye):
    X=              0.9876    Y=             -1.1404    Z=              0.3626  Tot=              1.5515
 Quadrupole moment (field-independent basis, Debye-Ang):
   XX=            -13.2217   YY=            -12.4916   ZZ=            -13.6579
   XY=              1.9187   XZ=             -0.6386   YZ=             -0.2888

 Normal termination of Gaussian 09 at Wed Aug 26 14:11:58 2020.
