 Gaussian 09, Revision D.01,
 Gaussian 09:  ES64L-G09RevD.01 24-Apr-2013

 --------------------
 #p B2PLYPD3/Def2QZVP
 --------------------

 --------
 methanol
 --------
 Symbolic Z-matrix:
 Charge =  0 Multiplicity = 1

                         Standard orientation:
 ---------------------------------------------------------------------
 Center     Atomic      Atomic             Coordinates (Angstroms)
 Number     Number       Type             X           Y           Z
 ---------------------------------------------------------------------
      1          6           0        0.663180    0.031946    0.000874
      2          8           0       -0.746179   -0.147287   -0.003269
      3          1           0        1.000433    0.489407    0.869873
      4          1           0        1.030906    0.579590   -0.815282
      5          1           0        1.142481   -0.941958   -0.039823
      6          1           0       -1.183468    0.859584    0.006139
 ---------------------------------------------------------------------

 SCF Done:  E(RB2PLYPD3) =  -115.533533980     A.U. after   11 cycles
 E2(B2PLYPD3) =    -0.1495204933D+00 E(B2PLYPD3) =    -0.11568305447325D+03

 The electronic state is 1-A.
 Alpha  occ. eigenvalues --  -19.73660 -10.64298  -1.13864  -0.78659  -0.56930
 Alpha  occ. eigenvalues --   -0.52347  -0.49430  -0.40621  -0.35312
 Alpha virt. eigenvalues --    0.03807   0.07757   0.12553   0.12700   0.14866
 Alpha virt. eigenvalues --    0.17621   0.18244   0.28862   0.30196   0.33502
 Alpha virt. eigenvalues --    0.34015   0.38922   0.39945   0.42149   0.43880

 Mulliken charges:
               1
     1  C    0.081356
     2  O   -0.487760
     3  H    0.048342
     4  H    0.045427
     5  H    0.061808
     6  H    0.250827
 Sum of Mulliken charges =   0.00000

 Dipole moment (field-independent basis, Debye):
    X=              0.8876    Y=              1.6579    Z=              0.0251  Tot=              1.8807
 Quadrupole moment (field-independent basis, Debye-Ang):
   XX=            -12.8457   YY=            -12.0722   ZZ=            -13.8877
   XY=             -2.4046   XZ=             -0.0421   YZ=              0.0081

 Normal termination of Gaussian 09 at Thu Aug 27 00:08:03 2020.
