 Gaussian 09, Revision D.01,
 Gaussian 09:  ES64L-G09RevD.01 24-Apr-2013

 --------------------
 #p B2PLYPD3/Def2QZVP
 --------------------

 --------
 methanol
 --------
 Symbolic Z-matrix:
 Charge =  0 Multiplicity = 1

                         Standard orientation:
 ---------------------------------------------------------------------
 Center     Atomic      Atomic             Coordinates (Angstroms)
 Number     Number       Type             X           Y           Z
 ---------------------------------------------------------------------
      1          6           0        0.663485    0.011508    0.003949
      2          8           0       -0.742403   -0.074187   -0.044531
      3          1           0        0.996186   -0.029541    1.132965
      4          1           0        1.012448    0.996718   -0.552422
      5          1           0        1.096435   -0.879919   -0.505495
      6          1           0       -1.146758    0.437187    0.257512
 ---------------------------------------------------------------------

 SCF Done:  E(RB2PLYPD3) =  -115.442081376     A.U. after   11 cycles
 E2(B2PLYPD3) =    -0.1440234295D+00 E(B2PLYPD3) =    -0.11558610480518D+03

 The electronic state is 1-A.
 Alpha  occ. eigenvalues --  -19.69726 -10.68450  -1.23127  -0.81570  -0.61037
 Alpha  occ. eigenvalues --   -0.51420  -0.51130  -0.39951  -0.35646
 Alpha virt. eigenvalues --    0.05380   0.09143   0.11649   0.12346   0.14123
 Alpha virt. eigenvalues --    0.16979   0.17832   0.28670   0.32627   0.32860
 Alpha virt. eigenvalues --    0.36545   0.38540   0.38966   0.40769   0.42767

 Mulliken charges:
               1
     1  C    0.055131
     2  O   -0.266559
     3  H    0.045935
     4  H    0.046393
     5  H    0.086304
     6  H    0.032796
 Sum of Mulliken charges =   0.00000

 Dipole moment (field-independent basis, Debye):
    X=              0.7856    Y=              0.9700    Z=              0.5795  Tot=              1.3762
 Quadrupole moment (field-independent basis, Debye-Ang):
   XX=            -12.9012   YY=            -12.8953   ZZ=            -13.3537
   XY=             -1.8329   XZ=             -1.0869   YZ=              0.3156

 Normal termination of Gaussian 09 at Wed Aug 26 11:20:07 2020.
