 Gaussian 09, Revision D.01,
 Gaussian 09:  ES64L-G09RevD.01 24-Apr-2013

 --------------------
 #p B2PLYPD3/Def2QZVP
 --------------------

 --------
 methanol
 --------
 Symbolic Z-matrix:
 Charge =  0 Multiplicity = 1

                         Standard orientation:
 ---------------------------------------------------------------------
 Center     Atomic      Atomic             Coordinates (Angstroms)
 Number     Number       Type             X           Y           Z
 ---------------------------------------------------------------------
      1          6           0        0.670314    0.018447    0.009608
      2          8           0       -0.749331   -0.141999   -0.005674
      3          1           0        1.016321    0.487241    0.875701
      4          1           0        1.047479    0.583415   -0.847634
      5          1           0        1.099455   -0.910813   -0.053616
      6          1           0       -1.190492    0.865472    0.013290
 ---------------------------------------------------------------------

 SCF Done:  E(RB2PLYPD3) =  -115.532237892     A.U. after   11 cycles
 E2(B2PLYPD3) =    -0.1496368687D+00 E(B2PLYPD3) =    -0.11568187476102D+03

 The electronic state is 1-A.
 Alpha  occ. eigenvalues --  -19.73611 -10.64266  -1.13501  -0.78861  -0.56760
 Alpha  occ. eigenvalues --   -0.51715  -0.49930  -0.40889  -0.35147
 Alpha virt. eigenvalues --    0.03795   0.07771   0.12571   0.12730   0.14840
 Alpha virt. eigenvalues --    0.17462   0.18268   0.28868   0.30245   0.33477
 Alpha virt. eigenvalues --    0.33643   0.38925   0.40453   0.41519   0.43714

 Mulliken charges:
               1
     1  C    0.080581
     2  O   -0.492025
     3  H    0.048989
     4  H    0.040833
     5  H    0.069802
     6  H    0.251819
 Sum of Mulliken charges =   0.00000

 Dipole moment (field-independent basis, Debye):
    X=              0.9078    Y=              1.5898    Z=              0.0670  Tot=              1.8320
 Quadrupole moment (field-independent basis, Debye-Ang):
   XX=            -12.8325   YY=            -12.0423   ZZ=            -13.8823
   XY=             -2.4696   XZ=             -0.0301   YZ=              0.0756

 Normal termination of Gaussian 09 at Thu Aug 27 01:10:15 2020.
