 Gaussian 09, Revision D.01,
 Gaussian 09:  ES64L-G09RevD.01 24-Apr-2013

 --------------------
 #p B2PLYPD3/Def2QZVP
 --------------------

 --------
 methanol
 --------
 Symbolic Z-matrix:
 Charge =  0 Multiplicity = 1

                         Standard orientation:
 ---------------------------------------------------------------------
 Center     Atomic      Atomic             Coordinates (Angstroms)
 Number     Number       Type             X           Y           Z
 ---------------------------------------------------------------------
      1          6           0        0.670791   -0.012652    0.001014
      2          8           0       -0.744234    0.098035   -0.003895
      3          1           0        1.013591   -0.601402   -0.910096
      4          1           0        1.024761   -0.527375    0.937733
      5          1           0        1.046418    1.031058   -0.031203
      6          1           0       -1.155648   -0.610649    0.028647
 ---------------------------------------------------------------------

 SCF Done:  E(RB2PLYPD3) =  -115.526008991     A.U. after   10 cycles
 E2(B2PLYPD3) =    -0.1451244184D+00 E(B2PLYPD3) =    -0.11567113340932D+03

 The electronic state is 1-A.
 Alpha  occ. eigenvalues --  -19.70828 -10.67069  -1.19329  -0.79938  -0.60272
 Alpha  occ. eigenvalues --   -0.51383  -0.50377  -0.40726  -0.35449
 Alpha virt. eigenvalues --    0.05398   0.08795   0.12112   0.12225   0.14707
 Alpha virt. eigenvalues --    0.16900   0.17796   0.29071   0.32969   0.33189
 Alpha virt. eigenvalues --    0.37687   0.39289   0.39709   0.39779   0.42718

 Mulliken charges:
               1
     1  C    0.064876
     2  O   -0.381234
     3  H    0.047619
     4  H    0.048909
     5  H    0.080232
     6  H    0.139598
 Sum of Mulliken charges =   0.00000

 Dipole moment (field-independent basis, Debye):
    X=              0.8174    Y=             -1.3202    Z=              0.0735  Tot=              1.5545
 Quadrupole moment (field-independent basis, Debye-Ang):
   XX=            -12.9456   YY=            -12.4168   ZZ=            -13.6823
   XY=              2.1253   XZ=             -0.0655   YZ=             -0.0446

 Normal termination of Gaussian 09 at Thu Aug 27 00:08:43 2020.
