 Gaussian 09, Revision D.01,
 Gaussian 09:  ES64L-G09RevD.01 24-Apr-2013

 --------------------
 #p B2PLYPD3/Def2QZVP
 --------------------

 --------
 methanol
 --------
 Symbolic Z-matrix:
 Charge =  0 Multiplicity = 1

                         Standard orientation:
 ---------------------------------------------------------------------
 Center     Atomic      Atomic             Coordinates (Angstroms)
 Number     Number       Type             X           Y           Z
 ---------------------------------------------------------------------
      1          6           0        0.661811   -0.021153    0.010206
      2          8           0       -0.745568    0.134643   -0.013988
      3          1           0        1.048029   -0.621660   -0.839605
      4          1           0        0.992978   -0.466718    0.883205
      5          1           0        1.112587    0.951497   -0.049654
      6          1           0       -1.159920   -0.813347    0.056720
 ---------------------------------------------------------------------

 SCF Done:  E(RB2PLYPD3) =  -115.544237833     A.U. after   10 cycles
 E2(B2PLYPD3) =    -0.1484350415D+00 E(B2PLYPD3) =    -0.11569267287430D+03

 The electronic state is 1-A.
 Alpha  occ. eigenvalues --  -19.73216 -10.64847  -1.14894  -0.78595  -0.57882
 Alpha  occ. eigenvalues --   -0.51827  -0.49896  -0.40936  -0.35211
 Alpha virt. eigenvalues --    0.04398   0.07962   0.12496   0.12593   0.14908
 Alpha virt. eigenvalues --    0.17496   0.18146   0.29160   0.32039   0.33350
 Alpha virt. eigenvalues --    0.34059   0.39075   0.39785   0.41311   0.44318

 Mulliken charges:
               1
     1  C    0.076309
     2  O   -0.476851
     3  H    0.040400
     4  H    0.048942
     5  H    0.067690
     6  H    0.243509
 Sum of Mulliken charges =   0.00000

 Dipole moment (field-independent basis, Debye):
    X=              0.8645    Y=             -1.5687    Z=              0.1883  Tot=              1.8010
 Quadrupole moment (field-independent basis, Debye-Ang):
   XX=            -12.9438   YY=            -12.1283   ZZ=            -13.8632
   XY=              2.3643   XZ=             -0.1218   YZ=             -0.1284

 Normal termination of Gaussian 09 at Wed Aug 26 10:26:47 2020.
