 Gaussian 09, Revision D.01,
 Gaussian 09:  ES64L-G09RevD.01 24-Apr-2013

 --------------------
 #p B2PLYPD3/Def2QZVP
 --------------------

 --------
 methanol
 --------
 Symbolic Z-matrix:
 Charge =  0 Multiplicity = 1

                         Standard orientation:
 ---------------------------------------------------------------------
 Center     Atomic      Atomic             Coordinates (Angstroms)
 Number     Number       Type             X           Y           Z
 ---------------------------------------------------------------------
      1          6           0       -0.679832   -0.042556    0.007584
      2          8           0        0.737894    0.041462   -0.019143
      3          1           0       -0.958261   -0.498568    1.024113
      4          1           0       -1.097742   -0.579949   -0.953929
      5          1           0       -0.954263    1.271460   -0.015750
      6          1           0        1.186109   -0.269307    0.053206
 ---------------------------------------------------------------------

 SCF Done:  E(RB2PLYPD3) =  -114.998892215     A.U. after   12 cycles
 E2(B2PLYPD3) =    -0.1440849825D+00 E(B2PLYPD3) =    -0.11514297719718D+03

 The electronic state is 1-A.
 Alpha  occ. eigenvalues --  -19.67328 -10.71516  -1.29292  -0.85682  -0.61840
 Alpha  occ. eigenvalues --   -0.52433  -0.48579  -0.37184  -0.36388
 Alpha virt. eigenvalues --    0.04516   0.09738   0.10365   0.11645   0.13846
 Alpha virt. eigenvalues --    0.16170   0.17711   0.28579   0.31182   0.32563
 Alpha virt. eigenvalues --    0.32692   0.36226   0.38787   0.40374   0.42655

 Mulliken charges:
               1
     1  C    0.041867
     2  O   -0.108505
     3  H    0.069021
     4  H    0.076116
     5  H    0.069441
     6  H   -0.147940
 Sum of Mulliken charges =   0.00000

 Dipole moment (field-independent basis, Debye):
    X=             -0.7371    Y=             -0.9865    Z=              0.2310  Tot=              1.2529
 Quadrupole moment (field-independent basis, Debye-Ang):
   XX=            -12.7263   YY=            -12.9696   ZZ=            -13.1572
   XY=             -1.0772   XZ=              0.4114   YZ=             -0.0432

 Normal termination of Gaussian 09 at Wed Aug 26 19:44:28 2020.
