 Gaussian 09, Revision D.01,
 Gaussian 09:  ES64L-G09RevD.01 24-Apr-2013

 --------------------
 #p B2PLYPD3/Def2QZVP
 --------------------

 --------
 methanol
 --------
 Symbolic Z-matrix:
 Charge =  0 Multiplicity = 1

                         Standard orientation:
 ---------------------------------------------------------------------
 Center     Atomic      Atomic             Coordinates (Angstroms)
 Number     Number       Type             X           Y           Z
 ---------------------------------------------------------------------
      1          6           0        0.670604   -0.031182   -0.004514
      2          8           0       -0.766297    0.093334    0.011062
      3          1           0        1.052113   -0.512268   -0.914008
      4          1           0        1.090476   -0.543056    0.917194
      5          1           0        1.057397    1.102353   -0.010778
      6          1           0       -1.093233   -0.606610   -0.053820
 ---------------------------------------------------------------------

 SCF Done:  E(RB2PLYPD3) =  -115.495731064     A.U. after   10 cycles
 E2(B2PLYPD3) =    -0.1452580609D+00 E(B2PLYPD3) =    -0.11564098912446D+03

 The electronic state is 1-A.
 Alpha  occ. eigenvalues --  -19.70933 -10.67824  -1.20928  -0.79704  -0.60961
 Alpha  occ. eigenvalues --   -0.51649  -0.48768  -0.41102  -0.36385
 Alpha virt. eigenvalues --    0.05333   0.08746   0.11684   0.12103   0.14757
 Alpha virt. eigenvalues --    0.16960   0.18151   0.28782   0.31932   0.33541
 Alpha virt. eigenvalues --    0.35903   0.38689   0.40023   0.40180   0.42158

 Mulliken charges:
               1
     1  C    0.051718
     2  O   -0.328463
     3  H    0.060871
     4  H    0.058628
     5  H    0.064713
     6  H    0.092533
 Sum of Mulliken charges =   0.00000

 Dipole moment (field-independent basis, Debye):
    X=              0.9845    Y=             -1.3881    Z=             -0.1656  Tot=              1.7098
 Quadrupole moment (field-independent basis, Debye-Ang):
   XX=            -13.1205   YY=            -12.4827   ZZ=            -13.6272
   XY=              1.8579   XZ=              0.1467   YZ=              0.0891

 Normal termination of Gaussian 09 at Wed Aug 26 13:34:02 2020.
