 Gaussian 09, Revision D.01,
 Gaussian 09:  ES64L-G09RevD.01 24-Apr-2013

 --------------------
 #p B2PLYPD3/Def2QZVP
 --------------------

 --------
 methanol
 --------
 Symbolic Z-matrix:
 Charge =  0 Multiplicity = 1

                         Standard orientation:
 ---------------------------------------------------------------------
 Center     Atomic      Atomic             Coordinates (Angstroms)
 Number     Number       Type             X           Y           Z
 ---------------------------------------------------------------------
      1          6           0        0.671691    0.005732    0.010811
      2          8           0       -0.727466   -0.179915   -0.013154
      3          1           0        1.083899    0.446580    0.812984
      4          1           0        0.976021    0.708002   -0.781257
      5          1           0        1.109179   -0.763403   -0.091162
      6          1           0       -1.379515    1.013749    0.099799
 ---------------------------------------------------------------------

 SCF Done:  E(RB2PLYPD3) =  -115.430435802     A.U. after   11 cycles
 E2(B2PLYPD3) =    -0.1544034496D+00 E(B2PLYPD3) =    -0.11558483925126D+03

 The electronic state is 1-A.
 Alpha  occ. eigenvalues --  -19.74863 -10.62095  -1.11834  -0.80454  -0.55662
 Alpha  occ. eigenvalues --   -0.51444  -0.50196  -0.39547  -0.34274
 Alpha virt. eigenvalues --   -0.00862   0.07418   0.12988   0.13043   0.14785
 Alpha virt. eigenvalues --    0.17833   0.18325   0.22677   0.29797   0.33009
 Alpha virt. eigenvalues --    0.34745   0.37555   0.40778   0.42212   0.44048

 Mulliken charges:
               1
     1  C    0.073565
     2  O   -0.495079
     3  H    0.041412
     4  H    0.031579
     5  H    0.092183
     6  H    0.256340
 Sum of Mulliken charges =   0.00000

 Dipole moment (field-independent basis, Debye):
    X=              0.7360    Y=              1.6455    Z=              0.2363  Tot=              1.8181
 Quadrupole moment (field-independent basis, Debye-Ang):
   XX=            -12.0717   YY=            -11.7761   ZZ=            -14.1716
   XY=             -2.9097   XZ=             -0.0721   YZ=              0.2068

 Normal termination of Gaussian 09 at Wed Aug 26 23:19:07 2020.
