 Gaussian 09, Revision D.01,
 Gaussian 09:  ES64L-G09RevD.01 24-Apr-2013

 --------------------
 #p B2PLYPD3/Def2QZVP
 --------------------

 --------
 methanol
 --------
 Symbolic Z-matrix:
 Charge =  0 Multiplicity = 1

                         Standard orientation:
 ---------------------------------------------------------------------
 Center     Atomic      Atomic             Coordinates (Angstroms)
 Number     Number       Type             X           Y           Z
 ---------------------------------------------------------------------
      1          6           0       -0.671684   -0.029158   -0.001250
      2          8           0        0.740310    0.132684   -0.004220
      3          1           0       -1.028128   -0.442836    0.903374
      4          1           0       -0.968059   -0.636785   -0.824541
      5          1           0       -1.084847    0.969690   -0.085855
      6          1           0        1.188656   -0.776590    0.048282
 ---------------------------------------------------------------------

 SCF Done:  E(RB2PLYPD3) =  -115.548101530     A.U. after   10 cycles
 E2(B2PLYPD3) =    -0.1479244424D+00 E(B2PLYPD3) =    -0.11569602597277D+03

 The electronic state is 1-A.
 Alpha  occ. eigenvalues --  -19.72660 -10.64779  -1.14818  -0.78740  -0.57974
 Alpha  occ. eigenvalues --   -0.52444  -0.49557  -0.40681  -0.35223
 Alpha virt. eigenvalues --    0.04646   0.08108   0.12432   0.12583   0.14876
 Alpha virt. eigenvalues --    0.17191   0.18076   0.29211   0.33162   0.33280
 Alpha virt. eigenvalues --    0.33864   0.39097   0.39772   0.41950   0.44262

 Mulliken charges:
               1
     1  C    0.077309
     2  O   -0.481858
     3  H    0.050122
     4  H    0.047981
     5  H    0.069041
     6  H    0.237404
 Sum of Mulliken charges =   0.00000

 Dipole moment (field-independent basis, Debye):
    X=             -0.8461    Y=             -1.5620    Z=              0.0963  Tot=              1.7791
 Quadrupole moment (field-independent basis, Debye-Ang):
   XX=            -12.8619   YY=            -12.1677   ZZ=            -13.7685
   XY=             -2.3496   XZ=              0.0711   YZ=             -0.0436

 Normal termination of Gaussian 09 at Thu Aug 27 00:00:18 2020.
