 Gaussian 09, Revision D.01,
 Gaussian 09:  ES64L-G09RevD.01 24-Apr-2013

 --------------------
 #p B2PLYPD3/Def2QZVP
 --------------------

 --------
 methanol
 --------
 Symbolic Z-matrix:
 Charge =  0 Multiplicity = 1

                         Standard orientation:
 ---------------------------------------------------------------------
 Center     Atomic      Atomic             Coordinates (Angstroms)
 Number     Number       Type             X           Y           Z
 ---------------------------------------------------------------------
      1          6           0        0.667244    0.018158   -0.010402
      2          8           0       -0.743778   -0.159876    0.012422
      3          1           0        1.139030    0.570799    0.791317
      4          1           0        1.010978    0.546781   -0.786091
      5          1           0        1.075729   -0.917230   -0.019115
      6          1           0       -1.278979    0.969713   -0.023074
 ---------------------------------------------------------------------

 SCF Done:  E(RB2PLYPD3) =  -115.490580332     A.U. after   11 cycles
 E2(B2PLYPD3) =    -0.1526136134D+00 E(B2PLYPD3) =    -0.11564319394544D+03

 The electronic state is 1-A.
 Alpha  occ. eigenvalues --  -19.74712 -10.63434  -1.12300  -0.79108  -0.56339
 Alpha  occ. eigenvalues --   -0.50756  -0.49398  -0.40614  -0.34791
 Alpha virt. eigenvalues --    0.01497   0.07401   0.12468   0.13139   0.15139
 Alpha virt. eigenvalues --    0.17355   0.18267   0.25066   0.29637   0.33434
 Alpha virt. eigenvalues --    0.34359   0.38659   0.39117   0.41270   0.44591

 Mulliken charges:
               1
     1  C    0.087939
     2  O   -0.492656
     3  H    0.036945
     4  H    0.044152
     5  H    0.069133
     6  H    0.254487
 Sum of Mulliken charges =   0.00000

 Dipole moment (field-independent basis, Debye):
    X=              0.8348    Y=              1.6971    Z=             -0.1385  Tot=              1.8964
 Quadrupole moment (field-independent basis, Debye-Ang):
   XX=            -12.5223   YY=            -11.7304   ZZ=            -14.2452
   XY=             -2.5112   XZ=              0.0508   YZ=             -0.0968

 Normal termination of Gaussian 09 at Wed Aug 26 14:58:21 2020.
