 Gaussian 09, Revision D.01,
 Gaussian 09:  ES64L-G09RevD.01 24-Apr-2013

 --------------------
 #p B2PLYPD3/Def2QZVP
 --------------------

 --------
 methanol
 --------
 Symbolic Z-matrix:
 Charge =  0 Multiplicity = 1

                         Standard orientation:
 ---------------------------------------------------------------------
 Center     Atomic      Atomic             Coordinates (Angstroms)
 Number     Number       Type             X           Y           Z
 ---------------------------------------------------------------------
      1          6           0        0.659300   -0.015341   -0.000814
      2          8           0       -0.749179    0.100082   -0.004107
      3          1           0        1.015692   -0.668177   -0.872601
      4          1           0        1.096349   -0.445310    0.961782
      5          1           0        1.080714    1.026496   -0.111353
      6          1           0       -1.155118   -0.621623    0.059913
 ---------------------------------------------------------------------

 SCF Done:  E(RB2PLYPD3) =  -115.528559092     A.U. after   10 cycles
 E2(B2PLYPD3) =    -0.1455177584D+00 E(B2PLYPD3) =    -0.11567407685030D+03

 The electronic state is 1-A.
 Alpha  occ. eigenvalues --  -19.71435 -10.67467  -1.19491  -0.79508  -0.60514
 Alpha  occ. eigenvalues --   -0.51151  -0.50109  -0.40654  -0.35546
 Alpha virt. eigenvalues --    0.05354   0.08566   0.12122   0.12210   0.14783
 Alpha virt. eigenvalues --    0.17067   0.18041   0.28960   0.32918   0.33647
 Alpha virt. eigenvalues --    0.36930   0.38920   0.39366   0.39584   0.42405

 Mulliken charges:
               1
     1  C    0.059230
     2  O   -0.380224
     3  H    0.045580
     4  H    0.047957
     5  H    0.075607
     6  H    0.151850
 Sum of Mulliken charges =   0.00000

 Dipole moment (field-independent basis, Debye):
    X=              0.7753    Y=             -1.3278    Z=              0.1192  Tot=              1.5422
 Quadrupole moment (field-independent basis, Debye-Ang):
   XX=            -12.8623   YY=            -12.5233   ZZ=            -13.7933
   XY=              2.1392   XZ=             -0.1139   YZ=             -0.0774

 Normal termination of Gaussian 09 at Wed Aug 26 21:02:20 2020.
