 Gaussian 09, Revision D.01,
 Gaussian 09:  ES64L-G09RevD.01 24-Apr-2013

 --------------------
 #p B2PLYPD3/Def2QZVP
 --------------------

 --------
 methanol
 --------
 Symbolic Z-matrix:
 Charge =  0 Multiplicity = 1

                         Standard orientation:
 ---------------------------------------------------------------------
 Center     Atomic      Atomic             Coordinates (Angstroms)
 Number     Number       Type             X           Y           Z
 ---------------------------------------------------------------------
      1          6           0       -0.658836   -0.025276   -0.012464
      2          8           0        0.750419    0.107171    0.000325
      3          1           0       -0.996305   -0.607343    0.902902
      4          1           0       -1.052781   -0.510027   -0.898929
      5          1           0       -1.120186    1.047717    0.077868
      6          1           0        1.118937   -0.636061   -0.009654
 ---------------------------------------------------------------------

 SCF Done:  E(RB2PLYPD3) =  -115.527747479     A.U. after   10 cycles
 E2(B2PLYPD3) =    -0.1454518209D+00 E(B2PLYPD3) =    -0.11567319930025D+03

 The electronic state is 1-A.
 Alpha  occ. eigenvalues --  -19.71420 -10.67140  -1.19661  -0.79380  -0.60727
 Alpha  occ. eigenvalues --   -0.51823  -0.49611  -0.40775  -0.35779
 Alpha virt. eigenvalues --    0.05316   0.08672   0.12011   0.12228   0.14756
 Alpha virt. eigenvalues --    0.17261   0.17957   0.28990   0.32991   0.33485
 Alpha virt. eigenvalues --    0.36504   0.38373   0.39596   0.40795   0.42834

 Mulliken charges:
               1
     1  C    0.062453
     2  O   -0.379319
     3  H    0.044476
     4  H    0.056892
     5  H    0.066483
     6  H    0.149015
 Sum of Mulliken charges =   0.00000

 Dipole moment (field-independent basis, Debye):
    X=             -0.8522    Y=             -1.4189    Z=             -0.0596  Tot=              1.6562
 Quadrupole moment (field-independent basis, Debye-Ang):
   XX=            -13.0221   YY=            -12.4575   ZZ=            -13.7330
   XY=             -2.0811   XZ=              0.0643   YZ=              0.0865

 Normal termination of Gaussian 09 at Thu Aug 27 00:08:27 2020.
