 Gaussian 09, Revision D.01,
 Gaussian 09:  ES64L-G09RevD.01 24-Apr-2013

 --------------------
 #p B2PLYPD3/Def2QZVP
 --------------------

 --------
 methanol
 --------
 Symbolic Z-matrix:
 Charge =  0 Multiplicity = 1

                         Standard orientation:
 ---------------------------------------------------------------------
 Center     Atomic      Atomic             Coordinates (Angstroms)
 Number     Number       Type             X           Y           Z
 ---------------------------------------------------------------------
      1          6           0        0.671554   -0.032577    0.005535
      2          8           0       -0.744293    0.114507   -0.004340
      3          1           0        0.997004   -0.585654   -0.891272
      4          1           0        0.913162   -0.523518    0.942324
      5          1           0        1.155432    1.009680   -0.033335
      6          1           0       -1.140580   -0.621103   -0.016201
 ---------------------------------------------------------------------

 SCF Done:  E(RB2PLYPD3) =  -115.531164747     A.U. after   10 cycles
 E2(B2PLYPD3) =    -0.1452773784D+00 E(B2PLYPD3) =    -0.11567644212528D+03

 The electronic state is 1-A.
 Alpha  occ. eigenvalues --  -19.70866 -10.66618  -1.18857  -0.79642  -0.59886
 Alpha  occ. eigenvalues --   -0.52784  -0.49772  -0.40349  -0.35656
 Alpha virt. eigenvalues --    0.05388   0.08752   0.12116   0.12291   0.14365
 Alpha virt. eigenvalues --    0.17357   0.17736   0.29045   0.32598   0.33258
 Alpha virt. eigenvalues --    0.36816   0.38658   0.40038   0.41035   0.44002

 Mulliken charges:
               1
     1  C    0.070414
     2  O   -0.400019
     3  H    0.051122
     4  H    0.056311
     5  H    0.069647
     6  H    0.152524
 Sum of Mulliken charges =   0.00000

 Dipole moment (field-independent basis, Debye):
    X=              0.8865    Y=             -1.4133    Z=             -0.0089  Tot=              1.6684
 Quadrupole moment (field-independent basis, Debye-Ang):
   XX=            -12.9797   YY=            -12.5097   ZZ=            -13.5401
   XY=              2.2223   XZ=             -0.0538   YZ=              0.0005

 Normal termination of Gaussian 09 at Wed Aug 26 15:16:57 2020.
