 Gaussian 09, Revision D.01,
 Gaussian 09:  ES64L-G09RevD.01 24-Apr-2013

 --------------------
 #p B2PLYPD3/Def2QZVP
 --------------------

 --------
 methanol
 --------
 Symbolic Z-matrix:
 Charge =  0 Multiplicity = 1

                         Standard orientation:
 ---------------------------------------------------------------------
 Center     Atomic      Atomic             Coordinates (Angstroms)
 Number     Number       Type             X           Y           Z
 ---------------------------------------------------------------------
      1          6           0        0.665443   -0.019741   -0.004772
      2          8           0       -0.746228    0.099892    0.001588
      3          1           0        1.020450   -0.539935   -0.916055
      4          1           0        0.984775   -0.559005    0.938831
      5          1           0        1.061705    1.037628    0.014561
      6          1           0       -1.089764   -0.619375   -0.021407
 ---------------------------------------------------------------------

 SCF Done:  E(RB2PLYPD3) =  -115.515729447     A.U. after   10 cycles
 E2(B2PLYPD3) =    -0.1448043112D+00 E(B2PLYPD3) =    -0.11566053375847D+03

 The electronic state is 1-A.
 Alpha  occ. eigenvalues --  -19.70743 -10.66942  -1.20555  -0.79894  -0.60604
 Alpha  occ. eigenvalues --   -0.52044  -0.50045  -0.41140  -0.35741
 Alpha virt. eigenvalues --    0.05401   0.08973   0.12048   0.12168   0.14612
 Alpha virt. eigenvalues --    0.17058   0.17832   0.28930   0.32893   0.33330
 Alpha virt. eigenvalues --    0.37567   0.38790   0.40207   0.40273   0.43157

 Mulliken charges:
               1
     1  C    0.062239
     2  O   -0.352511
     3  H    0.052231
     4  H    0.048405
     5  H    0.073737
     6  H    0.115899
 Sum of Mulliken charges =   0.00000

 Dipole moment (field-independent basis, Debye):
    X=              0.9064    Y=             -1.3479    Z=             -0.0665  Tot=              1.6257
 Quadrupole moment (field-independent basis, Debye-Ang):
   XX=            -13.2200   YY=            -12.3850   ZZ=            -13.5732
   XY=              2.0502   XZ=             -0.0067   YZ=              0.0600

 Normal termination of Gaussian 09 at Thu Aug 27 00:03:54 2020.
