 Gaussian 09, Revision D.01,
 Gaussian 09:  ES64L-G09RevD.01 24-Apr-2013

 --------------------
 #p B2PLYPD3/Def2QZVP
 --------------------

 --------
 methanol
 --------
 Symbolic Z-matrix:
 Charge =  0 Multiplicity = 1

                         Standard orientation:
 ---------------------------------------------------------------------
 Center     Atomic      Atomic             Coordinates (Angstroms)
 Number     Number       Type             X           Y           Z
 ---------------------------------------------------------------------
      1          6           0       -0.661003    0.018757    0.006700
      2          8           0        0.736852   -0.140000   -0.005761
      3          1           0       -1.006147    0.561457   -0.869597
      4          1           0       -1.004842    0.491006    0.873906
      5          1           0       -1.054431   -0.916961   -0.028268
      6          1           0        1.136623    0.871953    0.029843
 ---------------------------------------------------------------------

 SCF Done:  E(RB2PLYPD3) =  -115.533597936     A.U. after   11 cycles
 E2(B2PLYPD3) =    -0.1491057307D+00 E(B2PLYPD3) =    -0.11568270366651D+03

 The electronic state is 1-A.
 Alpha  occ. eigenvalues --  -19.73419 -10.63867  -1.14499  -0.78716  -0.57375
 Alpha  occ. eigenvalues --   -0.52310  -0.50117  -0.41011  -0.35047
 Alpha virt. eigenvalues --    0.03876   0.08036   0.12495   0.12748   0.14886
 Alpha virt. eigenvalues --    0.17372   0.18218   0.28938   0.30547   0.33304
 Alpha virt. eigenvalues --    0.34559   0.39046   0.40784   0.41815   0.43974

 Mulliken charges:
               1
     1  C    0.077869
     2  O   -0.480772
     3  H    0.040960
     4  H    0.045122
     5  H    0.068472
     6  H    0.248349
 Sum of Mulliken charges =   0.00000

 Dipole moment (field-independent basis, Debye):
    X=             -0.8990    Y=              1.5775    Z=              0.0916  Tot=              1.8180
 Quadrupole moment (field-independent basis, Debye-Ang):
   XX=            -13.1455   YY=            -11.9510   ZZ=            -13.7792
   XY=              2.3787   XZ=              0.0326   YZ=              0.0762

 Normal termination of Gaussian 09 at Wed Aug 26 23:59:08 2020.
