 Gaussian 09, Revision D.01,
 Gaussian 09:  ES64L-G09RevD.01 24-Apr-2013

 --------------------
 #p B2PLYPD3/Def2QZVP
 --------------------

 --------
 methanol
 --------
 Symbolic Z-matrix:
 Charge =  0 Multiplicity = 1

                         Standard orientation:
 ---------------------------------------------------------------------
 Center     Atomic      Atomic             Coordinates (Angstroms)
 Number     Number       Type             X           Y           Z
 ---------------------------------------------------------------------
      1          6           0        0.666802   -0.010599    0.014710
      2          8           0       -0.755064    0.086033   -0.011490
      3          1           0        1.053729   -0.763795   -0.825878
      4          1           0        1.039078   -0.397454    0.973371
      5          1           0        1.090324    1.071493   -0.194239
      6          1           0       -1.143426   -0.534914    0.050403
 ---------------------------------------------------------------------

 SCF Done:  E(RB2PLYPD3) =  -115.459419683     A.U. after   11 cycles
 E2(B2PLYPD3) =    -0.1444732249D+00 E(B2PLYPD3) =    -0.11560389290828D+03

 The electronic state is 1-A.
 Alpha  occ. eigenvalues --  -19.70162 -10.68443  -1.22309  -0.80830  -0.61582
 Alpha  occ. eigenvalues --   -0.51015  -0.49835  -0.40636  -0.35837
 Alpha virt. eigenvalues --    0.05328   0.08971   0.11687   0.12096   0.14733
 Alpha virt. eigenvalues --    0.16944   0.17667   0.28950   0.32547   0.32856
 Alpha virt. eigenvalues --    0.36244   0.37431   0.40096   0.40361   0.41884

 Mulliken charges:
               1
     1  C    0.058681
     2  O   -0.287673
     3  H    0.038815
     4  H    0.060323
     5  H    0.078722
     6  H    0.051133
 Sum of Mulliken charges =   0.00000

 Dipole moment (field-independent basis, Debye):
    X=              0.8599    Y=             -1.2407    Z=              0.2133  Tot=              1.5246
 Quadrupole moment (field-independent basis, Debye-Ang):
   XX=            -12.8814   YY=            -12.5278   ZZ=            -13.7273
   XY=              1.9752   XZ=             -0.1063   YZ=             -0.1794

 Normal termination of Gaussian 09 at Wed Aug 26 15:42:15 2020.
