 Gaussian 09, Revision D.01,
 Gaussian 09:  ES64L-G09RevD.01 24-Apr-2013

 --------------------
 #p B2PLYPD3/Def2QZVP
 --------------------

 --------
 methanol
 --------
 Symbolic Z-matrix:
 Charge =  0 Multiplicity = 1

                         Standard orientation:
 ---------------------------------------------------------------------
 Center     Atomic      Atomic             Coordinates (Angstroms)
 Number     Number       Type             X           Y           Z
 ---------------------------------------------------------------------
      1          6           0       -0.647501   -0.008826   -0.015173
      2          8           0        0.753052   -0.043392   -0.044854
      3          1           0       -1.070125    1.199989   -0.228314
      4          1           0       -1.142841   -0.346486    1.067709
      5          1           0       -1.086199   -0.730705   -0.729723
      6          1           0        1.159754    0.277291    0.340196
 ---------------------------------------------------------------------

 SCF Done:  E(RB2PLYPD3) =  -115.305036908     A.U. after   11 cycles
 E2(B2PLYPD3) =    -0.1443135859D+00 E(B2PLYPD3) =    -0.11544935049380D+03

 The electronic state is 1-A.
 Alpha  occ. eigenvalues --  -19.69783 -10.70548  -1.26743  -0.83469  -0.62190
 Alpha  occ. eigenvalues --   -0.51953  -0.49735  -0.39838  -0.35294
 Alpha virt. eigenvalues --    0.05026   0.09026   0.11004   0.12117   0.14350
 Alpha virt. eigenvalues --    0.16920   0.17878   0.28468   0.31114   0.32992
 Alpha virt. eigenvalues --    0.34259   0.36259   0.38194   0.41709   0.41879

 Mulliken charges:
               1
     1  C    0.047972
     2  O   -0.184571
     3  H    0.029888
     4  H    0.034476
     5  H    0.102220
     6  H   -0.029985
 Sum of Mulliken charges =   0.00000

 Dipole moment (field-independent basis, Debye):
    X=             -0.6793    Y=              0.5097    Z=              0.7466  Tot=              1.1308
 Quadrupole moment (field-independent basis, Debye-Ang):
   XX=            -12.7166   YY=            -13.2795   ZZ=            -13.4290
   XY=              1.4498   XZ=              1.4285   YZ=              0.5053

 Normal termination of Gaussian 09 at Wed Aug 26 21:24:29 2020.
