 Gaussian 09, Revision D.01,
 Gaussian 09:  ES64L-G09RevD.01 24-Apr-2013

 --------------------
 #p B2PLYPD3/Def2QZVP
 --------------------

 --------
 methanol
 --------
 Symbolic Z-matrix:
 Charge =  0 Multiplicity = 1

                         Standard orientation:
 ---------------------------------------------------------------------
 Center     Atomic      Atomic             Coordinates (Angstroms)
 Number     Number       Type             X           Y           Z
 ---------------------------------------------------------------------
      1          6           0       -0.671497   -0.013007    0.009630
      2          8           0        0.759699    0.099576   -0.007571
      3          1           0       -1.045730   -0.490215    0.948796
      4          1           0       -1.049794   -0.599248   -0.925885
      5          1           0       -1.073759    1.009356   -0.058129
      6          1           0        1.120674   -0.638454    0.038005
 ---------------------------------------------------------------------

 SCF Done:  E(RB2PLYPD3) =  -115.526264678     A.U. after   10 cycles
 E2(B2PLYPD3) =    -0.1455648799D+00 E(B2PLYPD3) =    -0.11567182955778D+03

 The electronic state is 1-A.
 Alpha  occ. eigenvalues --  -19.71258 -10.67292  -1.19207  -0.79580  -0.59994
 Alpha  occ. eigenvalues --   -0.51132  -0.50128  -0.41198  -0.35746
 Alpha virt. eigenvalues --    0.05374   0.08628   0.11955   0.12319   0.14556
 Alpha virt. eigenvalues --    0.17111   0.18061   0.28894   0.32451   0.33173
 Alpha virt. eigenvalues --    0.36799   0.39326   0.39381   0.39920   0.42900

 Mulliken charges:
               1
     1  C    0.061715
     2  O   -0.382453
     3  H    0.054456
     4  H    0.045234
     5  H    0.078329
     6  H    0.142720
 Sum of Mulliken charges =   0.00000

 Dipole moment (field-independent basis, Debye):
    X=             -0.9380    Y=             -1.3209    Z=              0.1298  Tot=              1.6253
 Quadrupole moment (field-independent basis, Debye-Ang):
   XX=            -13.0423   YY=            -12.4663   ZZ=            -13.6588
   XY=             -2.1417   XZ=              0.0710   YZ=             -0.1111

 Normal termination of Gaussian 09 at Thu Aug 27 00:01:35 2020.
