 Gaussian 09, Revision D.01,
 Gaussian 09:  ES64L-G09RevD.01 24-Apr-2013

 --------------------
 #p B2PLYPD3/Def2QZVP
 --------------------

 --------
 methanol
 --------
 Symbolic Z-matrix:
 Charge =  0 Multiplicity = 1

                         Standard orientation:
 ---------------------------------------------------------------------
 Center     Atomic      Atomic             Coordinates (Angstroms)
 Number     Number       Type             X           Y           Z
 ---------------------------------------------------------------------
      1          6           0        0.669705    0.009762   -0.002830
      2          8           0       -0.755060   -0.129635    0.003647
      3          1           0        1.076086    0.525099    0.882149
      4          1           0        1.028415    0.536683   -0.877880
      5          1           0        1.050215   -0.931688   -0.014520
      6          1           0       -1.132461    0.848415   -0.001947
 ---------------------------------------------------------------------

 SCF Done:  E(RB2PLYPD3) =  -115.540998575     A.U. after   11 cycles
 E2(B2PLYPD3) =    -0.1489565462D+00 E(B2PLYPD3) =    -0.11568995512159D+03

 The electronic state is 1-A.
 Alpha  occ. eigenvalues --  -19.73395 -10.64760  -1.14322  -0.78811  -0.57429
 Alpha  occ. eigenvalues --   -0.51267  -0.49987  -0.41540  -0.35226
 Alpha virt. eigenvalues --    0.04305   0.07928   0.12424   0.12652   0.14889
 Alpha virt. eigenvalues --    0.17306   0.18257   0.29016   0.31781   0.33379
 Alpha virt. eigenvalues --    0.33673   0.38613   0.40466   0.40830   0.43823

 Mulliken charges:
               1
     1  C    0.073579
     2  O   -0.480085
     3  H    0.043807
     4  H    0.045215
     5  H    0.073434
     6  H    0.244050
 Sum of Mulliken charges =   0.00000

 Dipole moment (field-independent basis, Debye):
    X=              0.9656    Y=              1.5385    Z=             -0.0313  Tot=              1.8167
 Quadrupole moment (field-independent basis, Debye-Ang):
   XX=            -13.0997   YY=            -11.9972   ZZ=            -13.8702
   XY=             -2.3273   XZ=              0.0228   YZ=             -0.0167

 Normal termination of Gaussian 09 at Thu Aug 27 00:11:23 2020.
