 Gaussian 09, Revision D.01,
 Gaussian 09:  ES64L-G09RevD.01 24-Apr-2013

 --------------------
 #p B2PLYPD3/Def2QZVP
 --------------------

 --------
 methanol
 --------
 Symbolic Z-matrix:
 Charge =  0 Multiplicity = 1

                         Standard orientation:
 ---------------------------------------------------------------------
 Center     Atomic      Atomic             Coordinates (Angstroms)
 Number     Number       Type             X           Y           Z
 ---------------------------------------------------------------------
      1          6           0        0.663910   -0.005513   -0.003724
      2          8           0       -0.752073    0.100161    0.001309
      3          1           0        0.988275   -0.608310   -0.926475
      4          1           0        1.024604   -0.548071    0.962135
      5          1           0        1.143081    0.981137   -0.032747
      6          1           0       -1.122841   -0.592963    0.008953
 ---------------------------------------------------------------------

 SCF Done:  E(RB2PLYPD3) =  -115.505810365     A.U. after   10 cycles
 E2(B2PLYPD3) =    -0.1448169382D+00 E(B2PLYPD3) =    -0.11565062730326D+03

 The electronic state is 1-A.
 Alpha  occ. eigenvalues --  -19.70766 -10.67616  -1.20743  -0.80152  -0.60615
 Alpha  occ. eigenvalues --   -0.51284  -0.50966  -0.40796  -0.35506
 Alpha virt. eigenvalues --    0.05385   0.08830   0.11874   0.12437   0.14395
 Alpha virt. eigenvalues --    0.17425   0.17713   0.28877   0.32743   0.32819
 Alpha virt. eigenvalues --    0.36793   0.38853   0.39234   0.40417   0.43250

 Mulliken charges:
               1
     1  C    0.063612
     2  O   -0.342777
     3  H    0.044479
     4  H    0.042186
     5  H    0.083912
     6  H    0.108588
 Sum of Mulliken charges =   0.00000

 Dipole moment (field-independent basis, Debye):
    X=              0.8864    Y=             -1.2589    Z=             -0.0073  Tot=              1.5397
 Quadrupole moment (field-independent basis, Debye-Ang):
   XX=            -12.9704   YY=            -12.5386   ZZ=            -13.6901
   XY=              2.2368   XZ=             -0.0222   YZ=              0.0048

 Normal termination of Gaussian 09 at Wed Aug 26 11:56:34 2020.
