 Gaussian 09, Revision D.01,
 Gaussian 09:  ES64L-G09RevD.01 24-Apr-2013

 --------------------
 #p B2PLYPD3/Def2QZVP
 --------------------

 --------
 methanol
 --------
 Symbolic Z-matrix:
 Charge =  0 Multiplicity = 1

                         Standard orientation:
 ---------------------------------------------------------------------
 Center     Atomic      Atomic             Coordinates (Angstroms)
 Number     Number       Type             X           Y           Z
 ---------------------------------------------------------------------
      1          6           0        0.637319   -0.028000    0.003951
      2          8           0       -0.742768   -0.030990   -0.060765
      3          1           0        1.020949   -0.290267    1.044998
      4          1           0        1.008507    1.232381   -0.263058
      5          1           0        1.093181   -0.739949   -0.714492
      6          1           0       -1.004402    0.213758    0.394968
 ---------------------------------------------------------------------

 SCF Done:  E(RB2PLYPD3) =  -115.138636177     A.U. after   11 cycles
 E2(B2PLYPD3) =    -0.1430447106D+00 E(B2PLYPD3) =    -0.11528168088758D+03

 The electronic state is 1-A.
 Alpha  occ. eigenvalues --  -19.69374 -10.69550  -1.31569  -0.83839  -0.63385
 Alpha  occ. eigenvalues --   -0.52740  -0.50654  -0.41994  -0.35088
 Alpha virt. eigenvalues --    0.04994   0.09617   0.10785   0.12105   0.14523
 Alpha virt. eigenvalues --    0.17144   0.17341   0.27974   0.30550   0.34051
 Alpha virt. eigenvalues --    0.35216   0.37383   0.39365   0.41406   0.43335

 Mulliken charges:
               1
     1  C    0.046632
     2  O   -0.117423
     3  H    0.046071
     4  H    0.015472
     5  H    0.095181
     6  H   -0.085934
 Sum of Mulliken charges =   0.00000

 Dipole moment (field-independent basis, Debye):
    X=              0.8328    Y=              0.1897    Z=              1.0529  Tot=              1.3558
 Quadrupole moment (field-independent basis, Debye-Ang):
   XX=            -13.4268   YY=            -13.3386   ZZ=            -12.8339
   XY=             -1.3376   XZ=             -1.3995   YZ=              0.4812

 Normal termination of Gaussian 09 at Wed Aug 26 22:20:51 2020.
