 Gaussian 09, Revision D.01,
 Gaussian 09:  ES64L-G09RevD.01 24-Apr-2013

 --------------------
 #p B2PLYPD3/Def2QZVP
 --------------------

 --------
 methanol
 --------
 Symbolic Z-matrix:
 Charge =  0 Multiplicity = 1

                         Standard orientation:
 ---------------------------------------------------------------------
 Center     Atomic      Atomic             Coordinates (Angstroms)
 Number     Number       Type             X           Y           Z
 ---------------------------------------------------------------------
      1          6           0       -0.619786    0.024042    0.008650
      2          8           0        0.739858   -0.084945   -0.038496
      3          1           0       -0.948757    1.087997   -0.429401
      4          1           0       -1.157874   -0.243155    1.030894
      5          1           0       -1.083167   -0.795642   -0.669678
      6          1           0        0.989646    0.486109    0.324251
 ---------------------------------------------------------------------

 SCF Done:  E(RB2PLYPD3) =  -115.438901727     A.U. after   11 cycles
 E2(B2PLYPD3) =    -0.1443815055D+00 E(B2PLYPD3) =    -0.11558328323288D+03

 The electronic state is 1-A.
 Alpha  occ. eigenvalues --  -19.71129 -10.68462  -1.26217  -0.80182  -0.62102
 Alpha  occ. eigenvalues --   -0.52646  -0.51081  -0.40513  -0.35818
 Alpha virt. eigenvalues --    0.05277   0.08936   0.11599   0.12175   0.14388
 Alpha virt. eigenvalues --    0.17291   0.18467   0.27933   0.32382   0.34637
 Alpha virt. eigenvalues --    0.35026   0.38239   0.38697   0.41294   0.43590

 Mulliken charges:
               1
     1  C    0.033907
     2  O   -0.229569
     3  H    0.038076
     4  H    0.045027
     5  H    0.063306
     6  H    0.049253
 Sum of Mulliken charges =   0.00000

 Dipole moment (field-independent basis, Debye):
    X=             -0.7632    Y=              1.0219    Z=              0.6324  Tot=              1.4236
 Quadrupole moment (field-independent basis, Debye-Ang):
   XX=            -13.4785   YY=            -12.8281   ZZ=            -13.5153
   XY=              1.7334   XZ=              0.9192   YZ=              0.3526

 Normal termination of Gaussian 09 at Wed Aug 26 23:33:48 2020.
