 Gaussian 09, Revision D.01,
 Gaussian 09:  ES64L-G09RevD.01 24-Apr-2013

 --------------------
 #p B2PLYPD3/Def2QZVP
 --------------------

 --------
 methanol
 --------
 Symbolic Z-matrix:
 Charge =  0 Multiplicity = 1

                         Standard orientation:
 ---------------------------------------------------------------------
 Center     Atomic      Atomic             Coordinates (Angstroms)
 Number     Number       Type             X           Y           Z
 ---------------------------------------------------------------------
      1          6           0        0.671991    0.026890    0.006871
      2          8           0       -0.754624   -0.140241   -0.010606
      3          1           0        1.052276    0.438842    0.857424
      4          1           0        1.037951    0.621057   -0.816708
      5          1           0        1.088056   -0.963156   -0.063178
      6          1           0       -1.173236    0.863847    0.066087
 ---------------------------------------------------------------------

 SCF Done:  E(RB2PLYPD3) =  -115.533525776     A.U. after   11 cycles
 E2(B2PLYPD3) =    -0.1497336567D+00 E(B2PLYPD3) =    -0.11568325943313D+03

 The electronic state is 1-A.
 Alpha  occ. eigenvalues --  -19.73689 -10.64456  -1.13485  -0.78841  -0.57037
 Alpha  occ. eigenvalues --   -0.51880  -0.48991  -0.41106  -0.35398
 Alpha virt. eigenvalues --    0.03918   0.07762   0.12408   0.12688   0.14979
 Alpha virt. eigenvalues --    0.17311   0.18300   0.28847   0.30539   0.33326
 Alpha virt. eigenvalues --    0.33833   0.38703   0.39473   0.41769   0.44441

 Mulliken charges:
               1
     1  C    0.079722
     2  O   -0.488807
     3  H    0.050929
     4  H    0.045132
     5  H    0.065063
     6  H    0.247961
 Sum of Mulliken charges =   0.00000

 Dipole moment (field-independent basis, Debye):
    X=              0.9526    Y=              1.6318    Z=              0.1774  Tot=              1.8978
 Quadrupole moment (field-independent basis, Debye-Ang):
   XX=            -12.9213   YY=            -11.9890   ZZ=            -13.9145
   XY=             -2.3188   XZ=             -0.0847   YZ=              0.1095

 Normal termination of Gaussian 09 at Thu Aug 27 00:03:58 2020.
