 Gaussian 09, Revision D.01,
 Gaussian 09:  ES64L-G09RevD.01 24-Apr-2013

 --------------------
 #p B2PLYPD3/Def2QZVP
 --------------------

 --------
 methanol
 --------
 Symbolic Z-matrix:
 Charge =  0 Multiplicity = 1

                         Standard orientation:
 ---------------------------------------------------------------------
 Center     Atomic      Atomic             Coordinates (Angstroms)
 Number     Number       Type             X           Y           Z
 ---------------------------------------------------------------------
      1          6           0        0.653838    0.024081   -0.000547
      2          8           0       -0.752793   -0.140486   -0.002393
      3          1           0        1.020795    0.543628    0.824378
      4          1           0        1.080416    0.511296   -0.822207
      5          1           0        1.092331   -0.974366    0.025933
      6          1           0       -1.094227    0.898846   -0.005680
 ---------------------------------------------------------------------

 SCF Done:  E(RB2PLYPD3) =  -115.531891624     A.U. after   11 cycles
 E2(B2PLYPD3) =    -0.1497757773D+00 E(B2PLYPD3) =    -0.11568166740140D+03

 The electronic state is 1-A.
 Alpha  occ. eigenvalues --  -19.74045 -10.64324  -1.14471  -0.78671  -0.57521
 Alpha  occ. eigenvalues --   -0.51974  -0.49226  -0.41284  -0.35425
 Alpha virt. eigenvalues --    0.03749   0.07831   0.12342   0.12758   0.15103
 Alpha virt. eigenvalues --    0.17588   0.18263   0.28727   0.30160   0.33601
 Alpha virt. eigenvalues --    0.34463   0.38251   0.39850   0.41881   0.44379

 Mulliken charges:
               1
     1  C    0.080167
     2  O   -0.473486
     3  H    0.042740
     4  H    0.043561
     5  H    0.058835
     6  H    0.248183
 Sum of Mulliken charges =   0.00000

 Dipole moment (field-independent basis, Debye):
    X=              0.9827    Y=              1.6786    Z=              0.0025  Tot=              1.9451
 Quadrupole moment (field-independent basis, Debye-Ang):
   XX=            -13.2282   YY=            -11.8492   ZZ=            -13.9884
   XY=             -2.1660   XZ=             -0.0296   YZ=             -0.0036

 Normal termination of Gaussian 09 at Wed Aug 26 18:33:29 2020.
