 Gaussian 09, Revision D.01,
 Gaussian 09:  ES64L-G09RevD.01 24-Apr-2013

 --------------------
 #p B2PLYPD3/Def2QZVP
 --------------------

 --------
 methanol
 --------
 Symbolic Z-matrix:
 Charge =  0 Multiplicity = 1

                         Standard orientation:
 ---------------------------------------------------------------------
 Center     Atomic      Atomic             Coordinates (Angstroms)
 Number     Number       Type             X           Y           Z
 ---------------------------------------------------------------------
      1          6           0        0.666231   -0.022704    0.006828
      2          8           0       -0.741923    0.109407   -0.016807
      3          1           0        1.044504   -0.700117   -0.817504
      4          1           0        0.997234   -0.397543    0.953839
      5          1           0        1.069932    1.020126   -0.122419
      6          1           0       -1.173669   -0.661499    0.079566
 ---------------------------------------------------------------------

 SCF Done:  E(RB2PLYPD3) =  -115.546052471     A.U. after   10 cycles
 E2(B2PLYPD3) =    -0.1460400522D+00 E(B2PLYPD3) =    -0.11569209252291D+03

 The electronic state is 1-A.
 Alpha  occ. eigenvalues --  -19.71658 -10.66339  -1.17629  -0.79216  -0.59821
 Alpha  occ. eigenvalues --   -0.51785  -0.49821  -0.40568  -0.35444
 Alpha virt. eigenvalues --    0.05272   0.08490   0.12170   0.12401   0.14877
 Alpha virt. eigenvalues --    0.17005   0.17999   0.29133   0.33205   0.33639
 Alpha virt. eigenvalues --    0.37025   0.38523   0.39374   0.40792   0.43404

 Mulliken charges:
               1
     1  C    0.067815
     2  O   -0.431242
     3  H    0.045278
     4  H    0.053968
     5  H    0.071840
     6  H    0.192341
 Sum of Mulliken charges =   0.00000

 Dipole moment (field-independent basis, Debye):
    X=              0.7794    Y=             -1.4135    Z=              0.2365  Tot=              1.6314
 Quadrupole moment (field-independent basis, Debye-Ang):
   XX=            -12.8581   YY=            -12.3971   ZZ=            -13.7327
   XY=              2.1708   XZ=             -0.2307   YZ=             -0.1266

 Normal termination of Gaussian 09 at Wed Aug 26 10:42:58 2020.
