 Gaussian 09, Revision D.01,
 Gaussian 09:  ES64L-G09RevD.01 24-Apr-2013

 --------------------
 #p B2PLYPD3/Def2QZVP
 --------------------

 --------
 methanol
 --------
 Symbolic Z-matrix:
 Charge =  0 Multiplicity = 1

                         Standard orientation:
 ---------------------------------------------------------------------
 Center     Atomic      Atomic             Coordinates (Angstroms)
 Number     Number       Type             X           Y           Z
 ---------------------------------------------------------------------
      1          6           0        0.651062    0.047140   -0.043946
      2          8           0       -0.702267   -0.198344    0.022891
      3          1           0        1.051958    0.521719    0.836574
      4          1           0        0.812229    0.537812   -0.714865
      5          1           0        1.123500   -0.821994   -0.021525
      6          1           0       -1.275925    1.066376   -0.019633
 ---------------------------------------------------------------------

 SCF Done:  E(RB2PLYPD3) =  -115.400692705     A.U. after   12 cycles
 E2(B2PLYPD3) =    -0.1543015230D+00 E(B2PLYPD3) =    -0.11555499422790D+03

 The electronic state is 1-A.
 Alpha  occ. eigenvalues --  -19.74806 -10.60775  -1.13438  -0.80288  -0.58290
 Alpha  occ. eigenvalues --   -0.52591  -0.49727  -0.39252  -0.34534
 Alpha virt. eigenvalues --   -0.01196   0.07618   0.12657   0.13124   0.14906
 Alpha virt. eigenvalues --    0.17659   0.18307   0.22432   0.29456   0.32359
 Alpha virt. eigenvalues --    0.35748   0.39493   0.40482   0.42132   0.46401

 Mulliken charges:
               1
     1  C    0.039155
     2  O   -0.475992
     3  H    0.037199
     4  H    0.102418
     5  H    0.061574
     6  H    0.235646
 Sum of Mulliken charges =   0.00000

 Dipole moment (field-independent basis, Debye):
    X=              0.8575    Y=              1.7169    Z=             -0.2005  Tot=              1.9296
 Quadrupole moment (field-independent basis, Debye-Ang):
   XX=            -12.7690   YY=            -11.5880   ZZ=            -13.8878
   XY=             -2.6786   XZ=              0.0817   YZ=             -0.2394

 Normal termination of Gaussian 09 at Wed Aug 26 21:06:35 2020.
