 Gaussian 09, Revision D.01,
 Gaussian 09:  ES64L-G09RevD.01 24-Apr-2013

 --------------------
 #p B2PLYPD3/Def2QZVP
 --------------------

 --------
 methanol
 --------
 Symbolic Z-matrix:
 Charge =  0 Multiplicity = 1

                         Standard orientation:
 ---------------------------------------------------------------------
 Center     Atomic      Atomic             Coordinates (Angstroms)
 Number     Number       Type             X           Y           Z
 ---------------------------------------------------------------------
      1          6           0       -0.648415   -0.037588    0.006088
      2          8           0        0.738987    0.110776   -0.010445
      3          1           0       -1.019294   -0.471697    0.926704
      4          1           0       -1.020764   -0.626641   -0.874479
      5          1           0       -1.146249    1.052034   -0.062063
      6          1           0        1.164898   -0.614379    0.056867
 ---------------------------------------------------------------------

 SCF Done:  E(RB2PLYPD3) =  -115.530424849     A.U. after   10 cycles
 E2(B2PLYPD3) =    -0.1454527719D+00 E(B2PLYPD3) =    -0.11567587762100D+03

 The electronic state is 1-A.
 Alpha  occ. eigenvalues --  -19.71565 -10.67102  -1.19658  -0.79410  -0.60990
 Alpha  occ. eigenvalues --   -0.52271  -0.49614  -0.39783  -0.35783
 Alpha virt. eigenvalues --    0.05317   0.08546   0.12037   0.12321   0.14765
 Alpha virt. eigenvalues --    0.17278   0.18117   0.28913   0.33216   0.34268
 Alpha virt. eigenvalues --    0.35704   0.38395   0.39888   0.41004   0.42897

 Mulliken charges:
               1
     1  C    0.058485
     2  O   -0.385754
     3  H    0.055129
     4  H    0.049898
     5  H    0.059568
     6  H    0.162675
 Sum of Mulliken charges =   0.00000

 Dipole moment (field-independent basis, Debye):
    X=             -0.6849    Y=             -1.4332    Z=              0.1721  Tot=              1.5978
 Quadrupole moment (field-independent basis, Debye-Ang):
   XX=            -12.7908   YY=            -12.6542   ZZ=            -13.7172
   XY=             -2.0968   XZ=              0.1334   YZ=             -0.0811

 Normal termination of Gaussian 09 at Wed Aug 26 11:37:41 2020.
