 Gaussian 09, Revision D.01,
 Gaussian 09:  ES64L-G09RevD.01 24-Apr-2013

 --------------------
 #p B2PLYPD3/Def2QZVP
 --------------------

 --------
 methanol
 --------
 Symbolic Z-matrix:
 Charge =  0 Multiplicity = 1

                         Standard orientation:
 ---------------------------------------------------------------------
 Center     Atomic      Atomic             Coordinates (Angstroms)
 Number     Number       Type             X           Y           Z
 ---------------------------------------------------------------------
      1          6           0        0.669434   -0.030140   -0.013366
      2          8           0       -0.750973    0.131006    0.008570
      3          1           0        1.025832   -0.484652   -0.868410
      4          1           0        1.048583   -0.570847    0.871456
      5          1           0        1.094233    0.979696    0.040646
      6          1           0       -1.177463   -0.791404   -0.032059
 ---------------------------------------------------------------------

 SCF Done:  E(RB2PLYPD3) =  -115.546368006     A.U. after   10 cycles
 E2(B2PLYPD3) =    -0.1483266938D+00 E(B2PLYPD3) =    -0.11569469470022D+03

 The electronic state is 1-A.
 Alpha  occ. eigenvalues --  -19.73051 -10.65151  -1.14719  -0.78697  -0.57937
 Alpha  occ. eigenvalues --   -0.51987  -0.49261  -0.40833  -0.35468
 Alpha virt. eigenvalues --    0.04630   0.07949   0.12430   0.12502   0.14883
 Alpha virt. eigenvalues --    0.17271   0.18313   0.29065   0.32802   0.33448
 Alpha virt. eigenvalues --    0.33826   0.38445   0.39614   0.41569   0.44463

 Mulliken charges:
               1
     1  C    0.072765
     2  O   -0.477810
     3  H    0.054845
     4  H    0.046219
     5  H    0.065662
     6  H    0.238319
 Sum of Mulliken charges =   0.00000

 Dipole moment (field-independent basis, Debye):
    X=              0.8814    Y=             -1.5667    Z=             -0.1270  Tot=              1.8021
 Quadrupole moment (field-independent basis, Debye-Ang):
   XX=            -12.8621   YY=            -12.2216   ZZ=            -13.8097
   XY=              2.3093   XZ=              0.0418   YZ=              0.1086

 Normal termination of Gaussian 09 at Wed Aug 26 23:58:21 2020.
