 Gaussian 09, Revision D.01,
 Gaussian 09:  ES64L-G09RevD.01 24-Apr-2013

 --------------------
 #p B2PLYPD3/Def2QZVP
 --------------------

 --------
 methanol
 --------
 Symbolic Z-matrix:
 Charge =  0 Multiplicity = 1

                         Standard orientation:
 ---------------------------------------------------------------------
 Center     Atomic      Atomic             Coordinates (Angstroms)
 Number     Number       Type             X           Y           Z
 ---------------------------------------------------------------------
      1          6           0        0.659245   -0.010490   -0.001385
      2          8           0       -0.745489    0.105014   -0.000595
      3          1           0        1.020354   -0.604622   -0.904519
      4          1           0        1.025937   -0.531591    0.949547
      5          1           0        1.110083    0.993016   -0.038087
      6          1           0       -1.147935   -0.633977    0.006132
 ---------------------------------------------------------------------

 SCF Done:  E(RB2PLYPD3) =  -115.533990484     A.U. after   10 cycles
 E2(B2PLYPD3) =    -0.1454357517D+00 E(B2PLYPD3) =    -0.11567942623621D+03

 The electronic state is 1-A.
 Alpha  occ. eigenvalues --  -19.71408 -10.67085  -1.19228  -0.79539  -0.60265
 Alpha  occ. eigenvalues --   -0.51207  -0.50806  -0.40685  -0.35358
 Alpha virt. eigenvalues --    0.05340   0.08621   0.12087   0.12422   0.14655
 Alpha virt. eigenvalues --    0.17285   0.17884   0.29002   0.32921   0.33570
 Alpha virt. eigenvalues --    0.36892   0.39396   0.39471   0.39846   0.43016

 Mulliken charges:
               1
     1  C    0.064348
     2  O   -0.392207
     3  H    0.043416
     4  H    0.043731
     5  H    0.078864
     6  H    0.161847
 Sum of Mulliken charges =   0.00000

 Dipole moment (field-independent basis, Debye):
    X=              0.7889    Y=             -1.3279    Z=              0.0028  Tot=              1.5446
 Quadrupole moment (field-independent basis, Debye-Ang):
   XX=            -12.9019   YY=            -12.4913   ZZ=            -13.7640
   XY=              2.2420   XZ=             -0.0340   YZ=             -0.0049

 Normal termination of Gaussian 09 at Thu Aug 27 00:15:03 2020.
