 Gaussian 09, Revision D.01,
 Gaussian 09:  ES64L-G09RevD.01 24-Apr-2013

 --------------------
 #p B2PLYPD3/Def2QZVP
 --------------------

 --------
 methanol
 --------
 Symbolic Z-matrix:
 Charge =  0 Multiplicity = 1

                         Standard orientation:
 ---------------------------------------------------------------------
 Center     Atomic      Atomic             Coordinates (Angstroms)
 Number     Number       Type             X           Y           Z
 ---------------------------------------------------------------------
      1          6           0        0.651745   -0.010792   -0.001938
      2          8           0       -0.752847    0.087677   -0.019914
      3          1           0        1.034631   -0.803166   -0.778006
      4          1           0        1.088235   -0.223638    1.064665
      5          1           0        1.041896    0.981314   -0.280660
      6          1           0       -1.052453   -0.591178    0.164943
 ---------------------------------------------------------------------

 SCF Done:  E(RB2PLYPD3) =  -115.489727646     A.U. after   11 cycles
 E2(B2PLYPD3) =    -0.1447463220D+00 E(B2PLYPD3) =    -0.11563447396769D+03

 The electronic state is 1-A.
 Alpha  occ. eigenvalues --  -19.71001 -10.67749  -1.22451  -0.80026  -0.60968
 Alpha  occ. eigenvalues --   -0.51406  -0.50618  -0.41378  -0.35844
 Alpha virt. eigenvalues --    0.05379   0.08879   0.11771   0.12299   0.14563
 Alpha virt. eigenvalues --    0.17101   0.18164   0.28561   0.32878   0.33484
 Alpha virt. eigenvalues --    0.36023   0.38748   0.39721   0.40485   0.42994

 Mulliken charges:
               1
     1  C    0.049536
     2  O   -0.302831
     3  H    0.044744
     4  H    0.044926
     5  H    0.077743
     6  H    0.085882
 Sum of Mulliken charges =   0.00000

 Dipole moment (field-independent basis, Debye):
    X=              0.8933    Y=             -1.1963    Z=              0.3210  Tot=              1.5272
 Quadrupole moment (field-independent basis, Debye-Ang):
   XX=            -13.3033   YY=            -12.5454   ZZ=            -13.5801
   XY=              1.9611   XZ=             -0.4855   YZ=             -0.2262

 Normal termination of Gaussian 09 at Wed Aug 26 15:10:58 2020.
