 Gaussian 09, Revision D.01,
 Gaussian 09:  ES64L-G09RevD.01 24-Apr-2013

 --------------------
 #p B2PLYPD3/Def2QZVP
 --------------------

 --------
 methanol
 --------
 Symbolic Z-matrix:
 Charge =  0 Multiplicity = 1

                         Standard orientation:
 ---------------------------------------------------------------------
 Center     Atomic      Atomic             Coordinates (Angstroms)
 Number     Number       Type             X           Y           Z
 ---------------------------------------------------------------------
      1          6           0       -0.649105   -0.025247   -0.001965
      2          8           0        0.738703    0.105545   -0.002426
      3          1           0       -1.037517   -0.540406    0.931102
      4          1           0       -0.967530   -0.605203   -0.920191
      5          1           0       -1.171498    1.026194   -0.025220
      6          1           0        1.161551   -0.573464    0.045510
 ---------------------------------------------------------------------

 SCF Done:  E(RB2PLYPD3) =  -115.512682868     A.U. after   10 cycles
 E2(B2PLYPD3) =    -0.1448688372D+00 E(B2PLYPD3) =    -0.11565755170486D+03

 The electronic state is 1-A.
 Alpha  occ. eigenvalues --  -19.71007 -10.67654  -1.20863  -0.79983  -0.61188
 Alpha  occ. eigenvalues --   -0.51919  -0.50261  -0.39838  -0.35571
 Alpha virt. eigenvalues --    0.05373   0.08718   0.12127   0.12221   0.14547
 Alpha virt. eigenvalues --    0.17377   0.17869   0.28888   0.32801   0.34084
 Alpha virt. eigenvalues --    0.36141   0.38790   0.39573   0.40224   0.42949

 Mulliken charges:
               1
     1  C    0.058480
     2  O   -0.347284
     3  H    0.045818
     4  H    0.048201
     5  H    0.070029
     6  H    0.124757
 Sum of Mulliken charges =   0.00000

 Dipole moment (field-independent basis, Debye):
    X=             -0.6938    Y=             -1.3263    Z=              0.0944  Tot=              1.4998
 Quadrupole moment (field-independent basis, Debye-Ang):
   XX=            -12.7714   YY=            -12.7041   ZZ=            -13.7170
   XY=             -2.1715   XZ=              0.0672   YZ=             -0.0383

 Normal termination of Gaussian 09 at Wed Aug 26 16:18:13 2020.
