 Gaussian 09, Revision D.01,
 Gaussian 09:  ES64L-G09RevD.01 24-Apr-2013

 --------------------
 #p B2PLYPD3/Def2QZVP
 --------------------

 --------
 methanol
 --------
 Symbolic Z-matrix:
 Charge =  0 Multiplicity = 1

                         Standard orientation:
 ---------------------------------------------------------------------
 Center     Atomic      Atomic             Coordinates (Angstroms)
 Number     Number       Type             X           Y           Z
 ---------------------------------------------------------------------
      1          6           0        0.656331   -0.014522   -0.005662
      2          8           0       -0.746124    0.098282   -0.004210
      3          1           0        1.010784   -0.635359   -0.884928
      4          1           0        1.022757   -0.451466    0.999958
      5          1           0        1.075891    1.005372   -0.084561
      6          1           0       -1.078423   -0.617669    0.037184
 ---------------------------------------------------------------------

 SCF Done:  E(RB2PLYPD3) =  -115.510873088     A.U. after   10 cycles
 E2(B2PLYPD3) =    -0.1447225164D+00 E(B2PLYPD3) =    -0.11565559560398D+03

 The electronic state is 1-A.
 Alpha  occ. eigenvalues --  -19.70923 -10.67162  -1.21246  -0.79952  -0.60736
 Alpha  occ. eigenvalues --   -0.51759  -0.50691  -0.41128  -0.35679
 Alpha virt. eigenvalues --    0.05402   0.08941   0.11923   0.12359   0.14532
 Alpha virt. eigenvalues --    0.17196   0.17961   0.28762   0.32940   0.33532
 Alpha virt. eigenvalues --    0.36978   0.39520   0.39612   0.40182   0.43310

 Mulliken charges:
               1
     1  C    0.058473
     2  O   -0.337764
     3  H    0.047884
     4  H    0.043944
     5  H    0.076167
     6  H    0.111297
 Sum of Mulliken charges =   0.00000

 Dipole moment (field-independent basis, Debye):
    X=              0.8768    Y=             -1.2938    Z=              0.0468  Tot=              1.5636
 Quadrupole moment (field-independent basis, Debye-Ang):
   XX=            -13.2186   YY=            -12.4611   ZZ=            -13.6001
   XY=              2.0953   XZ=             -0.1505   YZ=             -0.0137

 Normal termination of Gaussian 09 at Wed Aug 26 10:32:41 2020.
