 Gaussian 09, Revision D.01,
 Gaussian 09:  ES64L-G09RevD.01 24-Apr-2013

 --------------------
 #p B2PLYPD3/Def2QZVP
 --------------------

 --------
 methanol
 --------
 Symbolic Z-matrix:
 Charge =  0 Multiplicity = 1

                         Standard orientation:
 ---------------------------------------------------------------------
 Center     Atomic      Atomic             Coordinates (Angstroms)
 Number     Number       Type             X           Y           Z
 ---------------------------------------------------------------------
      1          6           0        0.695810   -0.025343    0.013469
      2          8           0       -0.755329    0.070153   -0.009246
      3          1           0        1.000835   -0.823480   -0.797815
      4          1           0        0.944827   -0.361055    1.015811
      5          1           0        1.075914    1.161423   -0.238960
      6          1           0       -1.153804   -0.386049    0.014117
 ---------------------------------------------------------------------

 SCF Done:  E(RB2PLYPD3) =  -115.214740912     A.U. after   11 cycles
 E2(B2PLYPD3) =    -0.1437350907D+00 E(B2PLYPD3) =    -0.11535847600304D+03

 The electronic state is 1-A.
 Alpha  occ. eigenvalues --  -19.67580 -10.69851  -1.26494  -0.83136  -0.61608
 Alpha  occ. eigenvalues --   -0.51927  -0.48841  -0.39378  -0.36301
 Alpha virt. eigenvalues --    0.04951   0.09611   0.10854   0.11853   0.14165
 Alpha virt. eigenvalues --    0.16435   0.17152   0.28829   0.30542   0.32483
 Alpha virt. eigenvalues --    0.33536   0.37194   0.40587   0.40947   0.42094

 Mulliken charges:
               1
     1  C    0.064995
     2  O   -0.194858
     3  H    0.054375
     4  H    0.074561
     5  H    0.082098
     6  H   -0.081170
 Sum of Mulliken charges =   0.00000

 Dipole moment (field-independent basis, Debye):
    X=              1.0129    Y=             -1.1416    Z=              0.1413  Tot=              1.5327
 Quadrupole moment (field-independent basis, Debye-Ang):
   XX=            -12.9368   YY=            -12.4634   ZZ=            -13.4087
   XY=              1.7217   XZ=             -0.0644   YZ=             -0.0769

 Normal termination of Gaussian 09 at Wed Aug 26 23:46:49 2020.
