 Gaussian 09, Revision D.01,
 Gaussian 09:  ES64L-G09RevD.01 24-Apr-2013

 --------------------
 #p B2PLYPD3/Def2QZVP
 --------------------

 --------
 methanol
 --------
 Symbolic Z-matrix:
 Charge =  0 Multiplicity = 1

                         Standard orientation:
 ---------------------------------------------------------------------
 Center     Atomic      Atomic             Coordinates (Angstroms)
 Number     Number       Type             X           Y           Z
 ---------------------------------------------------------------------
      1          6           0       -0.685209    0.011170   -0.012452
      2          8           0        0.734750    0.093767    0.013216
      3          1           0       -1.026854   -0.602511    0.969946
      4          1           0       -1.059518   -0.542888   -0.932285
      5          1           0       -0.932768    0.965703    0.015854
      6          1           0        1.252397   -0.637463   -0.084533
 ---------------------------------------------------------------------

 SCF Done:  E(RB2PLYPD3) =  -115.529474538     A.U. after   11 cycles
 E2(B2PLYPD3) =    -0.1464527908D+00 E(B2PLYPD3) =    -0.11567592732895D+03

 The electronic state is 1-A.
 Alpha  occ. eigenvalues --  -19.71243 -10.66589  -1.16537  -0.80070  -0.58804
 Alpha  occ. eigenvalues --   -0.52109  -0.50060  -0.40271  -0.34539
 Alpha virt. eigenvalues --    0.05196   0.08381   0.11847   0.12684   0.14617
 Alpha virt. eigenvalues --    0.16587   0.17910   0.29198   0.32077   0.33082
 Alpha virt. eigenvalues --    0.36442   0.38611   0.38803   0.40896   0.43863

 Mulliken charges:
               1
     1  C    0.068391
     2  O   -0.450206
     3  H    0.038623
     4  H    0.047060
     5  H    0.093259
     6  H    0.202873
 Sum of Mulliken charges =   0.00000

 Dipole moment (field-independent basis, Debye):
    X=             -0.6476    Y=             -1.2427    Z=             -0.2687  Tot=              1.4269
 Quadrupole moment (field-independent basis, Debye-Ang):
   XX=            -12.6678   YY=            -12.4202   ZZ=            -13.7672
   XY=             -2.2676   XZ=             -0.1231   YZ=              0.1818

 Normal termination of Gaussian 09 at Wed Aug 26 20:45:22 2020.
