 Gaussian 09, Revision D.01,
 Gaussian 09:  ES64L-G09RevD.01 24-Apr-2013

 --------------------
 #p B2PLYPD3/Def2QZVP
 --------------------

 --------
 methanol
 --------
 Symbolic Z-matrix:
 Charge =  0 Multiplicity = 1

                         Standard orientation:
 ---------------------------------------------------------------------
 Center     Atomic      Atomic             Coordinates (Angstroms)
 Number     Number       Type             X           Y           Z
 ---------------------------------------------------------------------
      1          6           0       -0.670143   -0.018290    0.006844
      2          8           0        0.766628    0.077975   -0.014598
      3          1           0       -1.107003   -0.438088    0.970587
      4          1           0       -1.015046   -0.676638   -0.915737
      5          1           0       -1.083467    1.093472   -0.109865
      6          1           0        1.093345   -0.492809    0.130736
 ---------------------------------------------------------------------

 SCF Done:  E(RB2PLYPD3) =  -115.377974772     A.U. after   11 cycles
 E2(B2PLYPD3) =    -0.1441507082D+00 E(B2PLYPD3) =    -0.11552212547987D+03

 The electronic state is 1-A.
 Alpha  occ. eigenvalues --  -19.69620 -10.69069  -1.24956  -0.81121  -0.61759
 Alpha  occ. eigenvalues --   -0.51103  -0.49459  -0.41050  -0.36326
 Alpha virt. eigenvalues --    0.05273   0.09091   0.11693   0.11749   0.14486
 Alpha virt. eigenvalues --    0.16903   0.17867   0.28707   0.31481   0.33334
 Alpha virt. eigenvalues --    0.35798   0.37426   0.38562   0.40703   0.42311

 Mulliken charges:
               1
     1  C    0.049605
     2  O   -0.234142
     3  H    0.057909
     4  H    0.053305
     5  H    0.076747
     6  H   -0.003424
 Sum of Mulliken charges =   0.00000

 Dipole moment (field-independent basis, Debye):
    X=             -1.0001    Y=             -1.1772    Z=              0.3549  Tot=              1.5849
 Quadrupole moment (field-independent basis, Debye-Ang):
   XX=            -13.0519   YY=            -12.6263   ZZ=            -13.5181
   XY=             -1.8322   XZ=              0.2720   YZ=             -0.1983

 Normal termination of Gaussian 09 at Wed Aug 26 16:18:33 2020.
