 Gaussian 09, Revision D.01,
 Gaussian 09:  ES64L-G09RevD.01 24-Apr-2013

 --------------------
 #p B2PLYPD3/Def2QZVP
 --------------------

 --------
 methanol
 --------
 Symbolic Z-matrix:
 Charge =  0 Multiplicity = 1

                         Standard orientation:
 ---------------------------------------------------------------------
 Center     Atomic      Atomic             Coordinates (Angstroms)
 Number     Number       Type             X           Y           Z
 ---------------------------------------------------------------------
      1          6           0        0.632250    0.009497    0.010583
      2          8           0       -0.733420   -0.055242   -0.071763
      3          1           0        0.889433   -0.217533    1.108179
      4          1           0        1.143955    1.104150   -0.346128
      5          1           0        1.206117   -0.849382   -0.566664
      6          1           0       -1.165638    0.347721    0.315225
 ---------------------------------------------------------------------

 SCF Done:  E(RB2PLYPD3) =  -115.412010992     A.U. after   11 cycles
 E2(B2PLYPD3) =    -0.1443326591D+00 E(B2PLYPD3) =    -0.11555634365108D+03

 The electronic state is 1-A.
 Alpha  occ. eigenvalues --  -19.70346 -10.69449  -1.25012  -0.82287  -0.62146
 Alpha  occ. eigenvalues --   -0.51599  -0.51157  -0.38744  -0.35438
 Alpha virt. eigenvalues --    0.05216   0.08780   0.11541   0.12359   0.14153
 Alpha virt. eigenvalues --    0.17212   0.18085   0.28499   0.31799   0.33769
 Alpha virt. eigenvalues --    0.35597   0.35990   0.39530   0.40896   0.43271

 Mulliken charges:
               1
     1  C    0.044196
     2  O   -0.222563
     3  H    0.042728
     4  H    0.032644
     5  H    0.077034
     6  H    0.025962
 Sum of Mulliken charges =   0.00000

 Dipole moment (field-independent basis, Debye):
    X=              0.5324    Y=              0.6891    Z=              0.8611  Tot=              1.2247
 Quadrupole moment (field-independent basis, Debye-Ang):
   XX=            -12.6582   YY=            -13.2433   ZZ=            -13.5544
   XY=             -1.5510   XZ=             -1.4673   YZ=              0.3011

 Normal termination of Gaussian 09 at Wed Aug 26 20:58:45 2020.
