 Gaussian 09, Revision D.01,
 Gaussian 09:  ES64L-G09RevD.01 24-Apr-2013

 --------------------
 #p B2PLYPD3/Def2QZVP
 --------------------

 --------
 methanol
 --------
 Symbolic Z-matrix:
 Charge =  0 Multiplicity = 1

                         Standard orientation:
 ---------------------------------------------------------------------
 Center     Atomic      Atomic             Coordinates (Angstroms)
 Number     Number       Type             X           Y           Z
 ---------------------------------------------------------------------
      1          6           0       -0.682842   -0.047292    0.005672
      2          8           0        0.752220    0.146473   -0.013528
      3          1           0       -1.009052   -0.387223    0.874481
      4          1           0       -1.027690   -0.629773   -0.789670
      5          1           0       -1.094659    0.984347   -0.081705
      6          1           0        1.210698   -0.855382    0.071087
 ---------------------------------------------------------------------

 SCF Done:  E(RB2PLYPD3) =  -115.525230280     A.U. after   11 cycles
 E2(B2PLYPD3) =    -0.1500404925D+00 E(B2PLYPD3) =    -0.11567527077282D+03

 The electronic state is 1-A.
 Alpha  occ. eigenvalues --  -19.73520 -10.64200  -1.12772  -0.79078  -0.56394
 Alpha  occ. eigenvalues --   -0.53247  -0.48137  -0.40511  -0.35611
 Alpha virt. eigenvalues --    0.03855   0.07725   0.12249   0.12693   0.14857
 Alpha virt. eigenvalues --    0.17148   0.18401   0.28669   0.30260   0.33005
 Alpha virt. eigenvalues --    0.33846   0.37748   0.39948   0.42846   0.44344

 Mulliken charges:
               1
     1  C    0.082007
     2  O   -0.499003
     3  H    0.057371
     4  H    0.053780
     5  H    0.059415
     6  H    0.246430
 Sum of Mulliken charges =   0.00000

 Dipole moment (field-independent basis, Debye):
    X=             -0.9602    Y=             -1.6717    Z=              0.1880  Tot=              1.9369
 Quadrupole moment (field-independent basis, Debye-Ang):
   XX=            -12.8306   YY=            -12.0659   ZZ=            -13.7833
   XY=             -2.3172   XZ=              0.1390   YZ=             -0.0679

 Normal termination of Gaussian 09 at Wed Aug 26 12:28:36 2020.
