 Gaussian 09, Revision D.01,
 Gaussian 09:  ES64L-G09RevD.01 24-Apr-2013

 --------------------
 #p B2PLYPD3/Def2QZVP
 --------------------

 --------
 methanol
 --------
 Symbolic Z-matrix:
 Charge =  0 Multiplicity = 1

                         Standard orientation:
 ---------------------------------------------------------------------
 Center     Atomic      Atomic             Coordinates (Angstroms)
 Number     Number       Type             X           Y           Z
 ---------------------------------------------------------------------
      1          6           0        0.632199    0.068746    0.001359
      2          8           0       -0.714525   -0.190863   -0.019210
      3          1           0        0.959212    0.360948    0.809879
      4          1           0        1.000075    0.645712   -0.711885
      5          1           0        1.228375   -0.885455   -0.048037
      6          1           0       -1.264658    0.993228    0.095569
 ---------------------------------------------------------------------

 SCF Done:  E(RB2PLYPD3) =  -115.450455709     A.U. after   11 cycles
 E2(B2PLYPD3) =    -0.1528585089D+00 E(B2PLYPD3) =    -0.11560331421825D+03

 The electronic state is 1-A.
 Alpha  occ. eigenvalues --  -19.74994 -10.62037  -1.13949  -0.79811  -0.55165
 Alpha  occ. eigenvalues --   -0.54785  -0.49653  -0.38415  -0.35440
 Alpha virt. eigenvalues --    0.00199   0.07333   0.12671   0.13144   0.14939
 Alpha virt. eigenvalues --    0.17916   0.18825   0.23402   0.29321   0.33816
 Alpha virt. eigenvalues --    0.35578   0.37925   0.40614   0.43406   0.44909

 Mulliken charges:
               1
     1  C    0.090739
     2  O   -0.474007
     3  H    0.054753
     4  H    0.042517
     5  H    0.036853
     6  H    0.249146
 Sum of Mulliken charges =   0.00000

 Dipole moment (field-independent basis, Debye):
    X=              0.7578    Y=              1.8410    Z=              0.2561  Tot=              2.0073
 Quadrupole moment (field-independent basis, Debye-Ang):
   XX=            -12.5920   YY=            -11.9736   ZZ=            -13.9215
   XY=             -2.4708   XZ=             -0.1336   YZ=              0.0467

 Normal termination of Gaussian 09 at Wed Aug 26 23:53:24 2020.
