 Gaussian 09, Revision D.01,
 Gaussian 09:  ES64L-G09RevD.01 24-Apr-2013

 --------------------
 #p B2PLYPD3/Def2QZVP
 --------------------

 --------
 methanol
 --------
 Symbolic Z-matrix:
 Charge =  0 Multiplicity = 1

                         Standard orientation:
 ---------------------------------------------------------------------
 Center     Atomic      Atomic             Coordinates (Angstroms)
 Number     Number       Type             X           Y           Z
 ---------------------------------------------------------------------
      1          6           0       -0.672437   -0.024892    0.011423
      2          8           0        0.761075    0.086289   -0.019443
      3          1           0       -1.020970   -0.449646    0.958746
      4          1           0       -1.066073   -0.696403   -0.865816
      5          1           0       -1.126603    1.106171   -0.099362
      6          1           0        1.159668   -0.501079    0.093439
 ---------------------------------------------------------------------

 SCF Done:  E(RB2PLYPD3) =  -115.438301448     A.U. after   11 cycles
 E2(B2PLYPD3) =    -0.1445183533D+00 E(B2PLYPD3) =    -0.11558281980127D+03

 The electronic state is 1-A.
 Alpha  occ. eigenvalues --  -19.69894 -10.68806  -1.22561  -0.80931  -0.61661
 Alpha  occ. eigenvalues --   -0.51213  -0.49135  -0.40297  -0.36157
 Alpha virt. eigenvalues --    0.05273   0.08957   0.11542   0.12036   0.14594
 Alpha virt. eigenvalues --    0.16947   0.17752   0.28902   0.31952   0.33065
 Alpha virt. eigenvalues --    0.34894   0.37797   0.40060   0.40331   0.41930

 Mulliken charges:
               1
     1  C    0.056891
     2  O   -0.276998
     3  H    0.061768
     4  H    0.052484
     5  H    0.073073
     6  H    0.032782
 Sum of Mulliken charges =   0.00000

 Dipole moment (field-independent basis, Debye):
    X=             -0.9004    Y=             -1.2568    Z=              0.3181  Tot=              1.5784
 Quadrupole moment (field-independent basis, Debye-Ang):
   XX=            -12.7738   YY=            -12.6441   ZZ=            -13.6435
   XY=             -1.8991   XZ=              0.2841   YZ=             -0.1611

 Normal termination of Gaussian 09 at Wed Aug 26 11:00:55 2020.
