 Gaussian 09, Revision D.01,
 Gaussian 09:  ES64L-G09RevD.01 24-Apr-2013

 --------------------
 #p B2PLYPD3/Def2QZVP
 --------------------

 --------
 methanol
 --------
 Symbolic Z-matrix:
 Charge =  0 Multiplicity = 1

                         Standard orientation:
 ---------------------------------------------------------------------
 Center     Atomic      Atomic             Coordinates (Angstroms)
 Number     Number       Type             X           Y           Z
 ---------------------------------------------------------------------
      1          6           0        0.654452   -0.011911    0.011095
      2          8           0       -0.749185    0.100704   -0.013296
      3          1           0        1.027350   -0.690388   -0.878385
      4          1           0        1.045665   -0.410695    0.982001
      5          1           0        1.107426    0.989459   -0.143518
      6          1           0       -1.113674   -0.622541    0.079697
 ---------------------------------------------------------------------

 SCF Done:  E(RB2PLYPD3) =  -115.522251039     A.U. after   10 cycles
 E2(B2PLYPD3) =    -0.1452021798D+00 E(B2PLYPD3) =    -0.11566745321888D+03

 The electronic state is 1-A.
 Alpha  occ. eigenvalues --  -19.71366 -10.67338  -1.20336  -0.79674  -0.60648
 Alpha  occ. eigenvalues --   -0.51329  -0.50689  -0.40836  -0.35594
 Alpha virt. eigenvalues --    0.05363   0.08705   0.11965   0.12391   0.14589
 Alpha virt. eigenvalues --    0.17315   0.18041   0.28820   0.32859   0.33633
 Alpha virt. eigenvalues --    0.36562   0.39120   0.39635   0.39976   0.43077

 Mulliken charges:
               1
     1  C    0.058806
     2  O   -0.362275
     3  H    0.038172
     4  H    0.050960
     5  H    0.076058
     6  H    0.138280
 Sum of Mulliken charges =   0.00000

 Dipole moment (field-independent basis, Debye):
    X=              0.8264    Y=             -1.2857    Z=              0.2254  Tot=              1.5449
 Quadrupole moment (field-independent basis, Debye-Ang):
   XX=            -13.0196   YY=            -12.5704   ZZ=            -13.6817
   XY=              2.1719   XZ=             -0.1861   YZ=             -0.1793

 Normal termination of Gaussian 09 at Thu Aug 27 00:02:20 2020.
