 Gaussian 09, Revision D.01,
 Gaussian 09:  ES64L-G09RevD.01 24-Apr-2013

 --------------------
 #p B2PLYPD3/Def2QZVP
 --------------------

 --------
 methanol
 --------
 Symbolic Z-matrix:
 Charge =  0 Multiplicity = 1

                         Standard orientation:
 ---------------------------------------------------------------------
 Center     Atomic      Atomic             Coordinates (Angstroms)
 Number     Number       Type             X           Y           Z
 ---------------------------------------------------------------------
      1          6           0        0.639536    0.037090    0.008853
      2          8           0       -0.754003   -0.174895   -0.024279
      3          1           0        0.980790    0.317432    0.782024
      4          1           0        1.042303    0.701586   -0.695917
      5          1           0        1.216961   -0.917317   -0.072750
      6          1           0       -1.045243    1.074918    0.127758
 ---------------------------------------------------------------------

 SCF Done:  E(RB2PLYPD3) =  -115.445264298     A.U. after   12 cycles
 E2(B2PLYPD3) =    -0.1538591835D+00 E(B2PLYPD3) =    -0.11559912348167D+03

 The electronic state is 1-A.
 Alpha  occ. eigenvalues --  -19.75546 -10.62790  -1.13185  -0.80480  -0.54986
 Alpha  occ. eigenvalues --   -0.53436  -0.49269  -0.39709  -0.35718
 Alpha virt. eigenvalues --    0.00409   0.07346   0.12283   0.12999   0.14709
 Alpha virt. eigenvalues --    0.17937   0.19036   0.23688   0.29434   0.33632
 Alpha virt. eigenvalues --    0.34468   0.37371   0.39271   0.41974   0.44487

 Mulliken charges:
               1
     1  C    0.078487
     2  O   -0.472023
     3  H    0.068055
     4  H    0.036000
     5  H    0.039674
     6  H    0.249808
 Sum of Mulliken charges =   0.00000

 Dipole moment (field-independent basis, Debye):
    X=              1.1286    Y=              1.8497    Z=              0.3751  Tot=              2.1991
 Quadrupole moment (field-independent basis, Debye-Ang):
   XX=            -13.4963   YY=            -11.5025   ZZ=            -14.0577
   XY=             -2.0996   XZ=             -0.0642   YZ=              0.1698

 Normal termination of Gaussian 09 at Wed Aug 26 23:53:45 2020.
