 Gaussian 09, Revision D.01,
 Gaussian 09:  ES64L-G09RevD.01 24-Apr-2013

 --------------------
 #p B2PLYPD3/Def2QZVP
 --------------------

 --------
 methanol
 --------
 Symbolic Z-matrix:
 Charge =  0 Multiplicity = 1

                         Standard orientation:
 ---------------------------------------------------------------------
 Center     Atomic      Atomic             Coordinates (Angstroms)
 Number     Number       Type             X           Y           Z
 ---------------------------------------------------------------------
      1          6           0       -0.673055   -0.017080    0.003602
      2          8           0        0.755760    0.099649   -0.009613
      3          1           0       -1.056801   -0.470822    0.935623
      4          1           0       -1.000305   -0.630554   -0.900062
      5          1           0       -1.062302    1.035824   -0.064014
      6          1           0        1.111658   -0.629165    0.083742
 ---------------------------------------------------------------------

 SCF Done:  E(RB2PLYPD3) =  -115.524602595     A.U. after   10 cycles
 E2(B2PLYPD3) =    -0.1453416454D+00 E(B2PLYPD3) =    -0.11566994423997D+03

 The electronic state is 1-A.
 Alpha  occ. eigenvalues --  -19.71023 -10.67088  -1.19419  -0.79645  -0.60227
 Alpha  occ. eigenvalues --   -0.51556  -0.49712  -0.41277  -0.35763
 Alpha virt. eigenvalues --    0.05378   0.08759   0.12069   0.12145   0.14666
 Alpha virt. eigenvalues --    0.17027   0.17901   0.28997   0.32354   0.33399
 Alpha virt. eigenvalues --    0.37511   0.38615   0.39872   0.40150   0.42757

 Mulliken charges:
               1
     1  C    0.063274
     2  O   -0.377341
     3  H    0.053379
     4  H    0.050214
     5  H    0.075569
     6  H    0.134905
 Sum of Mulliken charges =   0.00000

 Dipole moment (field-independent basis, Debye):
    X=             -0.9459    Y=             -1.3504    Z=              0.2097  Tot=              1.6620
 Quadrupole moment (field-independent basis, Debye-Ang):
   XX=            -13.1132   YY=            -12.3872   ZZ=            -13.6350
   XY=             -2.0639   XZ=              0.1434   YZ=             -0.1259

 Normal termination of Gaussian 09 at Wed Aug 26 22:09:38 2020.
