 Gaussian 09, Revision D.01,
 Gaussian 09:  ES64L-G09RevD.01 24-Apr-2013

 --------------------
 #p B2PLYPD3/Def2QZVP
 --------------------

 --------
 methanol
 --------
 Symbolic Z-matrix:
 Charge =  0 Multiplicity = 1

                         Standard orientation:
 ---------------------------------------------------------------------
 Center     Atomic      Atomic             Coordinates (Angstroms)
 Number     Number       Type             X           Y           Z
 ---------------------------------------------------------------------
      1          6           0       -0.699065    0.024619   -0.016535
      2          8           0        0.767752   -0.155508   -0.012802
      3          1           0       -1.010255    0.565294   -0.828435
      4          1           0       -1.127975    0.353470    0.875198
      5          1           0       -0.956084   -0.867688    0.008578
      6          1           0        1.146688    1.045278    0.146288
 ---------------------------------------------------------------------

 SCF Done:  E(RB2PLYPD3) =  -115.464949338     A.U. after   11 cycles
 E2(B2PLYPD3) =    -0.1542458557D+00 E(B2PLYPD3) =    -0.11561919519351D+03

 The electronic state is 1-A.
 Alpha  occ. eigenvalues --  -19.74729 -10.62624  -1.10701  -0.80365  -0.56033
 Alpha  occ. eigenvalues --   -0.52589  -0.47123  -0.40961  -0.35569
 Alpha virt. eigenvalues --    0.01496   0.07473   0.12372   0.12748   0.14580
 Alpha virt. eigenvalues --    0.16740   0.18873   0.24750   0.28931   0.32106
 Alpha virt. eigenvalues --    0.33991   0.38269   0.39802   0.42995   0.43800

 Mulliken charges:
               1
     1  C    0.070206
     2  O   -0.503048
     3  H    0.058497
     4  H    0.047921
     5  H    0.084032
     6  H    0.242393
 Sum of Mulliken charges =   0.00000

 Dipole moment (field-independent basis, Debye):
    X=             -1.2713    Y=              1.6029    Z=              0.2262  Tot=              2.0583
 Quadrupole moment (field-independent basis, Debye-Ang):
   XX=            -13.2787   YY=            -11.5951   ZZ=            -13.7464
   XY=              2.2858   XZ=              0.1639   YZ=              0.0466

 Normal termination of Gaussian 09 at Wed Aug 26 20:45:47 2020.
