 Gaussian 09, Revision D.01,
 Gaussian 09:  ES64L-G09RevD.01 24-Apr-2013

 --------------------
 #p B2PLYPD3/Def2QZVP
 --------------------

 --------
 methanol
 --------
 Symbolic Z-matrix:
 Charge =  0 Multiplicity = 1

                         Standard orientation:
 ---------------------------------------------------------------------
 Center     Atomic      Atomic             Coordinates (Angstroms)
 Number     Number       Type             X           Y           Z
 ---------------------------------------------------------------------
      1          6           0       -0.670606    0.026653   -0.004288
      2          8           0        0.758901   -0.154957    0.000136
      3          1           0       -1.069972    0.526957   -0.799136
      4          1           0       -1.098799    0.518935    0.801731
      5          1           0       -1.067582   -0.949236    0.008155
      6          1           0        1.188783    0.983078    0.013894
 ---------------------------------------------------------------------

 SCF Done:  E(RB2PLYPD3) =  -115.501511831     A.U. after   11 cycles
 E2(B2PLYPD3) =    -0.1524512300D+00 E(B2PLYPD3) =    -0.11565396306108D+03

 The electronic state is 1-A.
 Alpha  occ. eigenvalues --  -19.74796 -10.63690  -1.12163  -0.79208  -0.55993
 Alpha  occ. eigenvalues --   -0.51434  -0.48593  -0.40979  -0.35390
 Alpha virt. eigenvalues --    0.02142   0.07454   0.12344   0.12971   0.15077
 Alpha virt. eigenvalues --    0.17298   0.18426   0.25826   0.29459   0.33473
 Alpha virt. eigenvalues --    0.34010   0.38449   0.39186   0.41970   0.44334

 Mulliken charges:
               1
     1  C    0.086141
     2  O   -0.489446
     3  H    0.046444
     4  H    0.043941
     5  H    0.062051
     6  H    0.250869
 Sum of Mulliken charges =   0.00000

 Dipole moment (field-independent basis, Debye):
    X=             -1.0131    Y=              1.7193    Z=              0.0122  Tot=              1.9956
 Quadrupole moment (field-independent basis, Debye-Ang):
   XX=            -12.9136   YY=            -11.6989   ZZ=            -14.1194
   XY=              2.3031   XZ=              0.0143   YZ=             -0.0106

 Normal termination of Gaussian 09 at Wed Aug 26 14:50:42 2020.
