 Gaussian 09, Revision D.01,
 Gaussian 09:  ES64L-G09RevD.01 24-Apr-2013

 --------------------
 #p B2PLYPD3/Def2QZVP
 --------------------

 --------
 methanol
 --------
 Symbolic Z-matrix:
 Charge =  0 Multiplicity = 1

                         Standard orientation:
 ---------------------------------------------------------------------
 Center     Atomic      Atomic             Coordinates (Angstroms)
 Number     Number       Type             X           Y           Z
 ---------------------------------------------------------------------
      1          6           0        0.660811    0.037748   -0.008125
      2          8           0       -0.702661   -0.199475    0.010482
      3          1           0        1.026795    0.463148    0.817598
      4          1           0        0.787196    0.614788   -0.757468
      5          1           0        1.135546   -0.763262   -0.113330
      6          1           0       -1.293118    1.054637    0.018093
 ---------------------------------------------------------------------

 SCF Done:  E(RB2PLYPD3) =  -115.427247707     A.U. after   12 cycles
 E2(B2PLYPD3) =    -0.1540067555D+00 E(B2PLYPD3) =    -0.11558125446238D+03

 The electronic state is 1-A.
 Alpha  occ. eigenvalues --  -19.74479 -10.60421  -1.12948  -0.80082  -0.56240
 Alpha  occ. eigenvalues --   -0.54031  -0.50099  -0.38951  -0.34557
 Alpha virt. eigenvalues --   -0.01133   0.07744   0.12935   0.13054   0.14688
 Alpha virt. eigenvalues --    0.17889   0.18004   0.22568   0.29561   0.32709
 Alpha virt. eigenvalues --    0.35275   0.39949   0.41300   0.43839   0.45107

 Mulliken charges:
               1
     1  C    0.098738
     2  O   -0.482823
     3  H    0.037274
     4  H    0.044092
     5  H    0.062850
     6  H    0.239869
 Sum of Mulliken charges =   0.00000

 Dipole moment (field-independent basis, Debye):
    X=              0.8804    Y=              1.7228    Z=             -0.0448  Tot=              1.9352
 Quadrupole moment (field-independent basis, Debye-Ang):
   XX=            -12.6131   YY=            -11.6258   ZZ=            -13.8201
   XY=             -2.7806   XZ=              0.0957   YZ=             -0.0134

 Normal termination of Gaussian 09 at Wed Aug 26 23:07:11 2020.
