 Gaussian 09, Revision D.01,
 Gaussian 09:  ES64L-G09RevD.01 24-Apr-2013

 --------------------
 #p B2PLYPD3/Def2QZVP
 --------------------

 --------
 methanol
 --------
 Symbolic Z-matrix:
 Charge =  0 Multiplicity = 1

                         Standard orientation:
 ---------------------------------------------------------------------
 Center     Atomic      Atomic             Coordinates (Angstroms)
 Number     Number       Type             X           Y           Z
 ---------------------------------------------------------------------
      1          6           0       -0.672683   -0.016903    0.009814
      2          8           0        0.748244    0.124187   -0.007480
      3          1           0       -1.042021   -0.451533    0.895478
      4          1           0       -1.004262   -0.636809   -0.854440
      5          1           0       -1.057510    0.971356   -0.092999
      6          1           0        1.153941   -0.775094    0.052916
 ---------------------------------------------------------------------

 SCF Done:  E(RB2PLYPD3) =  -115.550075890     A.U. after   10 cycles
 E2(B2PLYPD3) =    -0.1477213498D+00 E(B2PLYPD3) =    -0.11569779723937D+03

 The electronic state is 1-A.
 Alpha  occ. eigenvalues --  -19.72639 -10.65193  -1.15233  -0.78815  -0.58318
 Alpha  occ. eigenvalues --   -0.51690  -0.49783  -0.41220  -0.35253
 Alpha virt. eigenvalues --    0.04793   0.08179   0.12408   0.12471   0.14893
 Alpha virt. eigenvalues --    0.17166   0.18064   0.29178   0.33105   0.33407
 Alpha virt. eigenvalues --    0.34434   0.38868   0.39784   0.41298   0.44113

 Mulliken charges:
               1
     1  C    0.074102
     2  O   -0.472366
     3  H    0.052062
     4  H    0.042301
     5  H    0.072971
     6  H    0.230931
 Sum of Mulliken charges =   0.00000

 Dipole moment (field-independent basis, Debye):
    X=             -0.9023    Y=             -1.5135    Z=              0.1495  Tot=              1.7684
 Quadrupole moment (field-independent basis, Debye-Ang):
   XX=            -13.0106   YY=            -12.1315   ZZ=            -13.7931
   XY=             -2.2880   XZ=              0.0537   YZ=             -0.1296

 Normal termination of Gaussian 09 at Thu Aug 27 00:02:45 2020.
