 Gaussian 09, Revision D.01,
 Gaussian 09:  ES64L-G09RevD.01 24-Apr-2013

 --------------------
 #p B2PLYPD3/Def2QZVP
 --------------------

 --------
 methanol
 --------
 Symbolic Z-matrix:
 Charge =  0 Multiplicity = 1

                         Standard orientation:
 ---------------------------------------------------------------------
 Center     Atomic      Atomic             Coordinates (Angstroms)
 Number     Number       Type             X           Y           Z
 ---------------------------------------------------------------------
      1          6           0        0.656484    0.017360   -0.003026
      2          8           0       -0.737077   -0.147671   -0.005856
      3          1           0        1.021023    0.449593    0.902530
      4          1           0        0.991754    0.633275   -0.815059
      5          1           0        1.126743   -0.880604   -0.070314
      6          1           0       -1.181811    0.874945    0.047847
 ---------------------------------------------------------------------

 SCF Done:  E(RB2PLYPD3) =  -115.528590213     A.U. after   11 cycles
 E2(B2PLYPD3) =    -0.1495241333D+00 E(B2PLYPD3) =    -0.11567811434624D+03

 The electronic state is 1-A.
 Alpha  occ. eigenvalues --  -19.73695 -10.63941  -1.14194  -0.78680  -0.56851
 Alpha  occ. eigenvalues --   -0.51957  -0.50651  -0.40576  -0.34896
 Alpha virt. eigenvalues --    0.03492   0.07826   0.12567   0.12907   0.14837
 Alpha virt. eigenvalues --    0.17712   0.18241   0.28574   0.29838   0.33234
 Alpha virt. eigenvalues --    0.34523   0.39329   0.41070   0.41624   0.43400

 Mulliken charges:
               1
     1  C    0.080664
     2  O   -0.484543
     3  H    0.041173
     4  H    0.039259
     5  H    0.067958
     6  H    0.255489
 Sum of Mulliken charges =   0.00000

 Dipole moment (field-independent basis, Debye):
    X=              0.8301    Y=              1.5959    Z=              0.0864  Tot=              1.8010
 Quadrupole moment (field-independent basis, Debye-Ang):
   XX=            -12.8580   YY=            -12.0354   ZZ=            -13.8973
   XY=             -2.5379   XZ=             -0.1046   YZ=              0.0466

 Normal termination of Gaussian 09 at Wed Aug 26 10:44:48 2020.
