 Gaussian 09, Revision D.01,
 Gaussian 09:  ES64L-G09RevD.01 24-Apr-2013

 --------------------
 #p B2PLYPD3/Def2QZVP
 --------------------

 --------
 methanol
 --------
 Symbolic Z-matrix:
 Charge =  0 Multiplicity = 1

                         Standard orientation:
 ---------------------------------------------------------------------
 Center     Atomic      Atomic             Coordinates (Angstroms)
 Number     Number       Type             X           Y           Z
 ---------------------------------------------------------------------
      1          6           0        0.664936    0.011816   -0.010436
      2          8           0       -0.751234   -0.131609    0.004639
      3          1           0        1.017172    0.537925    0.903977
      4          1           0        1.054198    0.487214   -0.869838
      5          1           0        1.029059   -0.922375    0.027344
      6          1           0       -1.080169    0.879212   -0.035974
 ---------------------------------------------------------------------

 SCF Done:  E(RB2PLYPD3) =  -115.535389954     A.U. after   11 cycles
 E2(B2PLYPD3) =    -0.1491933036D+00 E(B2PLYPD3) =    -0.11568458325751D+03

 The electronic state is 1-A.
 Alpha  occ. eigenvalues --  -19.73508 -10.64319  -1.14528  -0.78846  -0.57450
 Alpha  occ. eigenvalues --   -0.51822  -0.49822  -0.41656  -0.35241
 Alpha virt. eigenvalues --    0.04129   0.08027   0.12321   0.12716   0.14802
 Alpha virt. eigenvalues --    0.17350   0.18344   0.28898   0.31147   0.33244
 Alpha virt. eigenvalues --    0.34196   0.38379   0.40858   0.41321   0.44003

 Mulliken charges:
               1
     1  C    0.072618
     2  O   -0.475855
     3  H    0.040931
     4  H    0.047388
     5  H    0.070408
     6  H    0.244510
 Sum of Mulliken charges =   0.00000

 Dipole moment (field-independent basis, Debye):
    X=              1.0195    Y=              1.5416    Z=             -0.1108  Tot=              1.8515
 Quadrupole moment (field-independent basis, Debye-Ang):
   XX=            -13.3714   YY=            -11.9162   ZZ=            -13.7722
   XY=             -2.2603   XZ=             -0.0137   YZ=             -0.1092

 Normal termination of Gaussian 09 at Wed Aug 26 15:20:45 2020.
