 Gaussian 09, Revision D.01,
 Gaussian 09:  ES64L-G09RevD.01 24-Apr-2013

 --------------------
 #p B2PLYPD3/Def2QZVP
 --------------------

 --------
 methanol
 --------
 Symbolic Z-matrix:
 Charge =  0 Multiplicity = 1

                         Standard orientation:
 ---------------------------------------------------------------------
 Center     Atomic      Atomic             Coordinates (Angstroms)
 Number     Number       Type             X           Y           Z
 ---------------------------------------------------------------------
      1          6           0        0.662001   -0.009676   -0.005810
      2          8           0       -0.758096    0.079189   -0.008002
      3          1           0        0.982566   -0.873167   -0.732784
      4          1           0        1.110173   -0.193280    1.083712
      5          1           0        1.054641    0.999888   -0.367129
      6          1           0       -1.054616   -0.508895    0.115077
 ---------------------------------------------------------------------

 SCF Done:  E(RB2PLYPD3) =  -115.374778009     A.U. after   11 cycles
 E2(B2PLYPD3) =    -0.1438556342D+00 E(B2PLYPD3) =    -0.11551863364289D+03

 The electronic state is 1-A.
 Alpha  occ. eigenvalues --  -19.69647 -10.68817  -1.25743  -0.81289  -0.61600
 Alpha  occ. eigenvalues --   -0.51268  -0.50398  -0.41402  -0.36072
 Alpha virt. eigenvalues --    0.05305   0.09187   0.11620   0.11991   0.14432
 Alpha virt. eigenvalues --    0.16902   0.17784   0.28478   0.32306   0.32838
 Alpha virt. eigenvalues --    0.35999   0.38040   0.38501   0.40699   0.42832

 Mulliken charges:
               1
     1  C    0.050429
     2  O   -0.225794
     3  H    0.046790
     4  H    0.047989
     5  H    0.083370
     6  H   -0.002783
 Sum of Mulliken charges =   0.00000

 Dipole moment (field-independent basis, Debye):
    X=              0.9721    Y=             -1.1502    Z=              0.1957  Tot=              1.5187
 Quadrupole moment (field-independent basis, Debye-Ang):
   XX=            -13.2726   YY=            -12.5168   ZZ=            -13.5405
   XY=              1.8877   XZ=             -0.3492   YZ=             -0.1736

 Normal termination of Gaussian 09 at Wed Aug 26 16:22:00 2020.
