 Gaussian 09, Revision D.01,
 Gaussian 09:  ES64L-G09RevD.01 24-Apr-2013

 --------------------
 #p B2PLYPD3/Def2QZVP
 --------------------

 --------
 methanol
 --------
 Symbolic Z-matrix:
 Charge =  0 Multiplicity = 1

                         Standard orientation:
 ---------------------------------------------------------------------
 Center     Atomic      Atomic             Coordinates (Angstroms)
 Number     Number       Type             X           Y           Z
 ---------------------------------------------------------------------
      1          6           0       -0.687264   -0.022166    0.004956
      2          8           0        0.738229   -0.014123    0.039488
      3          1           0       -0.972476   -0.696152   -0.930949
      4          1           0       -1.047596    1.227302   -0.121236
      5          1           0       -0.916466   -0.449061    0.995126
      6          1           0        1.154291    0.163892   -0.288580
 ---------------------------------------------------------------------

 SCF Done:  E(RB2PLYPD3) =  -115.045872328     A.U. after   11 cycles
 E2(B2PLYPD3) =    -0.1436034848D+00 E(B2PLYPD3) =    -0.11518947581280D+03

 The electronic state is 1-A.
 Alpha  occ. eigenvalues --  -19.67245 -10.70729  -1.28905  -0.85652  -0.60712
 Alpha  occ. eigenvalues --   -0.52400  -0.50271  -0.38841  -0.35505
 Alpha virt. eigenvalues --    0.04843   0.09793   0.10775   0.11942   0.13459
 Alpha virt. eigenvalues --    0.16213   0.17349   0.28697   0.30278   0.31606
 Alpha virt. eigenvalues --    0.34178   0.37248   0.39195   0.41279   0.42391

 Mulliken charges:
               1
     1  C    0.053087
     2  O   -0.120805
     3  H    0.063004
     4  H    0.038509
     5  H    0.110634
     6  H   -0.144428
 Sum of Mulliken charges =   0.00000

 Dipole moment (field-independent basis, Debye):
    X=             -0.8234    Y=              0.2655    Z=             -0.7503  Tot=              1.1452
 Quadrupole moment (field-independent basis, Debye-Ang):
   XX=            -13.0188   YY=            -13.1799   ZZ=            -12.7305
   XY=              0.8721   XZ=             -1.4429   YZ=             -0.2318

 Normal termination of Gaussian 09 at Wed Aug 26 21:01:43 2020.
