 Gaussian 09, Revision D.01,
 Gaussian 09:  ES64L-G09RevD.01 24-Apr-2013

 --------------------
 #p B2PLYPD3/Def2QZVP
 --------------------

 --------
 methanol
 --------
 Symbolic Z-matrix:
 Charge =  0 Multiplicity = 1

                         Standard orientation:
 ---------------------------------------------------------------------
 Center     Atomic      Atomic             Coordinates (Angstroms)
 Number     Number       Type             X           Y           Z
 ---------------------------------------------------------------------
      1          6           0       -0.663672   -0.037063   -0.002028
      2          8           0        0.736631    0.143272   -0.001371
      3          1           0       -0.982511   -0.487435    0.881961
      4          1           0       -0.987864   -0.572812   -0.826033
      5          1           0       -1.117941    0.957330   -0.038838
      6          1           0        1.177301   -0.820883    0.006045
 ---------------------------------------------------------------------

 SCF Done:  E(RB2PLYPD3) =  -115.539907370     A.U. after   11 cycles
 E2(B2PLYPD3) =    -0.1485613461D+00 E(B2PLYPD3) =    -0.11568846871592D+03

 The electronic state is 1-A.
 Alpha  occ. eigenvalues --  -19.73103 -10.64196  -1.14561  -0.78679  -0.57528
 Alpha  occ. eigenvalues --   -0.53041  -0.49451  -0.40489  -0.35281
 Alpha virt. eigenvalues --    0.04235   0.08001   0.12516   0.12637   0.14860
 Alpha virt. eigenvalues --    0.17448   0.18150   0.29126   0.31386   0.33426
 Alpha virt. eigenvalues --    0.34257   0.38857   0.40111   0.42631   0.44270

 Mulliken charges:
               1
     1  C    0.080444
     2  O   -0.484189
     3  H    0.048910
     4  H    0.047740
     5  H    0.062119
     6  H    0.244976
 Sum of Mulliken charges =   0.00000

 Dipole moment (field-independent basis, Debye):
    X=             -0.8522    Y=             -1.6319    Z=              0.0080  Tot=              1.8410
 Quadrupole moment (field-independent basis, Debye-Ang):
   XX=            -12.9126   YY=            -12.1223   ZZ=            -13.7572
   XY=             -2.3679   XZ=              0.0358   YZ=              0.0132

 Normal termination of Gaussian 09 at Wed Aug 26 23:58:12 2020.
