 Gaussian 09, Revision D.01,
 Gaussian 09:  ES64L-G09RevD.01 24-Apr-2013

 --------------------
 #p B2PLYPD3/Def2QZVP
 --------------------

 --------
 methanol
 --------
 Symbolic Z-matrix:
 Charge =  0 Multiplicity = 1

                         Standard orientation:
 ---------------------------------------------------------------------
 Center     Atomic      Atomic             Coordinates (Angstroms)
 Number     Number       Type             X           Y           Z
 ---------------------------------------------------------------------
      1          6           0       -0.690742   -0.029667    0.013491
      2          8           0        0.747269    0.070621   -0.004080
      3          1           0       -1.016497   -0.503731    0.985274
      4          1           0       -1.011636   -0.624308   -0.964877
      5          1           0       -1.044625    1.141569   -0.083574
      6          1           0        1.239060   -0.400497    0.014869
 ---------------------------------------------------------------------

 SCF Done:  E(RB2PLYPD3) =  -115.375021691     A.U. after   11 cycles
 E2(B2PLYPD3) =    -0.1444193975D+00 E(B2PLYPD3) =    -0.11551944108830D+03

 The electronic state is 1-A.
 Alpha  occ. eigenvalues --  -19.68381 -10.69919  -1.22808  -0.82322  -0.60809
 Alpha  occ. eigenvalues --   -0.51547  -0.49154  -0.38396  -0.35914
 Alpha virt. eigenvalues --    0.05162   0.09231   0.11403   0.11719   0.13988
 Alpha virt. eigenvalues --    0.16418   0.17710   0.28973   0.30984   0.32827
 Alpha virt. eigenvalues --    0.35125   0.37045   0.39344   0.40339   0.42169

 Mulliken charges:
               1
     1  C    0.056574
     2  O   -0.250819
     3  H    0.070197
     4  H    0.057538
     5  H    0.082770
     6  H   -0.016260
 Sum of Mulliken charges =   0.00000

 Dipole moment (field-independent basis, Debye):
    X=             -0.7975    Y=             -1.0934    Z=              0.0952  Tot=              1.3567
 Quadrupole moment (field-independent basis, Debye-Ang):
   XX=            -12.5633   YY=            -12.8613   ZZ=            -13.4055
   XY=             -1.7618   XZ=              0.0021   YZ=             -0.0937

 Normal termination of Gaussian 09 at Wed Aug 26 23:21:14 2020.
