 Gaussian 09, Revision D.01,
 Gaussian 09:  ES64L-G09RevD.01 24-Apr-2013

 --------------------
 #p B2PLYPD3/Def2QZVP
 --------------------

 --------
 methanol
 --------
 Symbolic Z-matrix:
 Charge =  0 Multiplicity = 1

                         Standard orientation:
 ---------------------------------------------------------------------
 Center     Atomic      Atomic             Coordinates (Angstroms)
 Number     Number       Type             X           Y           Z
 ---------------------------------------------------------------------
      1          6           0        0.664485    0.020493   -0.001631
      2          8           0       -0.742146   -0.143851    0.003541
      3          1           0        1.012554    0.553204    0.839627
      4          1           0        1.027383    0.512421   -0.837690
      5          1           0        1.049111   -0.944008    0.006703
      6          1           0       -1.138788    0.906229   -0.027181
 ---------------------------------------------------------------------

 SCF Done:  E(RB2PLYPD3) =  -115.527094954     A.U. after   11 cycles
 E2(B2PLYPD3) =    -0.1499356458D+00 E(B2PLYPD3) =    -0.11567703059990D+03

 The electronic state is 1-A.
 Alpha  occ. eigenvalues --  -19.73752 -10.63709  -1.13810  -0.78750  -0.57218
 Alpha  occ. eigenvalues --   -0.52201  -0.49374  -0.41197  -0.35124
 Alpha virt. eigenvalues --    0.03477   0.07916   0.12526   0.12697   0.15044
 Alpha virt. eigenvalues --    0.17312   0.18150   0.28480   0.29911   0.33471
 Alpha virt. eigenvalues --    0.34390   0.39119   0.39912   0.42092   0.44324

 Mulliken charges:
               1
     1  C    0.083490
     2  O   -0.485532
     3  H    0.042938
     4  H    0.043417
     5  H    0.066906
     6  H    0.248782
 Sum of Mulliken charges =   0.00000

 Dipole moment (field-independent basis, Debye):
    X=              0.9522    Y=              1.6439    Z=             -0.0669  Tot=              1.9010
 Quadrupole moment (field-independent basis, Debye-Ang):
   XX=            -13.1592   YY=            -11.7944   ZZ=            -13.8911
   XY=             -2.2980   XZ=              0.0235   YZ=             -0.0417

 Normal termination of Gaussian 09 at Thu Aug 27 00:14:25 2020.
