 Gaussian 09, Revision D.01,
 Gaussian 09:  ES64L-G09RevD.01 24-Apr-2013

 --------------------
 #p B2PLYPD3/Def2QZVP
 --------------------

 --------
 methanol
 --------
 Symbolic Z-matrix:
 Charge =  0 Multiplicity = 1

                         Standard orientation:
 ---------------------------------------------------------------------
 Center     Atomic      Atomic             Coordinates (Angstroms)
 Number     Number       Type             X           Y           Z
 ---------------------------------------------------------------------
      1          6           0       -0.673620   -0.005344    0.018390
      2          8           0        0.756911   -0.063813   -0.047605
      3          1           0       -1.004752    1.127393   -0.388329
      4          1           0       -1.025491   -0.228614    1.064295
      5          1           0       -1.066141   -0.767271   -0.699355
      6          1           0        1.082814    0.411057    0.293889
 ---------------------------------------------------------------------

 SCF Done:  E(RB2PLYPD3) =  -115.370626429     A.U. after   11 cycles
 E2(B2PLYPD3) =    -0.1438484791D+00 E(B2PLYPD3) =    -0.11551447490777D+03

 The electronic state is 1-A.
 Alpha  occ. eigenvalues --  -19.69259 -10.68807  -1.25084  -0.81690  -0.61228
 Alpha  occ. eigenvalues --   -0.51477  -0.50612  -0.40838  -0.36021
 Alpha virt. eigenvalues --    0.05270   0.09282   0.11324   0.12175   0.14086
 Alpha virt. eigenvalues --    0.16910   0.17755   0.28494   0.31612   0.32592
 Alpha virt. eigenvalues --    0.35286   0.38655   0.39574   0.40687   0.42836

 Mulliken charges:
               1
     1  C    0.053745
     2  O   -0.233117
     3  H    0.035640
     4  H    0.062957
     5  H    0.088558
     6  H   -0.007784
 Sum of Mulliken charges =   0.00000

 Dipole moment (field-independent basis, Debye):
    X=             -0.9873    Y=              0.8372    Z=              0.7324  Tot=              1.4873
 Quadrupole moment (field-independent basis, Debye-Ang):
   XX=            -13.2085   YY=            -12.9277   ZZ=            -13.0897
   XY=              1.7299   XZ=              1.0772   YZ=              0.4075

 Normal termination of Gaussian 09 at Wed Aug 26 12:26:30 2020.
