 Gaussian 09, Revision D.01,
 Gaussian 09:  ES64L-G09RevD.01 24-Apr-2013

 --------------------
 #p B2PLYPD3/Def2QZVP
 --------------------

 --------
 methanol
 --------
 Symbolic Z-matrix:
 Charge =  0 Multiplicity = 1

                         Standard orientation:
 ---------------------------------------------------------------------
 Center     Atomic      Atomic             Coordinates (Angstroms)
 Number     Number       Type             X           Y           Z
 ---------------------------------------------------------------------
      1          6           0        0.684766   -0.000659   -0.005382
      2          8           0       -0.763495    0.105750   -0.016184
      3          1           0        1.075901   -0.746174   -0.772826
      4          1           0        1.038812   -0.355853    0.976296
      5          1           0        1.011847    0.988359   -0.143269
      6          1           0       -1.127196   -0.728381    0.101559
 ---------------------------------------------------------------------

 SCF Done:  E(RB2PLYPD3) =  -115.547673681     A.U. after   10 cycles
 E2(B2PLYPD3) =    -0.1470985625D+00 E(B2PLYPD3) =    -0.11569477224324D+03

 The electronic state is 1-A.
 Alpha  occ. eigenvalues --  -19.72069 -10.66218  -1.16072  -0.79123  -0.58783
 Alpha  occ. eigenvalues --   -0.50655  -0.49879  -0.41934  -0.35323
 Alpha virt. eigenvalues --    0.05118   0.08295   0.12088   0.12436   0.14871
 Alpha virt. eigenvalues --    0.16865   0.17982   0.29068   0.32231   0.33255
 Alpha virt. eigenvalues --    0.36515   0.38603   0.39497   0.40160   0.43524

 Mulliken charges:
               1
     1  C    0.071851
     2  O   -0.453715
     3  H    0.045424
     4  H    0.049557
     5  H    0.082076
     6  H    0.204809
 Sum of Mulliken charges =   0.00000

 Dipole moment (field-independent basis, Debye):
    X=              1.0071    Y=             -1.4160    Z=              0.2380  Tot=              1.7539
 Quadrupole moment (field-independent basis, Debye-Ang):
   XX=            -13.1371   YY=            -12.0755   ZZ=            -13.8488
   XY=              2.1342   XZ=             -0.2774   YZ=             -0.1501

 Normal termination of Gaussian 09 at Wed Aug 26 14:08:41 2020.
