 Gaussian 09, Revision D.01,
 Gaussian 09:  ES64L-G09RevD.01 24-Apr-2013

 --------------------
 #p B2PLYPD3/Def2QZVP
 --------------------

 --------
 methanol
 --------
 Symbolic Z-matrix:
 Charge =  0 Multiplicity = 1

                         Standard orientation:
 ---------------------------------------------------------------------
 Center     Atomic      Atomic             Coordinates (Angstroms)
 Number     Number       Type             X           Y           Z
 ---------------------------------------------------------------------
      1          6           0       -0.672319    0.016315    0.012030
      2          8           0        0.745913   -0.135961   -0.019533
      3          1           0       -1.031752    0.637267   -0.844868
      4          1           0       -0.979521    0.433749    0.892062
      5          1           0       -1.077262   -0.919778   -0.055801
      6          1           0        1.155148    0.838560    0.092691
 ---------------------------------------------------------------------

 SCF Done:  E(RB2PLYPD3) =  -115.536485437     A.U. after   11 cycles
 E2(B2PLYPD3) =    -0.1488740872D+00 E(B2PLYPD3) =    -0.11568535952420D+03

 The electronic state is 1-A.
 Alpha  occ. eigenvalues --  -19.73179 -10.64239  -1.14086  -0.78994  -0.57325
 Alpha  occ. eigenvalues --   -0.51935  -0.50068  -0.41130  -0.35111
 Alpha virt. eigenvalues --    0.04186   0.08001   0.12423   0.12709   0.14803
 Alpha virt. eigenvalues --    0.17365   0.18140   0.29113   0.31378   0.33234
 Alpha virt. eigenvalues --    0.33665   0.38954   0.40712   0.41286   0.44300

 Mulliken charges:
               1
     1  C    0.081111
     2  O   -0.487578
     3  H    0.041118
     4  H    0.048585
     5  H    0.071119
     6  H    0.245646
 Sum of Mulliken charges =   0.00000

 Dipole moment (field-independent basis, Debye):
    X=             -0.9374    Y=              1.5466    Z=              0.2693  Tot=              1.8284
 Quadrupole moment (field-independent basis, Debye-Ang):
   XX=            -13.0360   YY=            -12.0310   ZZ=            -13.7635
   XY=              2.4018   XZ=              0.1844   YZ=              0.1791

 Normal termination of Gaussian 09 at Thu Aug 27 00:15:22 2020.
