 Gaussian 09, Revision D.01,
 Gaussian 09:  ES64L-G09RevD.01 24-Apr-2013

 --------------------
 #p B2PLYPD3/Def2QZVP
 --------------------

 --------
 methanol
 --------
 Symbolic Z-matrix:
 Charge =  0 Multiplicity = 1

                         Standard orientation:
 ---------------------------------------------------------------------
 Center     Atomic      Atomic             Coordinates (Angstroms)
 Number     Number       Type             X           Y           Z
 ---------------------------------------------------------------------
      1          6           0       -0.673685   -0.003811    0.019975
      2          8           0        0.745774    0.091717   -0.017352
      3          1           0       -0.999424   -0.387860    0.985406
      4          1           0       -1.031186   -0.717188   -0.872051
      5          1           0       -1.001300    1.008227   -0.177528
      6          1           0        1.107830   -0.614047    0.083134
 ---------------------------------------------------------------------

 SCF Done:  E(RB2PLYPD3) =  -115.512806671     A.U. after   10 cycles
 E2(B2PLYPD3) =    -0.1449257306D+00 E(B2PLYPD3) =    -0.11565773240170D+03

 The electronic state is 1-A.
 Alpha  occ. eigenvalues --  -19.70615 -10.66997  -1.20100  -0.80229  -0.60344
 Alpha  occ. eigenvalues --   -0.51633  -0.50378  -0.41260  -0.35461
 Alpha virt. eigenvalues --    0.05380   0.08940   0.11871   0.12279   0.14612
 Alpha virt. eigenvalues --    0.16812   0.17809   0.28983   0.32609   0.32986
 Alpha virt. eigenvalues --    0.36702   0.39691   0.40151   0.40504   0.43112

 Mulliken charges:
               1
     1  C    0.062878
     2  O   -0.358179
     3  H    0.057760
     4  H    0.036279
     5  H    0.083200
     6  H    0.118063
 Sum of Mulliken charges =   0.00000

 Dipole moment (field-independent basis, Debye):
    X=             -0.8867    Y=             -1.2570    Z=              0.2821  Tot=              1.5639
 Quadrupole moment (field-independent basis, Debye-Ang):
   XX=            -13.2228   YY=            -12.3880   ZZ=            -13.5439
   XY=             -2.0734   XZ=              0.1915   YZ=             -0.2573

 Normal termination of Gaussian 09 at Wed Aug 26 16:16:27 2020.
