 Gaussian 09, Revision D.01,
 Gaussian 09:  ES64L-G09RevD.01 24-Apr-2013

 --------------------
 #p B2PLYPD3/Def2QZVP
 --------------------

 --------
 methanol
 --------
 Symbolic Z-matrix:
 Charge =  0 Multiplicity = 1

                         Standard orientation:
 ---------------------------------------------------------------------
 Center     Atomic      Atomic             Coordinates (Angstroms)
 Number     Number       Type             X           Y           Z
 ---------------------------------------------------------------------
      1          6           0        0.668540   -0.019016    0.005487
      2          8           0       -0.753102    0.105530   -0.011670
      3          1           0        0.989133   -0.687408   -0.857474
      4          1           0        1.049965   -0.377885    0.970063
      5          1           0        1.063999    1.000192   -0.148367
      6          1           0       -1.089516   -0.665042    0.096218
 ---------------------------------------------------------------------

 SCF Done:  E(RB2PLYPD3) =  -115.537274305     A.U. after   10 cycles
 E2(B2PLYPD3) =    -0.1456986652D+00 E(B2PLYPD3) =    -0.11568297297001D+03

 The electronic state is 1-A.
 Alpha  occ. eigenvalues --  -19.71432 -10.66588  -1.18809  -0.79337  -0.59809
 Alpha  occ. eigenvalues --   -0.51903  -0.49881  -0.41324  -0.35735
 Alpha virt. eigenvalues --    0.05333   0.08700   0.12043   0.12331   0.14585
 Alpha virt. eigenvalues --    0.17158   0.18047   0.28942   0.32670   0.33382
 Alpha virt. eigenvalues --    0.37229   0.38758   0.39895   0.40635   0.43402

 Mulliken charges:
               1
     1  C    0.063790
     2  O   -0.400078
     3  H    0.047400
     4  H    0.054055
     5  H    0.072821
     6  H    0.162012
 Sum of Mulliken charges =   0.00000

 Dipole moment (field-independent basis, Debye):
    X=              0.9556    Y=             -1.3698    Z=              0.2257  Tot=              1.6854
 Quadrupole moment (field-independent basis, Debye-Ang):
   XX=            -13.2231   YY=            -12.3713   ZZ=            -13.5911
   XY=              2.1105   XZ=             -0.1856   YZ=             -0.1487

 Normal termination of Gaussian 09 at Wed Aug 26 22:41:32 2020.
