 Gaussian 09, Revision D.01,
 Gaussian 09:  ES64L-G09RevD.01 24-Apr-2013

 --------------------
 #p B2PLYPD3/Def2QZVP
 --------------------

 --------
 methanol
 --------
 Symbolic Z-matrix:
 Charge =  0 Multiplicity = 1

                         Standard orientation:
 ---------------------------------------------------------------------
 Center     Atomic      Atomic             Coordinates (Angstroms)
 Number     Number       Type             X           Y           Z
 ---------------------------------------------------------------------
      1          6           0        0.663387   -0.015959    0.002577
      2          8           0       -0.749527    0.099213   -0.012672
      3          1           0        1.061499   -0.692474   -0.834012
      4          1           0        1.031162   -0.432264    0.960302
      5          1           0        1.077828    1.044598   -0.106514
      6          1           0       -1.154599   -0.617809    0.066136
 ---------------------------------------------------------------------

 SCF Done:  E(RB2PLYPD3) =  -115.527731942     A.U. after   10 cycles
 E2(B2PLYPD3) =    -0.1454065848D+00 E(B2PLYPD3) =    -0.11567313852670D+03

 The electronic state is 1-A.
 Alpha  occ. eigenvalues --  -19.71262 -10.67299  -1.19382  -0.79621  -0.60635
 Alpha  occ. eigenvalues --   -0.51177  -0.49923  -0.40775  -0.35586
 Alpha virt. eigenvalues --    0.05359   0.08637   0.12029   0.12272   0.14873
 Alpha virt. eigenvalues --    0.17012   0.17917   0.29055   0.33124   0.33326
 Alpha virt. eigenvalues --    0.37177   0.38591   0.39442   0.40046   0.42408

 Mulliken charges:
               1
     1  C    0.062847
     2  O   -0.381837
     3  H    0.045363
     4  H    0.051486
     5  H    0.074550
     6  H    0.147591
 Sum of Mulliken charges =   0.00000

 Dipole moment (field-independent basis, Debye):
    X=              0.8059    Y=             -1.3507    Z=              0.1912  Tot=              1.5845
 Quadrupole moment (field-independent basis, Debye-Ang):
   XX=            -12.8765   YY=            -12.4447   ZZ=            -13.7921
   XY=              2.0830   XZ=             -0.1949   YZ=             -0.1038

 Normal termination of Gaussian 09 at Wed Aug 26 22:37:58 2020.
