 Gaussian 09, Revision D.01,
 Gaussian 09:  ES64L-G09RevD.01 24-Apr-2013

 --------------------
 #p B2PLYPD3/Def2QZVP
 --------------------

 --------
 methanol
 --------
 Symbolic Z-matrix:
 Charge =  0 Multiplicity = 1

                         Standard orientation:
 ---------------------------------------------------------------------
 Center     Atomic      Atomic             Coordinates (Angstroms)
 Number     Number       Type             X           Y           Z
 ---------------------------------------------------------------------
      1          6           0        0.655549    0.034896    0.004014
      2          8           0       -0.715703   -0.201924   -0.005013
      3          1           0        1.134453    0.424963    0.752096
      4          1           0        0.887483    0.711591   -0.724308
      5          1           0        1.156232   -0.799978   -0.106688
      6          1           0       -1.385837    1.069436    0.094920
 ---------------------------------------------------------------------

 SCF Done:  E(RB2PLYPD3) =  -115.425261388     A.U. after   12 cycles
 E2(B2PLYPD3) =    -0.1558592107D+00 E(B2PLYPD3) =    -0.11558112059888D+03

 The electronic state is 1-A.
 Alpha  occ. eigenvalues --  -19.75372 -10.61591  -1.12449  -0.80279  -0.55163
 Alpha  occ. eigenvalues --   -0.52709  -0.49508  -0.38879  -0.34503
 Alpha virt. eigenvalues --   -0.02396   0.07364   0.12749   0.13280   0.14886
 Alpha virt. eigenvalues --    0.17683   0.18555   0.21579   0.29822   0.32741
 Alpha virt. eigenvalues --    0.35410   0.38746   0.39505   0.43316   0.45113

 Mulliken charges:
               1
     1  C    0.104003
     2  O   -0.474894
     3  H    0.035937
     4  H    0.033782
     5  H    0.060909
     6  H    0.240263
 Sum of Mulliken charges =   0.00000

 Dipole moment (field-independent basis, Debye):
    X=              0.7841    Y=              1.7402    Z=              0.1741  Tot=              1.9166
 Quadrupole moment (field-independent basis, Debye-Ang):
   XX=            -12.1186   YY=            -11.6768   ZZ=            -14.2599
   XY=             -2.8063   XZ=              0.0230   YZ=              0.1021

 Normal termination of Gaussian 09 at Wed Aug 26 23:55:43 2020.
