 Gaussian 09, Revision D.01,
 Gaussian 09:  ES64L-G09RevD.01 24-Apr-2013

 --------------------
 #p B2PLYPD3/Def2QZVP
 --------------------

 --------
 methanol
 --------
 Symbolic Z-matrix:
 Charge =  0 Multiplicity = 1

                         Standard orientation:
 ---------------------------------------------------------------------
 Center     Atomic      Atomic             Coordinates (Angstroms)
 Number     Number       Type             X           Y           Z
 ---------------------------------------------------------------------
      1          6           0        0.667194    0.024733   -0.028543
      2          8           0       -0.746791   -0.195966    0.032742
      3          1           0        1.174857    0.606096    0.721971
      4          1           0        0.852005    0.419014   -0.713998
      5          1           0        1.083293   -0.850406   -0.019065
      6          1           0       -1.138987    1.244629   -0.079586
 ---------------------------------------------------------------------

 SCF Done:  E(RB2PLYPD3) =  -115.343834367     A.U. after   13 cycles
 E2(B2PLYPD3) =    -0.1583446564D+00 E(B2PLYPD3) =    -0.11550217902365D+03

 The electronic state is 1-A.
 Alpha  occ. eigenvalues --  -19.76067 -10.60731  -1.11528  -0.82251  -0.57134
 Alpha  occ. eigenvalues --   -0.52091  -0.48547  -0.39352  -0.35486
 Alpha virt. eigenvalues --   -0.03390   0.07316   0.12318   0.13122   0.14732
 Alpha virt. eigenvalues --    0.17634   0.18385   0.21181   0.29579   0.32171
 Alpha virt. eigenvalues --    0.34312   0.38321   0.39806   0.41463   0.45765

 Mulliken charges:
               1
     1  C   -0.003799
     2  O   -0.467965
     3  H    0.041403
     4  H    0.153343
     5  H    0.059866
     6  H    0.217152
 Sum of Mulliken charges =   0.00000

 Dipole moment (field-independent basis, Debye):
    X=              1.2866    Y=              1.7450    Z=             -0.3278  Tot=              2.1927
 Quadrupole moment (field-independent basis, Debye-Ang):
   XX=            -13.3785   YY=            -10.9883   ZZ=            -14.0710
   XY=             -2.2434   XZ=              0.1283   YZ=             -0.2424

 Normal termination of Gaussian 09 at Wed Aug 26 23:31:44 2020.
