 Gaussian 09, Revision D.01,
 Gaussian 09:  ES64L-G09RevD.01 24-Apr-2013

 --------------------
 #p B2PLYPD3/Def2QZVP
 --------------------

 --------
 methanol
 --------
 Symbolic Z-matrix:
 Charge =  0 Multiplicity = 1

                         Standard orientation:
 ---------------------------------------------------------------------
 Center     Atomic      Atomic             Coordinates (Angstroms)
 Number     Number       Type             X           Y           Z
 ---------------------------------------------------------------------
      1          6           0       -0.663369    0.003984    0.015485
      2          8           0        0.749429   -0.135853   -0.011919
      3          1           0       -1.031147    0.635418   -0.862094
      4          1           0       -1.015670    0.468739    0.891692
      5          1           0       -1.111809   -0.890736   -0.080201
      6          1           0        1.143410    0.849497    0.053040
 ---------------------------------------------------------------------

 SCF Done:  E(RB2PLYPD3) =  -115.535283341     A.U. after   11 cycles
 E2(B2PLYPD3) =    -0.1489817023D+00 E(B2PLYPD3) =    -0.11568426504354D+03

 The electronic state is 1-A.
 Alpha  occ. eigenvalues --  -19.73483 -10.64678  -1.14447  -0.78838  -0.57329
 Alpha  occ. eigenvalues --   -0.51350  -0.50663  -0.41171  -0.34940
 Alpha virt. eigenvalues --    0.04078   0.07899   0.12377   0.12800   0.14773
 Alpha virt. eigenvalues --    0.17733   0.18119   0.29119   0.31048   0.33118
 Alpha virt. eigenvalues --    0.33795   0.38371   0.40849   0.41385   0.43693

 Mulliken charges:
               1
     1  C    0.078909
     2  O   -0.479838
     3  H    0.031505
     4  H    0.046349
     5  H    0.073380
     6  H    0.249693
 Sum of Mulliken charges =   0.00000

 Dipole moment (field-independent basis, Debye):
    X=             -0.9061    Y=              1.5284    Z=              0.1823  Tot=              1.7861
 Quadrupole moment (field-independent basis, Debye-Ang):
   XX=            -13.0259   YY=            -12.0537   ZZ=            -13.8978
   XY=              2.4755   XZ=              0.0707   YZ=              0.1790

 Normal termination of Gaussian 09 at Wed Aug 26 12:59:07 2020.
