 Gaussian 09, Revision D.01,
 Gaussian 09:  ES64L-G09RevD.01 24-Apr-2013

 --------------------
 #p B2PLYPD3/Def2QZVP
 --------------------

 --------
 methanol
 --------
 Symbolic Z-matrix:
 Charge =  0 Multiplicity = 1

                         Standard orientation:
 ---------------------------------------------------------------------
 Center     Atomic      Atomic             Coordinates (Angstroms)
 Number     Number       Type             X           Y           Z
 ---------------------------------------------------------------------
      1          6           0        0.656557   -0.023736    0.003011
      2          8           0       -0.747763    0.104313   -0.006863
      3          1           0        1.010463   -0.692517   -0.838127
      4          1           0        1.052381   -0.423945    0.952088
      5          1           0        1.114095    1.042910   -0.131412
      6          1           0       -1.134177   -0.618534    0.054286
 ---------------------------------------------------------------------

 SCF Done:  E(RB2PLYPD3) =  -115.525153836     A.U. after   10 cycles
 E2(B2PLYPD3) =    -0.1452735116D+00 E(B2PLYPD3) =    -0.11567042734758D+03

 The electronic state is 1-A.
 Alpha  occ. eigenvalues --  -19.71323 -10.67258  -1.19946  -0.79549  -0.60890
 Alpha  occ. eigenvalues --   -0.51691  -0.49775  -0.40625  -0.35733
 Alpha virt. eigenvalues --    0.05343   0.08684   0.12008   0.12277   0.14807
 Alpha virt. eigenvalues --    0.17189   0.17948   0.28980   0.33092   0.33619
 Alpha virt. eigenvalues --    0.36631   0.38541   0.39677   0.40382   0.42654

 Mulliken charges:
               1
     1  C    0.061437
     2  O   -0.371602
     3  H    0.046182
     4  H    0.052926
     5  H    0.068257
     6  H    0.142800
 Sum of Mulliken charges =   0.00000

 Dipole moment (field-independent basis, Debye):
    X=              0.8055    Y=             -1.3868    Z=              0.1430  Tot=              1.6101
 Quadrupole moment (field-independent basis, Debye-Ang):
   XX=            -12.9372   YY=            -12.4906   ZZ=            -13.7558
   XY=              2.0819   XZ=             -0.1080   YZ=             -0.0773

 Normal termination of Gaussian 09 at Wed Aug 26 23:58:17 2020.
