 Gaussian 09, Revision D.01,
 Gaussian 09:  ES64L-G09RevD.01 24-Apr-2013

 --------------------
 #p B2PLYPD3/Def2QZVP
 --------------------

 --------
 methanol
 --------
 Symbolic Z-matrix:
 Charge =  0 Multiplicity = 1

                         Standard orientation:
 ---------------------------------------------------------------------
 Center     Atomic      Atomic             Coordinates (Angstroms)
 Number     Number       Type             X           Y           Z
 ---------------------------------------------------------------------
      1          6           0        0.666958   -0.015683    0.007026
      2          8           0       -0.750332    0.107504   -0.017108
      3          1           0        0.966043   -0.787685   -0.794150
      4          1           0        1.047962   -0.306852    0.987732
      5          1           0        1.102918    0.972228   -0.229427
      6          1           0       -1.116010   -0.643621    0.130548
 ---------------------------------------------------------------------

 SCF Done:  E(RB2PLYPD3) =  -115.536612009     A.U. after   11 cycles
 E2(B2PLYPD3) =    -0.1456136946D+00 E(B2PLYPD3) =    -0.11568222570380D+03

 The electronic state is 1-A.
 Alpha  occ. eigenvalues --  -19.71391 -10.66722  -1.18770  -0.79418  -0.59918
 Alpha  occ. eigenvalues --   -0.51738  -0.50231  -0.41027  -0.35555
 Alpha virt. eigenvalues --    0.05316   0.08663   0.12045   0.12396   0.14577
 Alpha virt. eigenvalues --    0.17254   0.17930   0.28996   0.32623   0.33375
 Alpha virt. eigenvalues --    0.36941   0.39104   0.39434   0.40732   0.43382

 Mulliken charges:
               1
     1  C    0.066547
     2  O   -0.401798
     3  H    0.042182
     4  H    0.053508
     5  H    0.075054
     6  H    0.164507
 Sum of Mulliken charges =   0.00000

 Dipole moment (field-independent basis, Debye):
    X=              0.9044    Y=             -1.3397    Z=              0.3150  Tot=              1.6468
 Quadrupole moment (field-independent basis, Debye-Ang):
   XX=            -13.0775   YY=            -12.4358   ZZ=            -13.6396
   XY=              2.1929   XZ=             -0.2827   YZ=             -0.2083

 Normal termination of Gaussian 09 at Thu Aug 27 00:06:31 2020.
