 Gaussian 09, Revision D.01,
 Gaussian 09:  ES64L-G09RevD.01 24-Apr-2013

 --------------------
 #p B2PLYPD3/Def2QZVP
 --------------------

 --------
 methanol
 --------
 Symbolic Z-matrix:
 Charge =  0 Multiplicity = 1

                         Standard orientation:
 ---------------------------------------------------------------------
 Center     Atomic      Atomic             Coordinates (Angstroms)
 Number     Number       Type             X           Y           Z
 ---------------------------------------------------------------------
      1          6           0       -0.683868    0.021770   -0.022521
      2          8           0        0.733038   -0.171860   -0.003087
      3          1           0       -1.115294    0.424436   -0.740800
      4          1           0       -0.852079    0.688683    0.769582
      5          1           0       -1.004967   -0.901766    0.182063
      6          1           0        1.211246    1.032909   -0.051022
 ---------------------------------------------------------------------

 SCF Done:  E(RB2PLYPD3) =  -115.456396284     A.U. after   11 cycles
 E2(B2PLYPD3) =    -0.1536235182D+00 E(B2PLYPD3) =    -0.11561001980215D+03

 The electronic state is 1-A.
 Alpha  occ. eigenvalues --  -19.74515 -10.62055  -1.11893  -0.79941  -0.57240
 Alpha  occ. eigenvalues --   -0.52626  -0.48124  -0.40462  -0.34696
 Alpha virt. eigenvalues --    0.00734   0.07730   0.12342   0.12996   0.14795
 Alpha virt. eigenvalues --    0.17032   0.18165   0.24136   0.29637   0.32219
 Alpha virt. eigenvalues --    0.34704   0.37973   0.39517   0.42953   0.46813

 Mulliken charges:
               1
     1  C    0.092356
     2  O   -0.486108
     3  H    0.049484
     4  H    0.034798
     5  H    0.069525
     6  H    0.239946
 Sum of Mulliken charges =   0.00000

 Dipole moment (field-independent basis, Debye):
    X=             -1.0287    Y=              1.7208    Z=             -0.1096  Tot=              2.0078
 Quadrupole moment (field-independent basis, Debye-Ang):
   XX=            -13.0662   YY=            -11.4123   ZZ=            -14.0277
   XY=              2.3828   XZ=              0.1885   YZ=             -0.1942

 Normal termination of Gaussian 09 at Wed Aug 26 22:11:42 2020.
