 Gaussian 09, Revision D.01,
 Gaussian 09:  ES64L-G09RevD.01 24-Apr-2013

 --------------------
 #p B2PLYPD3/Def2QZVP
 --------------------

 --------
 methanol
 --------
 Symbolic Z-matrix:
 Charge =  0 Multiplicity = 1

                         Standard orientation:
 ---------------------------------------------------------------------
 Center     Atomic      Atomic             Coordinates (Angstroms)
 Number     Number       Type             X           Y           Z
 ---------------------------------------------------------------------
      1          6           0        0.662881   -0.033725    0.008611
      2          8           0       -0.754486   -0.035324   -0.044117
      3          1           0        1.056583   -0.195610    1.071124
      4          1           0        1.076960    1.159823   -0.398977
      5          1           0        0.968139   -0.806178   -0.690842
      6          1           0       -1.043080    0.326908    0.319965
 ---------------------------------------------------------------------

 SCF Done:  E(RB2PLYPD3) =  -115.170711991     A.U. after   11 cycles
 E2(B2PLYPD3) =    -0.1433326443D+00 E(B2PLYPD3) =    -0.11531404463527D+03

 The electronic state is 1-A.
 Alpha  occ. eigenvalues --  -19.68898 -10.69533  -1.29631  -0.83600  -0.62268
 Alpha  occ. eigenvalues --   -0.52109  -0.50125  -0.41985  -0.35510
 Alpha virt. eigenvalues --    0.05066   0.09448   0.10908   0.12031   0.14474
 Alpha virt. eigenvalues --    0.16644   0.17561   0.28182   0.30734   0.32687
 Alpha virt. eigenvalues --    0.34577   0.38026   0.40097   0.41293   0.42227

 Mulliken charges:
               1
     1  C    0.046457
     2  O   -0.141802
     3  H    0.056955
     4  H    0.021615
     5  H    0.102395
     6  H   -0.085620
 Sum of Mulliken charges =   0.00000

 Dipole moment (field-independent basis, Debye):
    X=              0.9331    Y=              0.5157    Z=              0.8700  Tot=              1.3761
 Quadrupole moment (field-independent basis, Debye-Ang):
   XX=            -13.3775   YY=            -13.0538   ZZ=            -12.9213
   XY=             -1.4962   XZ=             -1.0682   YZ=              0.6018

 Normal termination of Gaussian 09 at Wed Aug 26 21:59:08 2020.
