 Gaussian 09, Revision D.01,
 Gaussian 09:  ES64L-G09RevD.01 24-Apr-2013

 --------------------
 #p B2PLYPD3/Def2QZVP
 --------------------

 --------
 methanol
 --------
 Symbolic Z-matrix:
 Charge =  0 Multiplicity = 1

                         Standard orientation:
 ---------------------------------------------------------------------
 Center     Atomic      Atomic             Coordinates (Angstroms)
 Number     Number       Type             X           Y           Z
 ---------------------------------------------------------------------
      1          6           0        0.691644    0.033263   -0.016457
      2          8           0       -0.757363   -0.181584    0.007280
      3          1           0        1.030997    0.493565    0.835256
      4          1           0        1.091793    0.446442   -0.746168
      5          1           0        0.969686   -0.865722    0.003912
      6          1           0       -1.183437    1.178805   -0.052498
 ---------------------------------------------------------------------

 SCF Done:  E(RB2PLYPD3) =  -115.413102622     A.U. after   12 cycles
 E2(B2PLYPD3) =    -0.1573265270D+00 E(B2PLYPD3) =    -0.11557042914860D+03

 The electronic state is 1-A.
 Alpha  occ. eigenvalues --  -19.75671 -10.61393  -1.10454  -0.81253  -0.55947
 Alpha  occ. eigenvalues --   -0.53041  -0.47337  -0.39834  -0.35704
 Alpha virt. eigenvalues --   -0.01581   0.07427   0.12472   0.12887   0.14619
 Alpha virt. eigenvalues --    0.16881   0.18694   0.22029   0.29018   0.32514
 Alpha virt. eigenvalues --    0.34260   0.38439   0.39551   0.42736   0.45719

 Mulliken charges:
               1
     1  C    0.089824
     2  O   -0.482708
     3  H    0.047209
     4  H    0.050974
     5  H    0.071625
     6  H    0.223076
 Sum of Mulliken charges =   0.00000

 Dipole moment (field-independent basis, Debye):
    X=              1.3131    Y=              1.6848    Z=             -0.1290  Tot=              2.1399
 Quadrupole moment (field-independent basis, Debye-Ang):
   XX=            -13.2410   YY=            -11.2628   ZZ=            -13.9146
   XY=             -2.2301   XZ=             -0.0343   YZ=             -0.1132

 Normal termination of Gaussian 09 at Wed Aug 26 22:22:04 2020.
