 Gaussian 09, Revision D.01,
 Gaussian 09:  ES64L-G09RevD.01 24-Apr-2013

 --------------------
 #p B2PLYPD3/Def2QZVP
 --------------------

 --------
 methanol
 --------
 Symbolic Z-matrix:
 Charge =  0 Multiplicity = 1

                         Standard orientation:
 ---------------------------------------------------------------------
 Center     Atomic      Atomic             Coordinates (Angstroms)
 Number     Number       Type             X           Y           Z
 ---------------------------------------------------------------------
      1          6           0       -0.654956   -0.020767    0.000128
      2          8           0        0.743114    0.129708   -0.004773
      3          1           0       -1.062973   -0.470679    0.893188
      4          1           0       -0.990546   -0.612329   -0.857563
      5          1           0       -1.105860    0.957315   -0.056358
      6          1           0        1.144206   -0.787368    0.058149
 ---------------------------------------------------------------------

 SCF Done:  E(RB2PLYPD3) =  -115.549937862     A.U. after   10 cycles
 E2(B2PLYPD3) =    -0.1478155266D+00 E(B2PLYPD3) =    -0.11569775338907D+03

 The electronic state is 1-A.
 Alpha  occ. eigenvalues --  -19.73046 -10.65206  -1.15861  -0.78467  -0.58439
 Alpha  occ. eigenvalues --   -0.51894  -0.50058  -0.40883  -0.35232
 Alpha virt. eigenvalues --    0.04652   0.08076   0.12458   0.12574   0.14910
 Alpha virt. eigenvalues --    0.17470   0.18206   0.29119   0.33014   0.33330
 Alpha virt. eigenvalues --    0.34535   0.39052   0.39846   0.41198   0.43993

 Mulliken charges:
               1
     1  C    0.070110
     2  O   -0.463446
     3  H    0.045000
     4  H    0.043308
     5  H    0.067602
     6  H    0.237425
 Sum of Mulliken charges =   0.00000

 Dipole moment (field-independent basis, Debye):
    X=             -0.8272    Y=             -1.5342    Z=              0.1200  Tot=              1.7471
 Quadrupole moment (field-independent basis, Debye-Ang):
   XX=            -12.9798   YY=            -12.2048   ZZ=            -13.8547
   XY=             -2.3307   XZ=              0.0685   YZ=             -0.0709

 Normal termination of Gaussian 09 at Thu Aug 27 00:12:26 2020.
