 Gaussian 09, Revision D.01,
 Gaussian 09:  ES64L-G09RevD.01 24-Apr-2013

 --------------------
 #p B2PLYPD3/Def2QZVP
 --------------------

 --------
 methanol
 --------
 Symbolic Z-matrix:
 Charge =  0 Multiplicity = 1

                         Standard orientation:
 ---------------------------------------------------------------------
 Center     Atomic      Atomic             Coordinates (Angstroms)
 Number     Number       Type             X           Y           Z
 ---------------------------------------------------------------------
      1          6           0        0.626139    0.061960    0.016548
      2          8           0       -0.725708   -0.207650   -0.024473
      3          1           0        1.013313    0.300114    0.743711
      4          1           0        1.022469    0.637640   -0.729897
      5          1           0        1.191981   -0.835031   -0.048119
      6          1           0       -1.178932    1.186713    0.130804
 ---------------------------------------------------------------------

 SCF Done:  E(RB2PLYPD3) =  -115.379939993     A.U. after   12 cycles
 E2(B2PLYPD3) =    -0.1571071859D+00 E(B2PLYPD3) =    -0.11553704717873D+03

 The electronic state is 1-A.
 Alpha  occ. eigenvalues --  -19.76294 -10.61223  -1.13414  -0.81774  -0.54866
 Alpha  occ. eigenvalues --   -0.53576  -0.50057  -0.37676  -0.35878
 Alpha virt. eigenvalues --   -0.03226   0.07198   0.12586   0.13093   0.14810
 Alpha virt. eigenvalues --    0.18062   0.19107   0.21206   0.29244   0.34074
 Alpha virt. eigenvalues --    0.35825   0.37605   0.39574   0.42474   0.46077

 Mulliken charges:
               1
     1  C    0.057337
     2  O   -0.449234
     3  H    0.089553
     4  H    0.042542
     5  H    0.033154
     6  H    0.226648
 Sum of Mulliken charges =   0.00000

 Dipole moment (field-independent basis, Debye):
    X=              1.0592    Y=              1.8030    Z=              0.3376  Tot=              2.1182
 Quadrupole moment (field-independent basis, Debye-Ang):
   XX=            -13.0916   YY=            -11.5337   ZZ=            -13.9850
   XY=             -2.3342   XZ=             -0.0365   YZ=              0.1234

 Normal termination of Gaussian 09 at Wed Aug 26 21:46:38 2020.
