 Gaussian 09, Revision D.01,
 Gaussian 09:  ES64L-G09RevD.01 24-Apr-2013

 --------------------
 #p B2PLYPD3/Def2QZVP
 --------------------

 --------
 methanol
 --------
 Symbolic Z-matrix:
 Charge =  0 Multiplicity = 1

                         Standard orientation:
 ---------------------------------------------------------------------
 Center     Atomic      Atomic             Coordinates (Angstroms)
 Number     Number       Type             X           Y           Z
 ---------------------------------------------------------------------
      1          6           0       -0.669316   -0.014998    0.007364
      2          8           0        0.744397    0.127807   -0.004373
      3          1           0       -1.032502   -0.482977    0.905477
      4          1           0       -1.019748   -0.625397   -0.857848
      5          1           0       -1.089948    0.946138   -0.080289
      6          1           0        1.202916   -0.770233    0.023463
 ---------------------------------------------------------------------

 SCF Done:  E(RB2PLYPD3) =  -115.548654554     A.U. after   10 cycles
 E2(B2PLYPD3) =    -0.1479373680D+00 E(B2PLYPD3) =    -0.11569659192230D+03

 The electronic state is 1-A.
 Alpha  occ. eigenvalues --  -19.72783 -10.65277  -1.14940  -0.78677  -0.58002
 Alpha  occ. eigenvalues --   -0.51380  -0.50342  -0.40724  -0.35059
 Alpha virt. eigenvalues --    0.04663   0.08005   0.12449   0.12620   0.14859
 Alpha virt. eigenvalues --    0.17285   0.18090   0.29223   0.32948   0.33545
 Alpha virt. eigenvalues --    0.33735   0.38917   0.40244   0.40923   0.43752

 Mulliken charges:
               1
     1  C    0.074563
     2  O   -0.478856
     3  H    0.049431
     4  H    0.040383
     5  H    0.074944
     6  H    0.239534
 Sum of Mulliken charges =   0.00000

 Dipole moment (field-independent basis, Debye):
    X=             -0.8049    Y=             -1.5024    Z=              0.0751  Tot=              1.7061
 Quadrupole moment (field-independent basis, Debye-Ang):
   XX=            -12.7516   YY=            -12.2355   ZZ=            -13.8615
   XY=             -2.4246   XZ=              0.0335   YZ=             -0.0841

 Normal termination of Gaussian 09 at Thu Aug 27 00:10:29 2020.
