 Gaussian 09, Revision D.01,
 Gaussian 09:  ES64L-G09RevD.01 24-Apr-2013

 --------------------
 #p B2PLYPD3/Def2QZVP
 --------------------

 --------
 methanol
 --------
 Symbolic Z-matrix:
 Charge =  0 Multiplicity = 1

                         Standard orientation:
 ---------------------------------------------------------------------
 Center     Atomic      Atomic             Coordinates (Angstroms)
 Number     Number       Type             X           Y           Z
 ---------------------------------------------------------------------
      1          6           0       -0.664104   -0.033171    0.024734
      2          8           0        0.731535    0.112109   -0.029828
      3          1           0       -0.817337   -0.430934    0.987898
      4          1           0       -1.068249   -0.685924   -0.849848
      5          1           0       -1.177069    1.000789   -0.096908
      6          1           0        1.194997   -0.581780    0.049079
 ---------------------------------------------------------------------

 SCF Done:  E(RB2PLYPD3) =  -115.524129723     A.U. after   11 cycles
 E2(B2PLYPD3) =    -0.1453008648D+00 E(B2PLYPD3) =    -0.11566943058755D+03

 The electronic state is 1-A.
 Alpha  occ. eigenvalues --  -19.70785 -10.66957  -1.19088  -0.79826  -0.60065
 Alpha  occ. eigenvalues --   -0.53088  -0.49861  -0.39363  -0.35360
 Alpha virt. eigenvalues --    0.05390   0.08583   0.12055   0.12389   0.14274
 Alpha virt. eigenvalues --    0.17322   0.17792   0.28981   0.32395   0.33444
 Alpha virt. eigenvalues --    0.36406   0.38466   0.39228   0.41054   0.44563

 Mulliken charges:
               1
     1  C    0.065274
     2  O   -0.395860
     3  H    0.059750
     4  H    0.042724
     5  H    0.070269
     6  H    0.157843
 Sum of Mulliken charges =   0.00000

 Dipole moment (field-independent basis, Debye):
    X=             -0.6934    Y=             -1.3366    Z=              0.2526  Tot=              1.5267
 Quadrupole moment (field-independent basis, Debye-Ang):
   XX=            -12.7220   YY=            -12.7412   ZZ=            -13.5588
   XY=             -2.2805   XZ=              0.3906   YZ=             -0.1411

 Normal termination of Gaussian 09 at Wed Aug 26 21:01:38 2020.
