 Gaussian 09, Revision D.01,
 Gaussian 09:  ES64L-G09RevD.01 24-Apr-2013

 --------------------
 #p B2PLYPD3/Def2QZVP
 --------------------

 --------
 methanol
 --------
 Symbolic Z-matrix:
 Charge =  0 Multiplicity = 1

                         Standard orientation:
 ---------------------------------------------------------------------
 Center     Atomic      Atomic             Coordinates (Angstroms)
 Number     Number       Type             X           Y           Z
 ---------------------------------------------------------------------
      1          6           0       -0.673955    0.017725   -0.001546
      2          8           0        0.738764   -0.146116   -0.010317
      3          1           0       -1.080257    0.532205   -0.843741
      4          1           0       -0.975195    0.509510    0.873833
      5          1           0       -0.999215   -0.906169    0.035621
      6          1           0        1.188281    0.927028    0.026103
 ---------------------------------------------------------------------

 SCF Done:  E(RB2PLYPD3) =  -115.512503924     A.U. after   11 cycles
 E2(B2PLYPD3) =    -0.1507433004D+00 E(B2PLYPD3) =    -0.11566324722452D+03

 The electronic state is 1-A.
 Alpha  occ. eigenvalues --  -19.73825 -10.63334  -1.13047  -0.78955  -0.56732
 Alpha  occ. eigenvalues --   -0.52059  -0.49488  -0.40921  -0.34995
 Alpha virt. eigenvalues --    0.03000   0.07826   0.12593   0.12759   0.14933
 Alpha virt. eigenvalues --    0.17006   0.18337   0.27598   0.29611   0.33340
 Alpha virt. eigenvalues --    0.34257   0.38678   0.40548   0.41841   0.43914

 Mulliken charges:
               1
     1  C    0.078031
     2  O   -0.492833
     3  H    0.046970
     4  H    0.044138
     5  H    0.073456
     6  H    0.250237
 Sum of Mulliken charges =   0.00000

 Dipole moment (field-independent basis, Debye):
    X=             -0.9282    Y=              1.6043    Z=              0.0887  Tot=              1.8556
 Quadrupole moment (field-independent basis, Debye-Ang):
   XX=            -13.0218   YY=            -11.8100   ZZ=            -13.8363
   XY=              2.4043   XZ=              0.1230   YZ=              0.0114

 Normal termination of Gaussian 09 at Wed Aug 26 13:12:28 2020.
