 Gaussian 09, Revision D.01,
 Gaussian 09:  ES64L-G09RevD.01 24-Apr-2013

 --------------------
 #p B2PLYPD3/Def2QZVP
 --------------------

 --------
 methanol
 --------
 Symbolic Z-matrix:
 Charge =  0 Multiplicity = 1

                         Standard orientation:
 ---------------------------------------------------------------------
 Center     Atomic      Atomic             Coordinates (Angstroms)
 Number     Number       Type             X           Y           Z
 ---------------------------------------------------------------------
      1          6           0       -0.657185   -0.042134    0.004434
      2          8           0        0.717711    0.081208   -0.035533
      3          1           0       -0.921369   -0.128205    1.092964
      4          1           0       -0.868630   -0.935607   -0.662354
      5          1           0       -1.135623    1.023089   -0.374825
      6          1           0        1.127048   -0.356138    0.201876
 ---------------------------------------------------------------------

 SCF Done:  E(RB2PLYPD3) =  -115.316739667     A.U. after   11 cycles
 E2(B2PLYPD3) =    -0.1429852622D+00 E(B2PLYPD3) =    -0.11545972492936D+03

 The electronic state is 1-A.
 Alpha  occ. eigenvalues --  -19.68267 -10.68433  -1.26618  -0.83682  -0.61739
 Alpha  occ. eigenvalues --   -0.53705  -0.50287  -0.38717  -0.35885
 Alpha virt. eigenvalues --    0.05247   0.09668   0.11789   0.11841   0.13971
 Alpha virt. eigenvalues --    0.16714   0.17476   0.28617   0.32326   0.33504
 Alpha virt. eigenvalues --    0.34844   0.39132   0.40122   0.41073   0.43758

 Mulliken charges:
               1
     1  C    0.058789
     2  O   -0.190735
     3  H    0.048430
     4  H    0.057781
     5  H    0.068954
     6  H   -0.043219
 Sum of Mulliken charges =   0.00000

 Dipole moment (field-independent basis, Debye):
    X=             -0.6768    Y=             -1.0235    Z=              0.5687  Tot=              1.3524
 Quadrupole moment (field-independent basis, Debye-Ang):
   XX=            -13.0263   YY=            -12.7784   ZZ=            -13.2572
   XY=             -1.7560   XZ=              0.7880   YZ=             -0.0938

 Normal termination of Gaussian 09 at Wed Aug 26 23:56:09 2020.
