 Gaussian 09, Revision D.01,
 Gaussian 09:  ES64L-G09RevD.01 24-Apr-2013

 --------------------
 #p B2PLYPD3/Def2QZVP
 --------------------

 --------
 methanol
 --------
 Symbolic Z-matrix:
 Charge =  0 Multiplicity = 1

                         Standard orientation:
 ---------------------------------------------------------------------
 Center     Atomic      Atomic             Coordinates (Angstroms)
 Number     Number       Type             X           Y           Z
 ---------------------------------------------------------------------
      1          6           0        0.660904   -0.012490    0.006737
      2          8           0       -0.753995    0.105583   -0.007414
      3          1           0        1.044343   -0.626661   -0.884626
      4          1           0        1.016353   -0.463986    0.959599
      5          1           0        1.094069    0.990546   -0.084272
      6          1           0       -1.088223   -0.669621    0.028191
 ---------------------------------------------------------------------

 SCF Done:  E(RB2PLYPD3) =  -115.536321963     A.U. after   10 cycles
 E2(B2PLYPD3) =    -0.1456317602D+00 E(B2PLYPD3) =    -0.11568195372356D+03

 The electronic state is 1-A.
 Alpha  occ. eigenvalues --  -19.71610 -10.66765  -1.19202  -0.79321  -0.60040
 Alpha  occ. eigenvalues --   -0.51536  -0.50371  -0.41324  -0.35660
 Alpha virt. eigenvalues --    0.05328   0.08653   0.12049   0.12404   0.14638
 Alpha virt. eigenvalues --    0.17352   0.18003   0.28922   0.33022   0.33221
 Alpha virt. eigenvalues --    0.36909   0.39091   0.39715   0.40192   0.43507

 Mulliken charges:
               1
     1  C    0.063634
     2  O   -0.393395
     3  H    0.042394
     4  H    0.050497
     5  H    0.074731
     6  H    0.162139
 Sum of Mulliken charges =   0.00000

 Dipole moment (field-independent basis, Debye):
    X=              0.9289    Y=             -1.3623    Z=              0.0928  Tot=              1.6515
 Quadrupole moment (field-independent basis, Debye-Ang):
   XX=            -13.1661   YY=            -12.3901   ZZ=            -13.6850
   XY=              2.1547   XZ=             -0.0945   YZ=             -0.0825

 Normal termination of Gaussian 09 at Thu Aug 27 00:14:25 2020.
