 Gaussian 09, Revision D.01,
 Gaussian 09:  ES64L-G09RevD.01 24-Apr-2013

 --------------------
 #p B2PLYPD3/Def2QZVP
 --------------------

 --------
 methanol
 --------
 Symbolic Z-matrix:
 Charge =  0 Multiplicity = 1

                         Standard orientation:
 ---------------------------------------------------------------------
 Center     Atomic      Atomic             Coordinates (Angstroms)
 Number     Number       Type             X           Y           Z
 ---------------------------------------------------------------------
      1          6           0        0.674591   -0.008703   -0.034988
      2          8           0       -0.753202   -0.173264    0.021714
      3          1           0        1.134229    0.579027    0.856885
      4          1           0        0.992399    0.565832   -0.752073
      5          1           0        1.120907   -0.775832   -0.016805
      6          1           0       -1.269466    1.069302   -0.051790
 ---------------------------------------------------------------------

 SCF Done:  E(RB2PLYPD3) =  -115.424838988     A.U. after   11 cycles
 E2(B2PLYPD3) =    -0.1549245742D+00 E(B2PLYPD3) =    -0.11557976356236D+03

 The electronic state is 1-A.
 Alpha  occ. eigenvalues --  -19.75349 -10.62667  -1.11340  -0.80847  -0.56470
 Alpha  occ. eigenvalues --   -0.50584  -0.49267  -0.40571  -0.34401
 Alpha virt. eigenvalues --   -0.00557   0.07221   0.12755   0.12987   0.14665
 Alpha virt. eigenvalues --    0.18058   0.18390   0.22984   0.29746   0.32608
 Alpha virt. eigenvalues --    0.33422   0.37478   0.39587   0.41344   0.44480

 Mulliken charges:
               1
     1  C    0.077287
     2  O   -0.492612
     3  H    0.021895
     4  H    0.043962
     5  H    0.093905
     6  H    0.255563
 Sum of Mulliken charges =   0.00000

 Dipole moment (field-independent basis, Debye):
    X=              0.9126    Y=              1.6771    Z=             -0.2951  Tot=              1.9320
 Quadrupole moment (field-independent basis, Debye-Ang):
   XX=            -12.6116   YY=            -11.5217   ZZ=            -14.2895
   XY=             -2.7685   XZ=             -0.0110   YZ=             -0.2541

 Normal termination of Gaussian 09 at Wed Aug 26 23:49:36 2020.
