 Gaussian 09, Revision D.01,
 Gaussian 09:  ES64L-G09RevD.01 24-Apr-2013

 --------------------
 #p B2PLYPD3/Def2QZVP
 --------------------

 --------
 methanol
 --------
 Symbolic Z-matrix:
 Charge =  0 Multiplicity = 1

                         Standard orientation:
 ---------------------------------------------------------------------
 Center     Atomic      Atomic             Coordinates (Angstroms)
 Number     Number       Type             X           Y           Z
 ---------------------------------------------------------------------
      1          6           0       -0.664724   -0.025837    0.005289
      2          8           0        0.754113    0.108536   -0.015000
      3          1           0       -1.026856   -0.411008    0.953909
      4          1           0       -1.070482   -0.664272   -0.838684
      5          1           0       -1.096137    1.027547   -0.099906
      6          1           0        1.148913   -0.665535    0.072945
 ---------------------------------------------------------------------

 SCF Done:  E(RB2PLYPD3) =  -115.542467582     A.U. after   10 cycles
 E2(B2PLYPD3) =    -0.1461818562D+00 E(B2PLYPD3) =    -0.11568864943802D+03

 The electronic state is 1-A.
 Alpha  occ. eigenvalues --  -19.71863 -10.66823  -1.18006  -0.79075  -0.59893
 Alpha  occ. eigenvalues --   -0.51573  -0.49491  -0.40757  -0.35770
 Alpha virt. eigenvalues --    0.05292   0.08413   0.12113   0.12317   0.14787
 Alpha virt. eigenvalues --    0.17153   0.18176   0.28994   0.33118   0.33393
 Alpha virt. eigenvalues --    0.36796   0.38239   0.39338   0.40597   0.42985

 Mulliken charges:
               1
     1  C    0.062970
     2  O   -0.418237
     3  H    0.055456
     4  H    0.049042
     5  H    0.068078
     6  H    0.182690
 Sum of Mulliken charges =   0.00000

 Dipole moment (field-independent basis, Debye):
    X=             -0.8539    Y=             -1.4215    Z=              0.2094  Tot=              1.6714
 Quadrupole moment (field-independent basis, Debye-Ang):
   XX=            -12.9030   YY=            -12.4617   ZZ=            -13.7440
   XY=             -2.1305   XZ=              0.2122   YZ=             -0.1036

 Normal termination of Gaussian 09 at Wed Aug 26 12:25:34 2020.
