 Gaussian 09, Revision D.01,
 Gaussian 09:  ES64L-G09RevD.01 24-Apr-2013

 --------------------
 #p B2PLYPD3/Def2QZVP
 --------------------

 --------
 methanol
 --------
 Symbolic Z-matrix:
 Charge =  0 Multiplicity = 1

                         Standard orientation:
 ---------------------------------------------------------------------
 Center     Atomic      Atomic             Coordinates (Angstroms)
 Number     Number       Type             X           Y           Z
 ---------------------------------------------------------------------
      1          6           0        0.660282   -0.013957    0.000844
      2          8           0       -0.750650    0.099608   -0.000505
      3          1           0        1.069984   -0.586446   -0.881295
      4          1           0        1.041054   -0.530203    0.921752
      5          1           0        1.047331    1.055779   -0.032025
      6          1           0       -1.114862   -0.652250   -0.009456
 ---------------------------------------------------------------------

 SCF Done:  E(RB2PLYPD3) =  -115.532022287     A.U. after   10 cycles
 E2(B2PLYPD3) =    -0.1455571299D+00 E(B2PLYPD3) =    -0.11567757941715D+03

 The electronic state is 1-A.
 Alpha  occ. eigenvalues --  -19.71511 -10.67095  -1.19474  -0.79334  -0.60627
 Alpha  occ. eigenvalues --   -0.51218  -0.49812  -0.41247  -0.35613
 Alpha virt. eigenvalues --    0.05320   0.08658   0.12017   0.12257   0.14985
 Alpha virt. eigenvalues --    0.17015   0.17920   0.29030   0.33095   0.33530
 Alpha virt. eigenvalues --    0.37411   0.38576   0.39619   0.39921   0.42342

 Mulliken charges:
               1
     1  C    0.060541
     2  O   -0.382801
     3  H    0.046438
     4  H    0.049076
     5  H    0.072872
     6  H    0.153874
 Sum of Mulliken charges =   0.00000

 Dipole moment (field-independent basis, Debye):
    X=              0.8455    Y=             -1.3901    Z=             -0.0136  Tot=              1.6271
 Quadrupole moment (field-independent basis, Debye-Ang):
   XX=            -13.0828   YY=            -12.3260   ZZ=            -13.8121
   XY=              2.0275   XZ=             -0.0034   YZ=              0.0017

 Normal termination of Gaussian 09 at Thu Aug 27 00:11:26 2020.
