 Gaussian 09, Revision D.01,
 Gaussian 09:  ES64L-G09RevD.01 24-Apr-2013

 --------------------
 #p B2PLYPD3/Def2QZVP
 --------------------

 --------
 methanol
 --------
 Symbolic Z-matrix:
 Charge =  0 Multiplicity = 1

                         Standard orientation:
 ---------------------------------------------------------------------
 Center     Atomic      Atomic             Coordinates (Angstroms)
 Number     Number       Type             X           Y           Z
 ---------------------------------------------------------------------
      1          6           0       -0.649991    0.004588    0.037566
      2          8           0        0.761019   -0.067272   -0.051611
      3          1           0       -0.959471    1.156957   -0.348639
      4          1           0       -1.119469   -0.291106    1.008893
      5          1           0       -1.174774   -0.709782   -0.785334
      6          1           0        1.065512    0.354575    0.312571
 ---------------------------------------------------------------------

 SCF Done:  E(RB2PLYPD3) =  -115.294185177     A.U. after   11 cycles
 E2(B2PLYPD3) =    -0.1439916378D+00 E(B2PLYPD3) =    -0.11543817681508D+03

 The electronic state is 1-A.
 Alpha  occ. eigenvalues --  -19.69705 -10.69666  -1.27802  -0.81820  -0.62533
 Alpha  occ. eigenvalues --   -0.51720  -0.50258  -0.40106  -0.36427
 Alpha virt. eigenvalues --    0.05139   0.09167   0.11208   0.11891   0.14029
 Alpha virt. eigenvalues --    0.17301   0.18260   0.28065   0.31671   0.33347
 Alpha virt. eigenvalues --    0.34239   0.36395   0.39048   0.40680   0.43646

 Mulliken charges:
               1
     1  C    0.043071
     2  O   -0.186051
     3  H    0.034991
     4  H    0.069811
     5  H    0.069064
     6  H   -0.030886
 Sum of Mulliken charges =   0.00000

 Dipole moment (field-independent basis, Debye):
    X=             -0.9371    Y=              0.7713    Z=              0.8349  Tot=              1.4731
 Quadrupole moment (field-independent basis, Debye-Ang):
   XX=            -13.0336   YY=            -13.2423   ZZ=            -13.1503
   XY=              1.6778   XZ=              1.0744   YZ=              0.2619

 Normal termination of Gaussian 09 at Wed Aug 26 22:52:20 2020.
