 Gaussian 09, Revision D.01,
 Gaussian 09:  ES64L-G09RevD.01 24-Apr-2013

 --------------------
 #p B2PLYPD3/Def2QZVP
 --------------------

 --------
 methanol
 --------
 Symbolic Z-matrix:
 Charge =  0 Multiplicity = 1

                         Standard orientation:
 ---------------------------------------------------------------------
 Center     Atomic      Atomic             Coordinates (Angstroms)
 Number     Number       Type             X           Y           Z
 ---------------------------------------------------------------------
      1          6           0       -0.663665    0.037947   -0.042483
      2          8           0        0.737730   -0.193251    0.020011
      3          1           0       -1.049260    0.377151   -0.669690
      4          1           0       -1.097902    0.655700    0.721124
      5          1           0       -1.025632   -0.899499    0.110844
      6          1           0        1.252945    1.184973   -0.067472
 ---------------------------------------------------------------------

 SCF Done:  E(RB2PLYPD3) =  -115.350681230     A.U. after   12 cycles
 E2(B2PLYPD3) =    -0.1578990461D+00 E(B2PLYPD3) =    -0.11550858027578D+03

 The electronic state is 1-A.
 Alpha  occ. eigenvalues --  -19.76255 -10.61294  -1.11822  -0.82611  -0.56973
 Alpha  occ. eigenvalues --   -0.51523  -0.48667  -0.39161  -0.35436
 Alpha virt. eigenvalues --   -0.02841   0.07249   0.12153   0.13442   0.15058
 Alpha virt. eigenvalues --    0.17198   0.18685   0.21207   0.29546   0.33340
 Alpha virt. eigenvalues --    0.34664   0.37328   0.37799   0.41991   0.46436

 Mulliken charges:
               1
     1  C   -0.009076
     2  O   -0.455593
     3  H    0.148701
     4  H    0.035955
     5  H    0.059186
     6  H    0.220828
 Sum of Mulliken charges =   0.00000

 Dipole moment (field-independent basis, Debye):
    X=             -1.0777    Y=              1.7454    Z=             -0.2684  Tot=              2.0688
 Quadrupole moment (field-independent basis, Debye-Ang):
   XX=            -12.9222   YY=            -11.2171   ZZ=            -14.2262
   XY=              2.2876   XZ=              0.0519   YZ=             -0.2571

 Normal termination of Gaussian 09 at Wed Aug 26 23:01:21 2020.
