 Gaussian 09, Revision D.01,
 Gaussian 09:  ES64L-G09RevD.01 24-Apr-2013

 --------------------
 #p B2PLYPD3/Def2QZVP
 --------------------

 --------
 methanol
 --------
 Symbolic Z-matrix:
 Charge =  0 Multiplicity = 1

                         Standard orientation:
 ---------------------------------------------------------------------
 Center     Atomic      Atomic             Coordinates (Angstroms)
 Number     Number       Type             X           Y           Z
 ---------------------------------------------------------------------
      1          6           0        0.685914   -0.006407    0.017721
      2          8           0       -0.764768   -0.137812   -0.035187
      3          1           0        1.129325    0.204741    0.914139
      4          1           0        0.979898    0.833661   -0.782799
      5          1           0        1.044695   -0.795491   -0.229080
      6          1           0       -1.151258    0.898030    0.272911
 ---------------------------------------------------------------------

 SCF Done:  E(RB2PLYPD3) =  -115.482998810     A.U. after   11 cycles
 E2(B2PLYPD3) =    -0.1513501505D+00 E(B2PLYPD3) =    -0.11563434896031D+03

 The electronic state is 1-A.
 Alpha  occ. eigenvalues --  -19.74149 -10.63971  -1.12274  -0.80437  -0.56117
 Alpha  occ. eigenvalues --   -0.51189  -0.49780  -0.41434  -0.34931
 Alpha virt. eigenvalues --    0.03112   0.07577   0.11957   0.12993   0.14569
 Alpha virt. eigenvalues --    0.17382   0.18609   0.27610   0.29551   0.31552
 Alpha virt. eigenvalues --    0.33975   0.36274   0.40600   0.41614   0.43932

 Mulliken charges:
               1
     1  C    0.058326
     2  O   -0.492357
     3  H    0.052335
     4  H    0.032967
     5  H    0.093377
     6  H    0.255352
 Sum of Mulliken charges =   0.00000

 Dipole moment (field-independent basis, Debye):
    X=              1.0510    Y=              1.4133    Z=              0.5764  Tot=              1.8532
 Quadrupole moment (field-independent basis, Debye-Ang):
   XX=            -13.0759   YY=            -12.0267   ZZ=            -13.7305
   XY=             -2.5504   XZ=             -0.3813   YZ=              0.4918

 Normal termination of Gaussian 09 at Wed Aug 26 23:28:06 2020.
