 Gaussian 09, Revision D.01,
 Gaussian 09:  ES64L-G09RevD.01 24-Apr-2013

 --------------------
 #p B2PLYPD3/Def2QZVP
 --------------------

 --------
 methanol
 --------
 Symbolic Z-matrix:
 Charge =  0 Multiplicity = 1

                         Standard orientation:
 ---------------------------------------------------------------------
 Center     Atomic      Atomic             Coordinates (Angstroms)
 Number     Number       Type             X           Y           Z
 ---------------------------------------------------------------------
      1          6           0        0.666559    0.021039   -0.019330
      2          8           0       -0.742478   -0.161726    0.016445
      3          1           0        1.054772    0.574931    0.804301
      4          1           0        0.926378    0.476610   -0.798131
      5          1           0        1.075690   -0.895583    0.019033
      6          1           0       -1.116372    1.011618   -0.040784
 ---------------------------------------------------------------------

 SCF Done:  E(RB2PLYPD3) =  -115.482347244     A.U. after   11 cycles
 E2(B2PLYPD3) =    -0.1520324025D+00 E(B2PLYPD3) =    -0.11563437964697D+03

 The electronic state is 1-A.
 Alpha  occ. eigenvalues --  -19.74383 -10.62283  -1.12720  -0.79771  -0.56803
 Alpha  occ. eigenvalues --   -0.52703  -0.49032  -0.41002  -0.35115
 Alpha virt. eigenvalues --    0.01826   0.07771   0.12586   0.12810   0.14902
 Alpha virt. eigenvalues --    0.17632   0.18081   0.25514   0.29603   0.33208
 Alpha virt. eigenvalues --    0.34265   0.39096   0.40280   0.42248   0.44981

 Mulliken charges:
               1
     1  C    0.097026
     2  O   -0.491476
     3  H    0.036629
     4  H    0.047824
     5  H    0.062781
     6  H    0.247216
 Sum of Mulliken charges =   0.00000

 Dipole moment (field-independent basis, Debye):
    X=              1.0940    Y=              1.7068    Z=             -0.1788  Tot=              2.0351
 Quadrupole moment (field-independent basis, Debye-Ang):
   XX=            -13.3055   YY=            -11.5015   ZZ=            -13.8809
   XY=             -2.3173   XZ=              0.0842   YZ=             -0.1531

 Normal termination of Gaussian 09 at Wed Aug 26 11:30:09 2020.
