 Gaussian 09, Revision D.01,
 Gaussian 09:  ES64L-G09RevD.01 24-Apr-2013

 --------------------
 #p B2PLYPD3/Def2QZVP
 --------------------

 --------
 methanol
 --------
 Symbolic Z-matrix:
 Charge =  0 Multiplicity = 1

                         Standard orientation:
 ---------------------------------------------------------------------
 Center     Atomic      Atomic             Coordinates (Angstroms)
 Number     Number       Type             X           Y           Z
 ---------------------------------------------------------------------
      1          6           0        0.693864    0.054924   -0.025578
      2          8           0       -0.736284   -0.193179    0.006179
      3          1           0        0.991496    0.475801    0.807521
      4          1           0        0.840282    0.566000   -0.721055
      5          1           0        1.154184   -0.868083   -0.012335
      6          1           0       -1.258872    1.042172    0.029907
 ---------------------------------------------------------------------

 SCF Done:  E(RB2PLYPD3) =  -115.425178626     A.U. after   12 cycles
 E2(B2PLYPD3) =    -0.1542840631D+00 E(B2PLYPD3) =    -0.11557946268935D+03

 The electronic state is 1-A.
 Alpha  occ. eigenvalues --  -19.74433 -10.61107  -1.10814  -0.80893  -0.57134
 Alpha  occ. eigenvalues --   -0.53485  -0.47785  -0.39786  -0.35180
 Alpha virt. eigenvalues --    0.00109   0.07569   0.12349   0.13057   0.14589
 Alpha virt. eigenvalues --    0.17460   0.18044   0.23423   0.29495   0.32440
 Alpha virt. eigenvalues --    0.33497   0.39216   0.40264   0.43311   0.45449

 Mulliken charges:
               1
     1  C    0.075477
     2  O   -0.508135
     3  H    0.048204
     4  H    0.086604
     5  H    0.062796
     6  H    0.235055
 Sum of Mulliken charges =   0.00000

 Dipole moment (field-independent basis, Debye):
    X=              1.1330    Y=              1.7821    Z=              0.0163  Tot=              2.1119
 Quadrupole moment (field-independent basis, Debye-Ang):
   XX=            -12.8116   YY=            -11.5390   ZZ=            -13.8042
   XY=             -2.5704   XZ=              0.0642   YZ=             -0.0950

 Normal termination of Gaussian 09 at Wed Aug 26 18:46:09 2020.
