 Gaussian 09, Revision D.01,
 Gaussian 09:  ES64L-G09RevD.01 24-Apr-2013

 --------------------
 #p B2PLYPD3/Def2QZVP
 --------------------

 --------
 methanol
 --------
 Symbolic Z-matrix:
 Charge =  0 Multiplicity = 1

                         Standard orientation:
 ---------------------------------------------------------------------
 Center     Atomic      Atomic             Coordinates (Angstroms)
 Number     Number       Type             X           Y           Z
 ---------------------------------------------------------------------
      1          6           0       -0.661541   -0.029344   -0.000368
      2          8           0        0.738580    0.140625   -0.004525
      3          1           0       -1.007010   -0.509464    0.863840
      4          1           0       -1.020595   -0.579902   -0.830214
      5          1           0       -1.112564    0.960030   -0.018204
      6          1           0        1.200780   -0.819599    0.022992
 ---------------------------------------------------------------------

 SCF Done:  E(RB2PLYPD3) =  -115.540548573     A.U. after   11 cycles
 E2(B2PLYPD3) =    -0.1487329272D+00 E(B2PLYPD3) =    -0.11568928150040D+03

 The electronic state is 1-A.
 Alpha  occ. eigenvalues --  -19.73283 -10.64468  -1.14500  -0.78558  -0.57683
 Alpha  occ. eigenvalues --   -0.52185  -0.49662  -0.40564  -0.35158
 Alpha virt. eigenvalues --    0.04155   0.07885   0.12515   0.12710   0.15009
 Alpha virt. eigenvalues --    0.17401   0.18158   0.29163   0.31211   0.33464
 Alpha virt. eigenvalues --    0.34337   0.38990   0.39747   0.42001   0.44242

 Mulliken charges:
               1
     1  C    0.078389
     2  O   -0.483502
     3  H    0.046367
     4  H    0.045559
     5  H    0.065371
     6  H    0.247817
 Sum of Mulliken charges =   0.00000

 Dipole moment (field-independent basis, Debye):
    X=             -0.8028    Y=             -1.6183    Z=              0.0601  Tot=              1.8075
 Quadrupole moment (field-independent basis, Debye-Ang):
   XX=            -12.7720   YY=            -12.1194   ZZ=            -13.8891
   XY=             -2.3900   XZ=              0.0578   YZ=             -0.0229

 Normal termination of Gaussian 09 at Wed Aug 26 10:01:46 2020.
