 Gaussian 09, Revision D.01,
 Gaussian 09:  ES64L-G09RevD.01 24-Apr-2013

 --------------------
 #p B2PLYPD3/Def2QZVP
 --------------------

 --------
 methanol
 --------
 Symbolic Z-matrix:
 Charge =  0 Multiplicity = 1

                         Standard orientation:
 ---------------------------------------------------------------------
 Center     Atomic      Atomic             Coordinates (Angstroms)
 Number     Number       Type             X           Y           Z
 ---------------------------------------------------------------------
      1          6           0        0.656242   -0.029765   -0.002584
      2          8           0       -0.745208    0.135699   -0.005153
      3          1           0        1.061446   -0.581587   -0.822787
      4          1           0        1.098092   -0.488518    0.848168
      5          1           0        1.071409    0.999399   -0.017884
      6          1           0       -1.206732   -0.836294    0.049231
 ---------------------------------------------------------------------

 SCF Done:  E(RB2PLYPD3) =  -115.537163938     A.U. after   11 cycles
 E2(B2PLYPD3) =    -0.1494143520D+00 E(B2PLYPD3) =    -0.11568657829038D+03

 The electronic state is 1-A.
 Alpha  occ. eigenvalues --  -19.73823 -10.65021  -1.14522  -0.78261  -0.57916
 Alpha  occ. eigenvalues --   -0.51433  -0.49162  -0.40599  -0.35277
 Alpha virt. eigenvalues --    0.04016   0.07673   0.12254   0.12818   0.15271
 Alpha virt. eigenvalues --    0.17160   0.18414   0.28947   0.30886   0.33723
 Alpha virt. eigenvalues --    0.34488   0.37802   0.39414   0.41487   0.43981

 Mulliken charges:
               1
     1  C    0.068734
     2  O   -0.474009
     3  H    0.047336
     4  H    0.046578
     5  H    0.062113
     6  H    0.249246
 Sum of Mulliken charges =   0.00000

 Dipole moment (field-independent basis, Debye):
    X=              0.7657    Y=             -1.6287    Z=              0.1038  Tot=              1.8027
 Quadrupole moment (field-independent basis, Debye-Ang):
   XX=            -12.7314   YY=            -12.1167   ZZ=            -14.0572
   XY=              2.2826   XZ=             -0.0734   YZ=             -0.0371

 Normal termination of Gaussian 09 at Wed Aug 26 13:11:16 2020.
