 Gaussian 09, Revision D.01,
 Gaussian 09:  ES64L-G09RevD.01 24-Apr-2013

 --------------------
 #p B2PLYPD3/Def2QZVP
 --------------------

 --------
 methanol
 --------
 Symbolic Z-matrix:
 Charge =  0 Multiplicity = 1

                         Standard orientation:
 ---------------------------------------------------------------------
 Center     Atomic      Atomic             Coordinates (Angstroms)
 Number     Number       Type             X           Y           Z
 ---------------------------------------------------------------------
      1          6           0       -0.643121    0.002814   -0.001951
      2          8           0        0.747513   -0.075751   -0.022601
      3          1           0       -1.043817    0.946269   -0.645811
      4          1           0       -1.036542    0.124266    1.084298
      5          1           0       -1.075951   -0.984717   -0.394151
      6          1           0        1.034929    0.503305    0.148178
 ---------------------------------------------------------------------

 SCF Done:  E(RB2PLYPD3) =  -115.372099368     A.U. after   11 cycles
 E2(B2PLYPD3) =    -0.1435567693D+00 E(B2PLYPD3) =    -0.11551565613736D+03

 The electronic state is 1-A.
 Alpha  occ. eigenvalues --  -19.69921 -10.68671  -1.26789  -0.81617  -0.62208
 Alpha  occ. eigenvalues --   -0.51450  -0.51094  -0.41328  -0.35796
 Alpha virt. eigenvalues --    0.05300   0.09310   0.11582   0.12097   0.14654
 Alpha virt. eigenvalues --    0.16937   0.17789   0.28402   0.32389   0.33780
 Alpha virt. eigenvalues --    0.36035   0.37948   0.38989   0.40817   0.42890

 Mulliken charges:
               1
     1  C    0.050081
     2  O   -0.211319
     3  H    0.034487
     4  H    0.045205
     5  H    0.081447
     6  H    0.000099
 Sum of Mulliken charges =   0.00000

 Dipole moment (field-independent basis, Debye):
    X=             -0.8675    Y=              1.0906    Z=              0.3584  Tot=              1.4389
 Quadrupole moment (field-independent basis, Debye-Ang):
   XX=            -13.3092   YY=            -12.5235   ZZ=            -13.6206
   XY=              1.8439   XZ=              0.5184   YZ=              0.2712

 Normal termination of Gaussian 09 at Wed Aug 26 14:22:24 2020.
