 Gaussian 09, Revision D.01,
 Gaussian 09:  ES64L-G09RevD.01 24-Apr-2013

 --------------------
 #p B2PLYPD3/Def2QZVP
 --------------------

 --------
 methanol
 --------
 Symbolic Z-matrix:
 Charge =  0 Multiplicity = 1

                         Standard orientation:
 ---------------------------------------------------------------------
 Center     Atomic      Atomic             Coordinates (Angstroms)
 Number     Number       Type             X           Y           Z
 ---------------------------------------------------------------------
      1          6           0        0.654022   -0.026184    0.001199
      2          8           0       -0.737267    0.085155   -0.002735
      3          1           0        0.994271   -0.620672   -0.911747
      4          1           0        0.958899   -0.500453    0.991496
      5          1           0        1.074329    1.095455   -0.062788
      6          1           0       -1.053493   -0.498461   -0.002275
 ---------------------------------------------------------------------

 SCF Done:  E(RB2PLYPD3) =  -115.364812376     A.U. after   11 cycles
 E2(B2PLYPD3) =    -0.1432417226D+00 E(B2PLYPD3) =    -0.11550805409861D+03

 The electronic state is 1-A.
 Alpha  occ. eigenvalues --  -19.69204 -10.68234  -1.26444  -0.81896  -0.62022
 Alpha  occ. eigenvalues --   -0.52623  -0.50202  -0.40564  -0.36129
 Alpha virt. eigenvalues --    0.05320   0.09550   0.11720   0.11873   0.14402
 Alpha virt. eigenvalues --    0.16910   0.17595   0.28498   0.32787   0.33455
 Alpha virt. eigenvalues --    0.35988   0.38508   0.39649   0.41083   0.43065

 Mulliken charges:
               1
     1  C    0.052218
     2  O   -0.212869
     3  H    0.050047
     4  H    0.052123
     5  H    0.071114
     6  H   -0.012633
 Sum of Mulliken charges =   0.00000

 Dipole moment (field-independent basis, Debye):
    X=              0.8548    Y=             -1.2330    Z=             -0.0004  Tot=              1.5004
 Quadrupole moment (field-independent basis, Debye-Ang):
   XX=            -13.3304   YY=            -12.5166   ZZ=            -13.4123
   XY=              1.8608   XZ=             -0.0560   YZ=              0.0087

 Normal termination of Gaussian 09 at Wed Aug 26 15:38:44 2020.
