 Gaussian 09, Revision D.01,
 Gaussian 09:  ES64L-G09RevD.01 24-Apr-2013

 --------------------
 #p B2PLYPD3/Def2QZVP
 --------------------

 --------
 methanol
 --------
 Symbolic Z-matrix:
 Charge =  0 Multiplicity = 1

                         Standard orientation:
 ---------------------------------------------------------------------
 Center     Atomic      Atomic             Coordinates (Angstroms)
 Number     Number       Type             X           Y           Z
 ---------------------------------------------------------------------
      1          6           0        0.668774    0.025720    0.009643
      2          8           0       -0.744184   -0.146188   -0.006590
      3          1           0        1.017518    0.473573    0.866752
      4          1           0        1.040633    0.595446   -0.831537
      5          1           0        1.104829   -0.920008   -0.061819
      6          1           0       -1.222149    0.866172    0.021469
 ---------------------------------------------------------------------

 SCF Done:  E(RB2PLYPD3) =  -115.528582408     A.U. after   11 cycles
 E2(B2PLYPD3) =    -0.1498693313D+00 E(B2PLYPD3) =    -0.11567845173975D+03

 The electronic state is 1-A.
 Alpha  occ. eigenvalues --  -19.73681 -10.64085  -1.13355  -0.78797  -0.56681
 Alpha  occ. eigenvalues --   -0.51939  -0.49734  -0.40575  -0.35143
 Alpha virt. eigenvalues --    0.03572   0.07715   0.12662   0.12709   0.14913
 Alpha virt. eigenvalues --    0.17401   0.18304   0.28604   0.29868   0.33554
 Alpha virt. eigenvalues --    0.33913   0.39110   0.39972   0.41872   0.43937

 Mulliken charges:
               1
     1  C    0.081444
     2  O   -0.494119
     3  H    0.049814
     4  H    0.042025
     5  H    0.067413
     6  H    0.253422
 Sum of Mulliken charges =   0.00000

 Dipole moment (field-independent basis, Debye):
    X=              0.8546    Y=              1.6159    Z=              0.0845  Tot=              1.8299
 Quadrupole moment (field-independent basis, Debye-Ang):
   XX=            -12.6956   YY=            -12.0695   ZZ=            -13.8966
   XY=             -2.4883   XZ=             -0.0398   YZ=              0.0796

 Normal termination of Gaussian 09 at Wed Aug 26 23:03:25 2020.
