 Gaussian 09, Revision D.01,
 Gaussian 09:  ES64L-G09RevD.01 24-Apr-2013

 --------------------
 #p B2PLYPD3/Def2QZVP
 --------------------

 --------
 methanol
 --------
 Symbolic Z-matrix:
 Charge =  0 Multiplicity = 1

                         Standard orientation:
 ---------------------------------------------------------------------
 Center     Atomic      Atomic             Coordinates (Angstroms)
 Number     Number       Type             X           Y           Z
 ---------------------------------------------------------------------
      1          6           0       -0.661397    0.021298    0.000515
      2          8           0        0.748409   -0.140867   -0.000622
      3          1           0       -1.037170    0.528466   -0.843377
      4          1           0       -0.996176    0.551741    0.845676
      5          1           0       -1.105729   -0.950832    0.011703
      6          1           0        1.120186    0.869770   -0.012116
 ---------------------------------------------------------------------

 SCF Done:  E(RB2PLYPD3) =  -115.537857604     A.U. after   11 cycles
 E2(B2PLYPD3) =    -0.1492147255D+00 E(B2PLYPD3) =    -0.11568707232939D+03

 The electronic state is 1-A.
 Alpha  occ. eigenvalues --  -19.73583 -10.64330  -1.14372  -0.78636  -0.57426
 Alpha  occ. eigenvalues --   -0.52112  -0.49531  -0.41247  -0.35251
 Alpha virt. eigenvalues --    0.03980   0.07937   0.12501   0.12626   0.14935
 Alpha virt. eigenvalues --    0.17603   0.18099   0.29043   0.30674   0.33409
 Alpha virt. eigenvalues --    0.34181   0.39112   0.39954   0.41789   0.44115

 Mulliken charges:
               1
     1  C    0.081500
     2  O   -0.480583
     3  H    0.043540
     4  H    0.043803
     5  H    0.064824
     6  H    0.246916
 Sum of Mulliken charges =   0.00000

 Dipole moment (field-independent basis, Debye):
    X=             -0.9618    Y=              1.6372    Z=             -0.0166  Tot=              1.8989
 Quadrupole moment (field-independent basis, Debye-Ang):
   XX=            -13.1523   YY=            -11.9184   ZZ=            -13.8969
   XY=              2.2949   XZ=              0.0087   YZ=             -0.0108

 Normal termination of Gaussian 09 at Thu Aug 27 00:13:57 2020.
