 Gaussian 09, Revision D.01,
 Gaussian 09:  ES64L-G09RevD.01 24-Apr-2013

 --------------------
 #p B2PLYPD3/Def2QZVP
 --------------------

 --------
 methanol
 --------
 Symbolic Z-matrix:
 Charge =  0 Multiplicity = 1

                         Standard orientation:
 ---------------------------------------------------------------------
 Center     Atomic      Atomic             Coordinates (Angstroms)
 Number     Number       Type             X           Y           Z
 ---------------------------------------------------------------------
      1          6           0        0.664352    0.030025   -0.002526
      2          8           0       -0.740641   -0.142724   -0.000519
      3          1           0        1.034746    0.472955    0.876900
      4          1           0        1.038043    0.560884   -0.819305
      5          1           0        1.045485   -0.953859   -0.042725
      6          1           0       -1.179260    0.881662    0.004435
 ---------------------------------------------------------------------

 SCF Done:  E(RB2PLYPD3) =  -115.530276566     A.U. after   11 cycles
 E2(B2PLYPD3) =    -0.1498007223D+00 E(B2PLYPD3) =    -0.11568007728858D+03

 The electronic state is 1-A.
 Alpha  occ. eigenvalues --  -19.73718 -10.63955  -1.13844  -0.78639  -0.57129
 Alpha  occ. eigenvalues --   -0.52303  -0.49272  -0.40783  -0.35260
 Alpha virt. eigenvalues --    0.03641   0.07847   0.12512   0.12711   0.15065
 Alpha virt. eigenvalues --    0.17153   0.18381   0.28621   0.30046   0.33651
 Alpha virt. eigenvalues --    0.34404   0.38841   0.39718   0.42239   0.44250

 Mulliken charges:
               1
     1  C    0.076676
     2  O   -0.484767
     3  H    0.047652
     4  H    0.046484
     5  H    0.064843
     6  H    0.249112
 Sum of Mulliken charges =   0.00000

 Dipole moment (field-independent basis, Debye):
    X=              0.8802    Y=              1.6301    Z=             -0.0013  Tot=              1.8526
 Quadrupole moment (field-independent basis, Debye-Ang):
   XX=            -12.9590   YY=            -11.9630   ZZ=            -13.8620
   XY=             -2.3279   XZ=             -0.0291   YZ=             -0.0107

 Normal termination of Gaussian 09 at Wed Aug 26 23:21:23 2020.
