 Gaussian 09, Revision D.01,
 Gaussian 09:  ES64L-G09RevD.01 24-Apr-2013

 --------------------
 #p B2PLYPD3/Def2QZVP
 --------------------

 --------
 methanol
 --------
 Symbolic Z-matrix:
 Charge =  0 Multiplicity = 1

                         Standard orientation:
 ---------------------------------------------------------------------
 Center     Atomic      Atomic             Coordinates (Angstroms)
 Number     Number       Type             X           Y           Z
 ---------------------------------------------------------------------
      1          6           0        0.664198   -0.025778    0.003561
      2          8           0       -0.752078    0.107842   -0.000675
      3          1           0        1.027077   -0.550682   -0.914002
      4          1           0        0.967734   -0.567742    0.918233
      5          1           0        1.153533    1.023993    0.004113
      6          1           0       -1.116908   -0.613639   -0.024307
 ---------------------------------------------------------------------

 SCF Done:  E(RB2PLYPD3) =  -115.520154306     A.U. after   10 cycles
 E2(B2PLYPD3) =    -0.1450887464D+00 E(B2PLYPD3) =    -0.11566524305250D+03

 The electronic state is 1-A.
 Alpha  occ. eigenvalues --  -19.70986 -10.67155  -1.20004  -0.79688  -0.60540
 Alpha  occ. eigenvalues --   -0.52093  -0.49817  -0.40723  -0.35845
 Alpha virt. eigenvalues --    0.05385   0.08774   0.12114   0.12180   0.14509
 Alpha virt. eigenvalues --    0.17397   0.17829   0.28944   0.32753   0.33255
 Alpha virt. eigenvalues --    0.36639   0.38742   0.39761   0.40412   0.43415

 Mulliken charges:
               1
     1  C    0.065196
     2  O   -0.367694
     3  H    0.050012
     4  H    0.053309
     5  H    0.070083
     6  H    0.129093
 Sum of Mulliken charges =   0.00000

 Dipole moment (field-independent basis, Debye):
    X=              0.9096    Y=             -1.3855    Z=             -0.0359  Tot=              1.6578
 Quadrupole moment (field-independent basis, Debye-Ang):
   XX=            -13.0074   YY=            -12.5076   ZZ=            -13.6326
   XY=              2.1395   XZ=              0.0122   YZ=              0.0086

 Normal termination of Gaussian 09 at Thu Aug 27 00:06:08 2020.
