 Gaussian 09, Revision D.01,
 Gaussian 09:  ES64L-G09RevD.01 24-Apr-2013

 --------------------
 #p B2PLYPD3/Def2QZVP
 --------------------

 --------
 methanol
 --------
 Symbolic Z-matrix:
 Charge =  0 Multiplicity = 1

                         Standard orientation:
 ---------------------------------------------------------------------
 Center     Atomic      Atomic             Coordinates (Angstroms)
 Number     Number       Type             X           Y           Z
 ---------------------------------------------------------------------
      1          6           0        0.666264   -0.024074    0.002811
      2          8           0       -0.748565    0.095570   -0.001520
      3          1           0        1.021946   -0.623714   -0.880066
      4          1           0        1.058971   -0.458212    0.945009
      5          1           0        1.027938    1.075310   -0.093000
      6          1           0       -1.117922   -0.613499    0.023346
 ---------------------------------------------------------------------

 SCF Done:  E(RB2PLYPD3) =  -115.514997411     A.U. after   10 cycles
 E2(B2PLYPD3) =    -0.1450375274D+00 E(B2PLYPD3) =    -0.11566003493831D+03

 The electronic state is 1-A.
 Alpha  occ. eigenvalues --  -19.70881 -10.67246  -1.20307  -0.79839  -0.60817
 Alpha  occ. eigenvalues --   -0.51823  -0.49419  -0.40869  -0.35905
 Alpha virt. eigenvalues --    0.05381   0.08855   0.11901   0.12189   0.14825
 Alpha virt. eigenvalues --    0.16844   0.17983   0.28964   0.33042   0.33331
 Alpha virt. eigenvalues --    0.37011   0.38789   0.40076   0.40333   0.42353

 Mulliken charges:
               1
     1  C    0.056832
     2  O   -0.352720
     3  H    0.051112
     4  H    0.056182
     5  H    0.070493
     6  H    0.118102
 Sum of Mulliken charges =   0.00000

 Dipole moment (field-independent basis, Debye):
    X=              0.8579    Y=             -1.3703    Z=              0.0587  Tot=              1.6177
 Quadrupole moment (field-independent basis, Debye-Ang):
   XX=            -13.0913   YY=            -12.4151   ZZ=            -13.6443
   XY=              1.9549   XZ=             -0.0230   YZ=             -0.0420

 Normal termination of Gaussian 09 at Wed Aug 26 16:32:50 2020.
