 Gaussian 09, Revision D.01,
 Gaussian 09:  ES64L-G09RevD.01 24-Apr-2013

 --------------------
 #p B2PLYPD3/Def2QZVP
 --------------------

 --------
 methanol
 --------
 Symbolic Z-matrix:
 Charge =  0 Multiplicity = 1

                         Standard orientation:
 ---------------------------------------------------------------------
 Center     Atomic      Atomic             Coordinates (Angstroms)
 Number     Number       Type             X           Y           Z
 ---------------------------------------------------------------------
      1          6           0        0.644424   -0.028658    0.028956
      2          8           0       -0.754574    0.052258   -0.019673
      3          1           0        1.034106   -0.985918   -0.694225
      4          1           0        1.164274   -0.058575    1.062500
      5          1           0        1.110428    1.077354   -0.528125
      6          1           0       -1.138759   -0.278973    0.143498
 ---------------------------------------------------------------------

 SCF Done:  E(RB2PLYPD3) =  -114.925725169     A.U. after   12 cycles
 E2(B2PLYPD3) =    -0.1441942391D+00 E(B2PLYPD3) =    -0.11506991940830D+03

 The electronic state is 1-A.
 Alpha  occ. eigenvalues --  -19.69094 -10.71894  -1.32163  -0.85597  -0.63076
 Alpha  occ. eigenvalues --   -0.51374  -0.49529  -0.38210  -0.36681
 Alpha virt. eigenvalues --    0.04572   0.09377   0.10604   0.11500   0.14269
 Alpha virt. eigenvalues --    0.16635   0.18164   0.28235   0.31360   0.32302
 Alpha virt. eigenvalues --    0.33485   0.35072   0.37535   0.40915   0.42359

 Mulliken charges:
               1
     1  C    0.038117
     2  O   -0.056901
     3  H    0.047313
     4  H    0.072342
     5  H    0.063186
     6  H   -0.164056
 Sum of Mulliken charges =   0.00000

 Dipole moment (field-independent basis, Debye):
    X=              0.7328    Y=             -0.8669    Z=              0.5589  Tot=              1.2652
 Quadrupole moment (field-independent basis, Debye-Ang):
   XX=            -12.6114   YY=            -13.1861   ZZ=            -13.3995
   XY=              1.4405   XZ=             -0.4087   YZ=             -0.1366

 Normal termination of Gaussian 09 at Wed Aug 26 22:43:09 2020.
