 Gaussian 09, Revision D.01,
 Gaussian 09:  ES64L-G09RevD.01 24-Apr-2013

 --------------------
 #p B2PLYPD3/Def2QZVP
 --------------------

 --------
 methanol
 --------
 Symbolic Z-matrix:
 Charge =  0 Multiplicity = 1

                         Standard orientation:
 ---------------------------------------------------------------------
 Center     Atomic      Atomic             Coordinates (Angstroms)
 Number     Number       Type             X           Y           Z
 ---------------------------------------------------------------------
      1          6           0        0.678632   -0.020084    0.004005
      2          8           0       -0.753130    0.112345   -0.010605
      3          1           0        1.037999   -0.628548   -0.854236
      4          1           0        0.997537   -0.489819    0.913491
      5          1           0        1.079679    1.023758   -0.045920
      6          1           0       -1.161967   -0.683649    0.047477
 ---------------------------------------------------------------------

 SCF Done:  E(RB2PLYPD3) =  -115.547879013     A.U. after   10 cycles
 E2(B2PLYPD3) =    -0.1463895079D+00 E(B2PLYPD3) =    -0.11569426852061D+03

 The electronic state is 1-A.
 Alpha  occ. eigenvalues --  -19.71675 -10.66256  -1.16772  -0.79193  -0.59322
 Alpha  occ. eigenvalues --   -0.51622  -0.49519  -0.41054  -0.35501
 Alpha virt. eigenvalues --    0.05245   0.08433   0.12162   0.12364   0.14825
 Alpha virt. eigenvalues --    0.17070   0.17850   0.29179   0.32683   0.33313
 Alpha virt. eigenvalues --    0.37014   0.38478   0.39611   0.40635   0.43386

 Mulliken charges:
               1
     1  C    0.073101
     2  O   -0.445263
     3  H    0.049421
     4  H    0.053530
     5  H    0.074352
     6  H    0.194859
 Sum of Mulliken charges =   0.00000

 Dipole moment (field-independent basis, Debye):
    X=              0.9115    Y=             -1.4574    Z=              0.1455  Tot=              1.7251
 Quadrupole moment (field-independent basis, Debye-Ang):
   XX=            -12.9257   YY=            -12.2704   ZZ=            -13.7556
   XY=              2.1814   XZ=             -0.1371   YZ=             -0.0789

 Normal termination of Gaussian 09 at Wed Aug 26 23:59:42 2020.
