 Gaussian 09, Revision D.01,
 Gaussian 09:  ES64L-G09RevD.01 24-Apr-2013

 --------------------
 #p B2PLYPD3/Def2QZVP
 --------------------

 --------
 methanol
 --------
 Symbolic Z-matrix:
 Charge =  0 Multiplicity = 1

                         Standard orientation:
 ---------------------------------------------------------------------
 Center     Atomic      Atomic             Coordinates (Angstroms)
 Number     Number       Type             X           Y           Z
 ---------------------------------------------------------------------
      1          6           0        0.655903    0.003355    0.007344
      2          8           0       -0.743951   -0.073768   -0.033445
      3          1           0        1.043971    0.092732    1.106138
      4          1           0        0.989733    0.934967   -0.683280
      5          1           0        1.045784   -0.929822   -0.435470
      6          1           0       -1.063299    0.472138    0.236107
 ---------------------------------------------------------------------

 SCF Done:  E(RB2PLYPD3) =  -115.403167441     A.U. after   11 cycles
 E2(B2PLYPD3) =    -0.1436320631D+00 E(B2PLYPD3) =    -0.11554679950425D+03

 The electronic state is 1-A.
 Alpha  occ. eigenvalues --  -19.69694 -10.68295  -1.25255  -0.81672  -0.61440
 Alpha  occ. eigenvalues --   -0.51509  -0.51319  -0.41008  -0.35770
 Alpha virt. eigenvalues --    0.05362   0.09304   0.11562   0.12262   0.14279
 Alpha virt. eigenvalues --    0.16956   0.17826   0.28438   0.32456   0.33420
 Alpha virt. eigenvalues --    0.36014   0.38452   0.39760   0.40864   0.42995

 Mulliken charges:
               1
     1  C    0.049233
     2  O   -0.232061
     3  H    0.047325
     4  H    0.039811
     5  H    0.085921
     6  H    0.009771
 Sum of Mulliken charges =   0.00000

 Dipole moment (field-independent basis, Debye):
    X=              0.8641    Y=              0.9911    Z=              0.5413  Tot=              1.4220
 Quadrupole moment (field-independent basis, Debye-Ang):
   XX=            -13.2797   YY=            -12.7604   ZZ=            -13.2855
   XY=             -1.8551   XZ=             -0.7798   YZ=              0.3801

 Normal termination of Gaussian 09 at Wed Aug 26 12:09:42 2020.
