 Gaussian 09, Revision D.01,
 Gaussian 09:  ES64L-G09RevD.01 24-Apr-2013

 --------------------
 #p B2PLYPD3/Def2QZVP
 --------------------

 --------
 methanol
 --------
 Symbolic Z-matrix:
 Charge =  0 Multiplicity = 1

                         Standard orientation:
 ---------------------------------------------------------------------
 Center     Atomic      Atomic             Coordinates (Angstroms)
 Number     Number       Type             X           Y           Z
 ---------------------------------------------------------------------
      1          6           0        0.670079   -0.014800    0.009251
      2          8           0       -0.746729    0.102815   -0.009634
      3          1           0        1.069023   -0.614408   -0.888053
      4          1           0        1.010937   -0.485855    0.939884
      5          1           0        1.033922    1.023979   -0.059554
      6          1           0       -1.160522   -0.657441    0.029284
 ---------------------------------------------------------------------

 SCF Done:  E(RB2PLYPD3) =  -115.541558339     A.U. after   10 cycles
 E2(B2PLYPD3) =    -0.1458855205D+00 E(B2PLYPD3) =    -0.11568744385930D+03

 The electronic state is 1-A.
 Alpha  occ. eigenvalues --  -19.71481 -10.66705  -1.18041  -0.79370  -0.59827
 Alpha  occ. eigenvalues --   -0.51374  -0.49992  -0.40863  -0.35454
 Alpha virt. eigenvalues --    0.05324   0.08549   0.12177   0.12277   0.14822
 Alpha virt. eigenvalues --    0.16904   0.17997   0.29070   0.33116   0.33318
 Alpha virt. eigenvalues --    0.37252   0.38957   0.39490   0.40207   0.42877

 Mulliken charges:
               1
     1  C    0.064422
     2  O   -0.417345
     3  H    0.044233
     4  H    0.053587
     5  H    0.077275
     6  H    0.177828
 Sum of Mulliken charges =   0.00000

 Dipole moment (field-independent basis, Debye):
    X=              0.8156    Y=             -1.3710    Z=              0.1216  Tot=              1.5999
 Quadrupole moment (field-independent basis, Debye-Ang):
   XX=            -12.9376   YY=            -12.3833   ZZ=            -13.7275
   XY=              2.1489   XZ=             -0.0962   YZ=             -0.0954

 Normal termination of Gaussian 09 at Wed Aug 26 19:41:28 2020.
