 Gaussian 09, Revision D.01,
 Gaussian 09:  ES64L-G09RevD.01 24-Apr-2013

 --------------------
 #p B2PLYPD3/Def2QZVP
 --------------------

 --------
 methanol
 --------
 Symbolic Z-matrix:
 Charge =  0 Multiplicity = 1

                         Standard orientation:
 ---------------------------------------------------------------------
 Center     Atomic      Atomic             Coordinates (Angstroms)
 Number     Number       Type             X           Y           Z
 ---------------------------------------------------------------------
      1          6           0        0.657828    0.029980    0.008241
      2          8           0       -0.730084   -0.153856   -0.010178
      3          1           0        0.953561    0.431595    0.898940
      4          1           0        0.996865    0.601543   -0.829467
      5          1           0        1.105370   -0.885327   -0.073155
      6          1           0       -1.162087    0.903158    0.035659
 ---------------------------------------------------------------------

 SCF Done:  E(RB2PLYPD3) =  -115.520706401     A.U. after   11 cycles
 E2(B2PLYPD3) =    -0.1498855399D+00 E(B2PLYPD3) =    -0.11567059194049D+03

 The electronic state is 1-A.
 Alpha  occ. eigenvalues --  -19.73663 -10.63323  -1.14043  -0.78696  -0.56506
 Alpha  occ. eigenvalues --   -0.53174  -0.50105  -0.40300  -0.35054
 Alpha virt. eigenvalues --    0.03213   0.07917   0.12506   0.12890   0.14710
 Alpha virt. eigenvalues --    0.17626   0.18286   0.27963   0.29548   0.33278
 Alpha virt. eigenvalues --    0.34731   0.39415   0.40945   0.42642   0.43665

 Mulliken charges:
               1
     1  C    0.082752
     2  O   -0.486146
     3  H    0.047155
     4  H    0.041004
     5  H    0.062275
     6  H    0.252959
 Sum of Mulliken charges =   0.00000

 Dipole moment (field-independent basis, Debye):
    X=              0.8802    Y=              1.6220    Z=              0.1050  Tot=              1.8484
 Quadrupole moment (field-independent basis, Debye-Ang):
   XX=            -13.0507   YY=            -11.9880   ZZ=            -13.7240
   XY=             -2.4922   XZ=             -0.1076   YZ=              0.0744

 Normal termination of Gaussian 09 at Wed Aug 26 12:11:04 2020.
