 Gaussian 09, Revision D.01,
 Gaussian 09:  ES64L-G09RevD.01 24-Apr-2013

 --------------------
 #p B2PLYPD3/Def2QZVP
 --------------------

 --------
 methanol
 --------
 Symbolic Z-matrix:
 Charge =  0 Multiplicity = 1

                         Standard orientation:
 ---------------------------------------------------------------------
 Center     Atomic      Atomic             Coordinates (Angstroms)
 Number     Number       Type             X           Y           Z
 ---------------------------------------------------------------------
      1          6           0        0.673861    0.012700   -0.004897
      2          8           0       -0.749777   -0.134275   -0.011276
      3          1           0        1.007638    0.427539    0.910058
      4          1           0        0.942280    0.670057   -0.822806
      5          1           0        1.096113   -0.927075   -0.070526
      6          1           0       -1.090983    0.827482    0.102866
 ---------------------------------------------------------------------

 SCF Done:  E(RB2PLYPD3) =  -115.543707814     A.U. after   10 cycles
 E2(B2PLYPD3) =    -0.1483670176D+00 E(B2PLYPD3) =    -0.11569207483118D+03

 The electronic state is 1-A.
 Alpha  occ. eigenvalues --  -19.72867 -10.64505  -1.14654  -0.78877  -0.57576
 Alpha  occ. eigenvalues --   -0.52378  -0.49836  -0.41540  -0.35102
 Alpha virt. eigenvalues --    0.04442   0.08210   0.12316   0.12614   0.14680
 Alpha virt. eigenvalues --    0.17423   0.17980   0.29230   0.31997   0.33137
 Alpha virt. eigenvalues --    0.33728   0.39437   0.40480   0.41717   0.44135

 Mulliken charges:
               1
     1  C    0.082588
     2  O   -0.480849
     3  H    0.043481
     4  H    0.044711
     5  H    0.072079
     6  H    0.237989
 Sum of Mulliken charges =   0.00000

 Dipole moment (field-independent basis, Debye):
    X=              1.0413    Y=              1.5508    Z=              0.2122  Tot=              1.8800
 Quadrupole moment (field-independent basis, Debye-Ang):
   XX=            -13.3262   YY=            -11.9323   ZZ=            -13.7528
   XY=             -2.3244   XZ=             -0.1549   YZ=              0.1129

 Normal termination of Gaussian 09 at Wed Aug 26 14:44:21 2020.
