 Gaussian 09, Revision D.01,
 Gaussian 09:  ES64L-G09RevD.01 24-Apr-2013

 --------------------
 #p B2PLYPD3/Def2QZVP
 --------------------

 --------
 methanol
 --------
 Symbolic Z-matrix:
 Charge =  0 Multiplicity = 1

                         Standard orientation:
 ---------------------------------------------------------------------
 Center     Atomic      Atomic             Coordinates (Angstroms)
 Number     Number       Type             X           Y           Z
 ---------------------------------------------------------------------
      1          6           0       -0.670789   -0.027033    0.009052
      2          8           0        0.756072    0.108754   -0.017334
      3          1           0       -1.006101   -0.429255    0.934591
      4          1           0       -1.057135   -0.637804   -0.860549
      5          1           0       -1.081730    1.032961   -0.072762
      6          1           0        1.121122   -0.673736    0.083081
 ---------------------------------------------------------------------

 SCF Done:  E(RB2PLYPD3) =  -115.541534793     A.U. after   10 cycles
 E2(B2PLYPD3) =    -0.1461176734D+00 E(B2PLYPD3) =    -0.11568765246637D+03

 The electronic state is 1-A.
 Alpha  occ. eigenvalues --  -19.71693 -10.66542  -1.17935  -0.79197  -0.59742
 Alpha  occ. eigenvalues --   -0.51936  -0.49262  -0.41089  -0.35852
 Alpha virt. eigenvalues --    0.05296   0.08530   0.12109   0.12250   0.14737
 Alpha virt. eigenvalues --    0.17138   0.18100   0.28998   0.32714   0.33389
 Alpha virt. eigenvalues --    0.37177   0.38009   0.39570   0.40968   0.43405

 Mulliken charges:
               1
     1  C    0.065565
     2  O   -0.419040
     3  H    0.057550
     4  H    0.050586
     5  H    0.067800
     6  H    0.177540
 Sum of Mulliken charges =   0.00000

 Dipole moment (field-independent basis, Debye):
    X=             -0.9361    Y=             -1.4346    Z=              0.2482  Tot=              1.7309
 Quadrupole moment (field-independent basis, Debye-Ang):
   XX=            -13.0696   YY=            -12.3810   ZZ=            -13.6548
   XY=             -2.0876   XZ=              0.2175   YZ=             -0.1351

 Normal termination of Gaussian 09 at Wed Aug 26 23:40:37 2020.
