 Gaussian 09, Revision D.01,
 Gaussian 09:  ES64L-G09RevD.01 24-Apr-2013

 --------------------
 #p B2PLYPD3/Def2QZVP
 --------------------

 --------
 methanol
 --------
 Symbolic Z-matrix:
 Charge =  0 Multiplicity = 1

                         Standard orientation:
 ---------------------------------------------------------------------
 Center     Atomic      Atomic             Coordinates (Angstroms)
 Number     Number       Type             X           Y           Z
 ---------------------------------------------------------------------
      1          6           0       -0.659160   -0.010486    0.004707
      2          8           0        0.740716    0.113062   -0.006320
      3          1           0       -1.003296   -0.515546    0.922172
      4          1           0       -0.998114   -0.601377   -0.902662
      5          1           0       -1.075911    0.977619   -0.035378
      6          1           0        1.106556   -0.702271    0.038188
 ---------------------------------------------------------------------

 SCF Done:  E(RB2PLYPD3) =  -115.548306744     A.U. after   10 cycles
 E2(B2PLYPD3) =    -0.1460031973D+00 E(B2PLYPD3) =    -0.11569430994172D+03

 The electronic state is 1-A.
 Alpha  occ. eigenvalues --  -19.71855 -10.66023  -1.18100  -0.79065  -0.59627
 Alpha  occ. eigenvalues --   -0.51710  -0.50756  -0.41192  -0.35215
 Alpha virt. eigenvalues --    0.05183   0.08613   0.12171   0.12495   0.14754
 Alpha virt. eigenvalues --    0.17308   0.17861   0.29067   0.32965   0.33880
 Alpha virt. eigenvalues --    0.36511   0.39384   0.40116   0.40450   0.43832

 Mulliken charges:
               1
     1  C    0.068147
     2  O   -0.425638
     3  H    0.045215
     4  H    0.040618
     5  H    0.075728
     6  H    0.195930
 Sum of Mulliken charges =   0.00000

 Dipole moment (field-independent basis, Debye):
    X=             -0.8458    Y=             -1.4047    Z=              0.1107  Tot=              1.6434
 Quadrupole moment (field-independent basis, Debye-Ang):
   XX=            -13.1771   YY=            -12.2696   ZZ=            -13.7234
   XY=             -2.2407   XZ=              0.0663   YZ=             -0.0833

 Normal termination of Gaussian 09 at Thu Aug 27 00:06:59 2020.
