 Gaussian 09, Revision D.01,
 Gaussian 09:  ES64L-G09RevD.01 24-Apr-2013

 --------------------
 #p B2PLYPD3/Def2QZVP
 --------------------

 --------
 methanol
 --------
 Symbolic Z-matrix:
 Charge =  0 Multiplicity = 1

                         Standard orientation:
 ---------------------------------------------------------------------
 Center     Atomic      Atomic             Coordinates (Angstroms)
 Number     Number       Type             X           Y           Z
 ---------------------------------------------------------------------
      1          6           0       -0.670675   -0.028066   -0.009841
      2          8           0        0.758827    0.101561   -0.021330
      3          1           0       -1.011668   -0.338417    0.980874
      4          1           0       -0.919700   -0.744924   -0.813156
      5          1           0       -1.095239    1.054041   -0.131842
      6          1           0        0.980041   -0.614791    0.193814
 ---------------------------------------------------------------------

 SCF Done:  E(RB2PLYPD3) =  -115.498880114     A.U. after   10 cycles
 E2(B2PLYPD3) =    -0.1451009707D+00 E(B2PLYPD3) =    -0.11564398108474D+03

 The electronic state is 1-A.
 Alpha  occ. eigenvalues --  -19.70622 -10.67038  -1.21395  -0.79339  -0.60470
 Alpha  occ. eigenvalues --   -0.53161  -0.48845  -0.41874  -0.36118
 Alpha virt. eigenvalues --    0.05288   0.09091   0.11793   0.11911   0.14452
 Alpha virt. eigenvalues --    0.17088   0.17867   0.28773   0.31603   0.33302
 Alpha virt. eigenvalues --    0.36471   0.38456   0.40374   0.41005   0.43798

 Mulliken charges:
               1
     1  C    0.066145
     2  O   -0.335455
     3  H    0.050373
     4  H    0.058834
     5  H    0.065924
     6  H    0.094179
 Sum of Mulliken charges =   0.00000

 Dipole moment (field-independent basis, Debye):
    X=             -1.1465    Y=             -1.3502    Z=              0.4292  Tot=              1.8225
 Quadrupole moment (field-independent basis, Debye-Ang):
   XX=            -13.7260   YY=            -12.2606   ZZ=            -13.4394
   XY=             -1.8539   XZ=              0.3632   YZ=             -0.1633

 Normal termination of Gaussian 09 at Wed Aug 26 22:42:11 2020.
