 Gaussian 09, Revision D.01,
 Gaussian 09:  ES64L-G09RevD.01 24-Apr-2013

 --------------------
 #p B2PLYPD3/Def2QZVP
 --------------------

 --------
 methanol
 --------
 Symbolic Z-matrix:
 Charge =  0 Multiplicity = 1

                         Standard orientation:
 ---------------------------------------------------------------------
 Center     Atomic      Atomic             Coordinates (Angstroms)
 Number     Number       Type             X           Y           Z
 ---------------------------------------------------------------------
      1          6           0        0.670260    0.028755    0.009591
      2          8           0       -0.755702   -0.149124   -0.014434
      3          1           0        1.050061    0.391241    0.855366
      4          1           0        1.019021    0.627713   -0.814666
      5          1           0        1.103207   -0.917608   -0.077319
      6          1           0       -1.148232    0.919116    0.094546
 ---------------------------------------------------------------------

 SCF Done:  E(RB2PLYPD3) =  -115.518194017     A.U. after   11 cycles
 E2(B2PLYPD3) =    -0.1507181055D+00 E(B2PLYPD3) =    -0.11566891212282D+03

 The electronic state is 1-A.
 Alpha  occ. eigenvalues --  -19.74096 -10.63733  -1.12931  -0.79256  -0.56203
 Alpha  occ. eigenvalues --   -0.52416  -0.49063  -0.40992  -0.35464
 Alpha virt. eigenvalues --    0.03263   0.07701   0.12542   0.12692   0.14818
 Alpha virt. eigenvalues --    0.17502   0.18477   0.27808   0.29622   0.33218
 Alpha virt. eigenvalues --    0.33961   0.38966   0.39749   0.42090   0.44270

 Mulliken charges:
               1
     1  C    0.085514
     2  O   -0.491584
     3  H    0.049495
     4  H    0.044209
     5  H    0.061092
     6  H    0.251273
 Sum of Mulliken charges =   0.00000

 Dipole moment (field-independent basis, Debye):
    X=              1.0322    Y=              1.6442    Z=              0.2345  Tot=              1.9555
 Quadrupole moment (field-independent basis, Debye-Ang):
   XX=            -13.0360   YY=            -11.9134   ZZ=            -13.8436
   XY=             -2.3623   XZ=             -0.1090   YZ=              0.1436

 Normal termination of Gaussian 09 at Wed Aug 26 15:02:55 2020.
