 Gaussian 09, Revision D.01,
 Gaussian 09:  ES64L-G09RevD.01 24-Apr-2013

 --------------------
 #p B2PLYPD3/Def2QZVP
 --------------------

 --------
 methanol
 --------
 Symbolic Z-matrix:
 Charge =  0 Multiplicity = 1

                         Standard orientation:
 ---------------------------------------------------------------------
 Center     Atomic      Atomic             Coordinates (Angstroms)
 Number     Number       Type             X           Y           Z
 ---------------------------------------------------------------------
      1          6           0       -0.669377    0.016178    0.020377
      2          8           0        0.750571   -0.096864   -0.032746
      3          1           0       -0.941097    0.903988   -0.721022
      4          1           0       -1.057701    0.128220    1.022536
      5          1           0       -1.090320   -0.923286   -0.392296
      6          1           0        1.100815    0.568925    0.230489
 ---------------------------------------------------------------------

 SCF Done:  E(RB2PLYPD3) =  -115.511054796     A.U. after   11 cycles
 E2(B2PLYPD3) =    -0.1450064279D+00 E(B2PLYPD3) =    -0.11565606122361D+03

 The electronic state is 1-A.
 Alpha  occ. eigenvalues --  -19.70776 -10.67135  -1.20315  -0.80018  -0.60383
 Alpha  occ. eigenvalues --   -0.51943  -0.50271  -0.40895  -0.35724
 Alpha virt. eigenvalues --    0.05381   0.08870   0.11784   0.12396   0.14282
 Alpha virt. eigenvalues --    0.17178   0.18075   0.28806   0.32107   0.33460
 Alpha virt. eigenvalues --    0.36505   0.38963   0.39867   0.41101   0.43317

 Mulliken charges:
               1
     1  C    0.059872
     2  O   -0.353666
     3  H    0.041769
     4  H    0.060477
     5  H    0.074741
     6  H    0.116807
 Sum of Mulliken charges =   0.00000

 Dipole moment (field-independent basis, Debye):
    X=             -0.9279    Y=              1.1774    Z=              0.5637  Tot=              1.6016
 Quadrupole moment (field-independent basis, Debye-Ang):
   XX=            -13.1357   YY=            -12.6884   ZZ=            -13.3631
   XY=              2.0971   XZ=              0.5655   YZ=              0.3424

 Normal termination of Gaussian 09 at Wed Aug 26 13:42:08 2020.
