 Gaussian 09, Revision D.01,
 Gaussian 09:  ES64L-G09RevD.01 24-Apr-2013

 --------------------
 #p B2PLYPD3/Def2QZVP
 --------------------

 --------
 methanol
 --------
 Symbolic Z-matrix:
 Charge =  0 Multiplicity = 1

                         Standard orientation:
 ---------------------------------------------------------------------
 Center     Atomic      Atomic             Coordinates (Angstroms)
 Number     Number       Type             X           Y           Z
 ---------------------------------------------------------------------
      1          6           0        0.661489    0.002151    0.008578
      2          8           0       -0.747081    0.076491   -0.016141
      3          1           0        1.058918   -0.832899   -0.789253
      4          1           0        1.058404   -0.293708    1.050548
      5          1           0        1.034674    1.016832   -0.283067
      6          1           0       -1.144284   -0.515053    0.099436
 ---------------------------------------------------------------------

 SCF Done:  E(RB2PLYPD3) =  -115.444751238     A.U. after   11 cycles
 E2(B2PLYPD3) =    -0.1442273903D+00 E(B2PLYPD3) =    -0.11558897862840D+03

 The electronic state is 1-A.
 Alpha  occ. eigenvalues --  -19.70027 -10.68638  -1.23108  -0.81460  -0.61320
 Alpha  occ. eigenvalues --   -0.51118  -0.50567  -0.40510  -0.35542
 Alpha virt. eigenvalues --    0.05345   0.09041   0.11711   0.12124   0.14611
 Alpha virt. eigenvalues --    0.16800   0.17753   0.28819   0.32429   0.33152
 Alpha virt. eigenvalues --    0.36134   0.38491   0.39109   0.40523   0.42078

 Mulliken charges:
               1
     1  C    0.052789
     2  O   -0.265196
     3  H    0.034150
     4  H    0.051832
     5  H    0.088891
     6  H    0.037534
 Sum of Mulliken charges =   0.00000

 Dipole moment (field-independent basis, Debye):
    X=              0.7702    Y=             -1.1039    Z=              0.2814  Tot=              1.3752
 Quadrupole moment (field-independent basis, Debye-Ang):
   XX=            -12.9232   YY=            -12.6285   ZZ=            -13.6563
   XY=              1.9884   XZ=             -0.3128   YZ=             -0.2587

 Normal termination of Gaussian 09 at Wed Aug 26 14:14:15 2020.
