 Gaussian 09, Revision D.01,
 Gaussian 09:  ES64L-G09RevD.01 24-Apr-2013

 --------------------
 #p B2PLYPD3/Def2QZVP
 --------------------

 --------
 methanol
 --------
 Symbolic Z-matrix:
 Charge =  0 Multiplicity = 1

                         Standard orientation:
 ---------------------------------------------------------------------
 Center     Atomic      Atomic             Coordinates (Angstroms)
 Number     Number       Type             X           Y           Z
 ---------------------------------------------------------------------
      1          6           0       -0.650614    0.032131    0.003896
      2          8           0        0.709006   -0.206074    0.007251
      3          1           0       -1.013416    0.479012   -0.730720
      4          1           0       -0.842353    0.654744    0.738549
      5          1           0       -1.183861   -0.782792    0.012591
      6          1           0        1.271266    1.104835   -0.101804
 ---------------------------------------------------------------------

 SCF Done:  E(RB2PLYPD3) =  -115.413101613     A.U. after   12 cycles
 E2(B2PLYPD3) =    -0.1551096693D+00 E(B2PLYPD3) =    -0.11556821128251D+03

 The electronic state is 1-A.
 Alpha  occ. eigenvalues --  -19.75049 -10.60434  -1.12999  -0.80778  -0.55978
 Alpha  occ. eigenvalues --   -0.53739  -0.49748  -0.39082  -0.34514
 Alpha virt. eigenvalues --   -0.02188   0.07569   0.12771   0.13210   0.14815
 Alpha virt. eigenvalues --    0.17665   0.18565   0.22029   0.29900   0.32788
 Alpha virt. eigenvalues --    0.35683   0.39359   0.39919   0.44425   0.45086

 Mulliken charges:
               1
     1  C    0.115833
     2  O   -0.473965
     3  H    0.033601
     4  H    0.035015
     5  H    0.054452
     6  H    0.235063
 Sum of Mulliken charges =   0.00000

 Dipole moment (field-independent basis, Debye):
    X=             -0.9371    Y=              1.8004    Z=             -0.2132  Tot=              2.0408
 Quadrupole moment (field-independent basis, Debye-Ang):
   XX=            -12.6659   YY=            -11.4140   ZZ=            -14.0490
   XY=              2.6688   XZ=              0.0440   YZ=             -0.0891

 Normal termination of Gaussian 09 at Wed Aug 26 22:39:23 2020.
