 Gaussian 09, Revision D.01,
 Gaussian 09:  ES64L-G09RevD.01 24-Apr-2013

 --------------------
 #p B2PLYPD3/Def2QZVP
 --------------------

 --------
 methanol
 --------
 Symbolic Z-matrix:
 Charge =  0 Multiplicity = 1

                         Standard orientation:
 ---------------------------------------------------------------------
 Center     Atomic      Atomic             Coordinates (Angstroms)
 Number     Number       Type             X           Y           Z
 ---------------------------------------------------------------------
      1          6           0        0.658612   -0.030791    0.006427
      2          8           0       -0.726730    0.087478   -0.014407
      3          1           0        0.836001   -0.854626   -0.801385
      4          1           0        1.009798   -0.282916    1.047812
      5          1           0        1.122843    1.040300   -0.307303
      6          1           0       -1.106474   -0.417834    0.137576
 ---------------------------------------------------------------------

 SCF Done:  E(RB2PLYPD3) =  -115.331301664     A.U. after   11 cycles
 E2(B2PLYPD3) =    -0.1431934551D+00 E(B2PLYPD3) =    -0.11547449511903D+03

 The electronic state is 1-A.
 Alpha  occ. eigenvalues --  -19.68615 -10.68655  -1.26502  -0.82927  -0.61747
 Alpha  occ. eigenvalues --   -0.52927  -0.50392  -0.39505  -0.35770
 Alpha virt. eigenvalues --    0.05239   0.09553   0.11769   0.11826   0.14040
 Alpha virt. eigenvalues --    0.16881   0.17404   0.28547   0.32113   0.33566
 Alpha virt. eigenvalues --    0.35453   0.38373   0.39581   0.40919   0.43378

 Mulliken charges:
               1
     1  C    0.053283
     2  O   -0.197979
     3  H    0.049291
     4  H    0.053546
     5  H    0.074033
     6  H   -0.032175
 Sum of Mulliken charges =   0.00000

 Dipole moment (field-independent basis, Debye):
    X=              0.7487    Y=             -1.1063    Z=              0.3701  Tot=              1.3861
 Quadrupole moment (field-independent basis, Debye-Ang):
   XX=            -13.1114   YY=            -12.7377   ZZ=            -13.3217
   XY=              1.9613   XZ=             -0.3272   YZ=             -0.1705

 Normal termination of Gaussian 09 at Wed Aug 26 23:48:38 2020.
