 Gaussian 09, Revision D.01,
 Gaussian 09:  ES64L-G09RevD.01 24-Apr-2013

 --------------------
 #p B2PLYPD3/Def2QZVP
 --------------------

 --------
 methanol
 --------
 Symbolic Z-matrix:
 Charge =  0 Multiplicity = 1

                         Standard orientation:
 ---------------------------------------------------------------------
 Center     Atomic      Atomic             Coordinates (Angstroms)
 Number     Number       Type             X           Y           Z
 ---------------------------------------------------------------------
      1          6           0       -0.659023   -0.021133    0.001054
      2          8           0        0.754532    0.110831   -0.008624
      3          1           0       -1.007933   -0.511195    0.921553
      4          1           0       -1.046479   -0.561760   -0.900670
      5          1           0       -1.103549    1.006032    0.001099
      6          1           0        1.075839   -0.692931    0.040686
 ---------------------------------------------------------------------

 SCF Done:  E(RB2PLYPD3) =  -115.542827819     A.U. after   10 cycles
 E2(B2PLYPD3) =    -0.1459887530D+00 E(B2PLYPD3) =    -0.11568881657164D+03

 The electronic state is 1-A.
 Alpha  occ. eigenvalues --  -19.71898 -10.66489  -1.18705  -0.79009  -0.59884
 Alpha  occ. eigenvalues --   -0.51903  -0.49908  -0.41304  -0.35784
 Alpha virt. eigenvalues --    0.05276   0.08588   0.12152   0.12317   0.14675
 Alpha virt. eigenvalues --    0.17420   0.18084   0.28931   0.33133   0.33266
 Alpha virt. eigenvalues --    0.37039   0.38447   0.39939   0.40407   0.43722

 Mulliken charges:
               1
     1  C    0.063777
     2  O   -0.407548
     3  H    0.049427
     4  H    0.049086
     5  H    0.068047
     6  H    0.177210
 Sum of Mulliken charges =   0.00000

 Dipole moment (field-independent basis, Debye):
    X=             -0.9504    Y=             -1.4282    Z=              0.1143  Tot=              1.7193
 Quadrupole moment (field-independent basis, Debye-Ang):
   XX=            -13.2220   YY=            -12.3543   ZZ=            -13.6805
   XY=             -2.1127   XZ=              0.1159   YZ=             -0.0538

 Normal termination of Gaussian 09 at Thu Aug 27 00:12:00 2020.
