 Gaussian 09, Revision D.01,
 Gaussian 09:  ES64L-G09RevD.01 24-Apr-2013

 --------------------
 #p B2PLYPD3/Def2QZVP
 --------------------

 --------
 methanol
 --------
 Symbolic Z-matrix:
 Charge =  0 Multiplicity = 1

                         Standard orientation:
 ---------------------------------------------------------------------
 Center     Atomic      Atomic             Coordinates (Angstroms)
 Number     Number       Type             X           Y           Z
 ---------------------------------------------------------------------
      1          6           0        0.656385   -0.020012    0.007871
      2          8           0       -0.757805    0.126549   -0.001988
      3          1           0        1.019143   -0.598212   -0.843939
      4          1           0        1.067081   -0.467281    0.869049
      5          1           0        1.101536    0.987680   -0.078666
      6          1           0       -1.063629   -0.814507    0.022233
 ---------------------------------------------------------------------

 SCF Done:  E(RB2PLYPD3) =  -115.548451866     A.U. after   11 cycles
 E2(B2PLYPD3) =    -0.1480575850D+00 E(B2PLYPD3) =    -0.11569650945088D+03

 The electronic state is 1-A.
 Alpha  occ. eigenvalues --  -19.73241 -10.65320  -1.16000  -0.78564  -0.58565
 Alpha  occ. eigenvalues --   -0.51881  -0.49436  -0.41588  -0.35593
 Alpha virt. eigenvalues --    0.04687   0.08138   0.12306   0.12490   0.14949
 Alpha virt. eigenvalues --    0.17608   0.18165   0.29087   0.32446   0.33394
 Alpha virt. eigenvalues --    0.34952   0.38174   0.39847   0.41410   0.44425

 Mulliken charges:
               1
     1  C    0.071954
     2  O   -0.456583
     3  H    0.041722
     4  H    0.049620
     5  H    0.062301
     6  H    0.230986
 Sum of Mulliken charges =   0.00000

 Dipole moment (field-independent basis, Debye):
    X=              1.0041    Y=             -1.5808    Z=              0.0669  Tot=              1.8739
 Quadrupole moment (field-independent basis, Debye-Ang):
   XX=            -13.3042   YY=            -12.0495   ZZ=            -13.8733
   XY=              2.1206   XZ=              0.0151   YZ=             -0.0693

 Normal termination of Gaussian 09 at Wed Aug 26 12:25:00 2020.
