 Gaussian 09, Revision D.01,
 Gaussian 09:  ES64L-G09RevD.01 24-Apr-2013

 --------------------
 #p B2PLYPD3/Def2QZVP
 --------------------

 --------
 methanol
 --------
 Symbolic Z-matrix:
 Charge =  0 Multiplicity = 1

                         Standard orientation:
 ---------------------------------------------------------------------
 Center     Atomic      Atomic             Coordinates (Angstroms)
 Number     Number       Type             X           Y           Z
 ---------------------------------------------------------------------
      1          6           0       -0.670547   -0.005035    0.014319
      2          8           0        0.746841    0.093917   -0.020618
      3          1           0       -1.036572   -0.289239    1.019099
      4          1           0       -0.983598   -0.789489   -0.825084
      5          1           0       -1.024127    0.967677   -0.260406
      6          1           0        1.092853   -0.610073    0.145424
 ---------------------------------------------------------------------

 SCF Done:  E(RB2PLYPD3) =  -115.514474317     A.U. after   11 cycles
 E2(B2PLYPD3) =    -0.1449574971D+00 E(B2PLYPD3) =    -0.11565943181376D+03

 The electronic state is 1-A.
 Alpha  occ. eigenvalues --  -19.70747 -10.66968  -1.20217  -0.80115  -0.60199
 Alpha  occ. eigenvalues --   -0.51524  -0.50778  -0.41289  -0.35497
 Alpha virt. eigenvalues --    0.05371   0.08927   0.11800   0.12417   0.14466
 Alpha virt. eigenvalues --    0.16961   0.17907   0.28898   0.32441   0.33259
 Alpha virt. eigenvalues --    0.36582   0.39759   0.39927   0.40651   0.43363

 Mulliken charges:
               1
     1  C    0.060847
     2  O   -0.357708
     3  H    0.055402
     4  H    0.038267
     5  H    0.081914
     6  H    0.121277
 Sum of Mulliken charges =   0.00000

 Dipole moment (field-independent basis, Debye):
    X=             -0.9074    Y=             -1.2256    Z=              0.3688  Tot=              1.5689
 Quadrupole moment (field-independent basis, Debye-Ang):
   XX=            -13.2562   YY=            -12.4731   ZZ=            -13.4723
   XY=             -2.1023   XZ=              0.3355   YZ=             -0.3059

 Normal termination of Gaussian 09 at Wed Aug 26 15:22:09 2020.
