 Gaussian 09, Revision D.01,
 Gaussian 09:  ES64L-G09RevD.01 24-Apr-2013

 --------------------
 #p B2PLYPD3/Def2QZVP
 --------------------

 --------
 methanol
 --------
 Symbolic Z-matrix:
 Charge =  0 Multiplicity = 1

                         Standard orientation:
 ---------------------------------------------------------------------
 Center     Atomic      Atomic             Coordinates (Angstroms)
 Number     Number       Type             X           Y           Z
 ---------------------------------------------------------------------
      1          6           0        0.672562   -0.018875    0.015088
      2          8           0       -0.745379    0.085758   -0.024113
      3          1           0        1.075277   -0.802211   -0.776001
      4          1           0        0.991243   -0.291760    1.005571
      5          1           0        1.026649    1.070525   -0.235050
      6          1           0       -1.165514   -0.549365    0.107856
 ---------------------------------------------------------------------

 SCF Done:  E(RB2PLYPD3) =  -115.491950505     A.U. after   11 cycles
 E2(B2PLYPD3) =    -0.1447667455D+00 E(B2PLYPD3) =    -0.11563671725014D+03

 The electronic state is 1-A.
 Alpha  occ. eigenvalues --  -19.70275 -10.67826  -1.20717  -0.80547  -0.60972
 Alpha  occ. eigenvalues --   -0.51544  -0.49533  -0.40253  -0.35788
 Alpha virt. eigenvalues --    0.05374   0.08921   0.11727   0.12151   0.14737
 Alpha virt. eigenvalues --    0.16656   0.17860   0.29007   0.32823   0.32942
 Alpha virt. eigenvalues --    0.36702   0.37687   0.40054   0.40857   0.42427

 Mulliken charges:
               1
     1  C    0.057108
     2  O   -0.328869
     3  H    0.044941
     4  H    0.062444
     5  H    0.076131
     6  H    0.088245
 Sum of Mulliken charges =   0.00000

 Dipole moment (field-independent basis, Debye):
    X=              0.7920    Y=             -1.2496    Z=              0.3643  Tot=              1.5237
 Quadrupole moment (field-independent basis, Debye-Ang):
   XX=            -12.9072   YY=            -12.5375   ZZ=            -13.6059
   XY=              1.9294   XZ=             -0.3409   YZ=             -0.1978

 Normal termination of Gaussian 09 at Wed Aug 26 10:47:22 2020.
