 Gaussian 09, Revision D.01,
 Gaussian 09:  ES64L-G09RevD.01 24-Apr-2013

 --------------------
 #p B2PLYPD3/Def2QZVP
 --------------------

 --------
 methanol
 --------
 Symbolic Z-matrix:
 Charge =  0 Multiplicity = 1

                         Standard orientation:
 ---------------------------------------------------------------------
 Center     Atomic      Atomic             Coordinates (Angstroms)
 Number     Number       Type             X           Y           Z
 ---------------------------------------------------------------------
      1          6           0       -0.653408   -0.000582    0.010406
      2          8           0        0.755048   -0.075287   -0.037991
      3          1           0       -1.033609    0.993032   -0.602316
      4          1           0       -1.049318    0.022907    1.097098
      5          1           0       -1.110261   -0.889906   -0.490385
      6          1           0        1.073251    0.479753    0.237096
 ---------------------------------------------------------------------

 SCF Done:  E(RB2PLYPD3) =  -115.414246280     A.U. after   11 cycles
 E2(B2PLYPD3) =    -0.1440136244D+00 E(B2PLYPD3) =    -0.11555825990395D+03

 The electronic state is 1-A.
 Alpha  occ. eigenvalues --  -19.70133 -10.68659  -1.24848  -0.81217  -0.61668
 Alpha  occ. eigenvalues --   -0.51234  -0.51016  -0.40963  -0.35878
 Alpha virt. eigenvalues --    0.05325   0.09117   0.11544   0.12251   0.14333
 Alpha virt. eigenvalues --    0.17238   0.17862   0.28410   0.32390   0.33154
 Alpha virt. eigenvalues --    0.35604   0.38255   0.39115   0.40534   0.43056

 Mulliken charges:
               1
     1  C    0.050920
     2  O   -0.242447
     3  H    0.034316
     4  H    0.050733
     5  H    0.085007
     6  H    0.021471
 Sum of Mulliken charges =   0.00000

 Dipole moment (field-independent basis, Debye):
    X=             -0.9013    Y=              0.9850    Z=              0.5683  Tot=              1.4511
 Quadrupole moment (field-independent basis, Debye-Ang):
   XX=            -13.1327   YY=            -12.8456   ZZ=            -13.3983
   XY=              1.8968   XZ=              0.8314   YZ=              0.3994

 Normal termination of Gaussian 09 at Wed Aug 26 12:55:14 2020.
