 Gaussian 09, Revision D.01,
 Gaussian 09:  ES64L-G09RevD.01 24-Apr-2013

 --------------------
 #p B2PLYPD3/Def2QZVP
 --------------------

 --------
 methanol
 --------
 Symbolic Z-matrix:
 Charge =  0 Multiplicity = 1

                         Standard orientation:
 ---------------------------------------------------------------------
 Center     Atomic      Atomic             Coordinates (Angstroms)
 Number     Number       Type             X           Y           Z
 ---------------------------------------------------------------------
      1          6           0        0.657788   -0.025747   -0.001735
      2          8           0       -0.744276    0.136367   -0.004758
      3          1           0        1.068926   -0.558331   -0.831680
      4          1           0        1.049113   -0.501579    0.861225
      5          1           0        1.061738    0.976406   -0.006184
      6          1           0       -1.172296   -0.852953    0.025112
 ---------------------------------------------------------------------

 SCF Done:  E(RB2PLYPD3) =  -115.538401032     A.U. after   11 cycles
 E2(B2PLYPD3) =    -0.1492853803D+00 E(B2PLYPD3) =    -0.11568768641205D+03

 The electronic state is 1-A.
 Alpha  occ. eigenvalues --  -19.73710 -10.64641  -1.14530  -0.78396  -0.57729
 Alpha  occ. eigenvalues --   -0.51684  -0.49435  -0.40876  -0.35263
 Alpha virt. eigenvalues --    0.04001   0.07817   0.12408   0.12722   0.15167
 Alpha virt. eigenvalues --    0.17224   0.18353   0.28955   0.30854   0.33664
 Alpha virt. eigenvalues --    0.34492   0.38479   0.39577   0.41593   0.44142

 Mulliken charges:
               1
     1  C    0.071810
     2  O   -0.475791
     3  H    0.045904
     4  H    0.045574
     5  H    0.064392
     6  H    0.248110
 Sum of Mulliken charges =   0.00000

 Dipole moment (field-independent basis, Debye):
    X=              0.8340    Y=             -1.6168    Z=              0.0622  Tot=              1.8203
 Quadrupole moment (field-independent basis, Debye-Ang):
   XX=            -12.9197   YY=            -12.0335   ZZ=            -13.9646
   XY=              2.2878   XZ=             -0.0626   YZ=             -0.0202

 Normal termination of Gaussian 09 at Thu Aug 27 00:15:30 2020.
