 Gaussian 09, Revision D.01,
 Gaussian 09:  ES64L-G09RevD.01 24-Apr-2013

 --------------------
 #p B2PLYPD3/Def2QZVP
 --------------------

 --------
 methanol
 --------
 Symbolic Z-matrix:
 Charge =  0 Multiplicity = 1

                         Standard orientation:
 ---------------------------------------------------------------------
 Center     Atomic      Atomic             Coordinates (Angstroms)
 Number     Number       Type             X           Y           Z
 ---------------------------------------------------------------------
      1          6           0       -0.683949    0.006256   -0.018196
      2          8           0        0.749906   -0.037970   -0.035180
      3          1           0       -1.083352    1.166014   -0.174312
      4          1           0       -1.055022   -0.493251    1.021036
      5          1           0       -0.845393   -0.744041   -0.786667
      6          1           0        1.088210    0.337500    0.330554
 ---------------------------------------------------------------------

 SCF Done:  E(RB2PLYPD3) =  -115.264845078     A.U. after   11 cycles
 E2(B2PLYPD3) =    -0.1438474020D+00 E(B2PLYPD3) =    -0.11540869248004D+03

 The electronic state is 1-A.
 Alpha  occ. eigenvalues --  -19.68434 -10.69297  -1.26807  -0.83151  -0.60662
 Alpha  occ. eigenvalues --   -0.51387  -0.50017  -0.41036  -0.35767
 Alpha virt. eigenvalues --    0.05159   0.09311   0.11048   0.12185   0.14074
 Alpha virt. eigenvalues --    0.15993   0.18073   0.28710   0.31410   0.32306
 Alpha virt. eigenvalues --    0.34192   0.37081   0.40285   0.41026   0.43096

 Mulliken charges:
               1
     1  C    0.042892
     2  O   -0.179492
     3  H    0.052792
     4  H    0.046290
     5  H    0.099738
     6  H   -0.062219
 Sum of Mulliken charges =   0.00000

 Dipole moment (field-independent basis, Debye):
    X=             -0.9155    Y=              0.7499    Z=              0.7116  Tot=              1.3809
 Quadrupole moment (field-independent basis, Debye-Ang):
   XX=            -13.3476   YY=            -12.6030   ZZ=            -13.2118
   XY=              1.1764   XZ=              1.1985   YZ=              0.5030

 Normal termination of Gaussian 09 at Wed Aug 26 23:27:56 2020.
