 Gaussian 09, Revision D.01,
 Gaussian 09:  ES64L-G09RevD.01 24-Apr-2013

 --------------------
 #p B2PLYPD3/Def2QZVP
 --------------------

 --------
 methanol
 --------
 Symbolic Z-matrix:
 Charge =  0 Multiplicity = 1

                         Standard orientation:
 ---------------------------------------------------------------------
 Center     Atomic      Atomic             Coordinates (Angstroms)
 Number     Number       Type             X           Y           Z
 ---------------------------------------------------------------------
      1          6           0       -0.693441   -0.017799   -0.010192
      2          8           0        0.753015   -0.019641   -0.029078
      3          1           0       -1.035633    1.223924   -0.088513
      4          1           0       -1.038510   -0.506583    1.044737
      5          1           0       -0.911759   -0.636438   -0.919098
      6          1           0        1.122429    0.183022    0.256651
 ---------------------------------------------------------------------

 SCF Done:  E(RB2PLYPD3) =  -114.807294618     A.U. after   12 cycles
 E2(B2PLYPD3) =    -0.1436921095D+00 E(B2PLYPD3) =    -0.11495098672733D+03

 The electronic state is 1-A.
 Alpha  occ. eigenvalues --  -19.67420 -10.71343  -1.31291  -0.85622  -0.61019
 Alpha  occ. eigenvalues --   -0.51772  -0.50051  -0.39413  -0.35851
 Alpha virt. eigenvalues --    0.04745   0.09876   0.10686   0.11716   0.13425
 Alpha virt. eigenvalues --    0.16225   0.17242   0.28345   0.29963   0.31610
 Alpha virt. eigenvalues --    0.33835   0.36237   0.38490   0.41320   0.42074

 Mulliken charges:
               1
     1  C    0.055865
     2  O   -0.081614
     3  H    0.048100
     4  H    0.060946
     5  H    0.113359
     6  H   -0.196656
 Sum of Mulliken charges =   0.00000

 Dipole moment (field-independent basis, Debye):
    X=             -1.0099    Y=              0.3944    Z=              0.6988  Tot=              1.2899
 Quadrupole moment (field-independent basis, Debye-Ang):
   XX=            -13.0683   YY=            -13.0111   ZZ=            -12.7369
   XY=              1.0125   XZ=              1.2296   YZ=              0.3748

 Normal termination of Gaussian 09 at Wed Aug 26 23:55:59 2020.
