 Gaussian 09, Revision D.01,
 Gaussian 09:  ES64L-G09RevD.01 24-Apr-2013

 --------------------
 #p B2PLYPD3/Def2QZVP
 --------------------

 --------
 methanol
 --------
 Symbolic Z-matrix:
 Charge =  0 Multiplicity = 1

                         Standard orientation:
 ---------------------------------------------------------------------
 Center     Atomic      Atomic             Coordinates (Angstroms)
 Number     Number       Type             X           Y           Z
 ---------------------------------------------------------------------
      1          6           0        0.671496   -0.008548   -0.018764
      2          8           0       -0.755560   -0.124840    0.009169
      3          1           0        1.045154    0.542409    0.892464
      4          1           0        0.940380    0.556702   -0.853464
      5          1           0        1.017436   -0.927254    0.000534
      6          1           0       -0.987469    0.878149   -0.000302
 ---------------------------------------------------------------------

 SCF Done:  E(RB2PLYPD3) =  -115.533341487     A.U. after   10 cycles
 E2(B2PLYPD3) =    -0.1487385462D+00 E(B2PLYPD3) =    -0.11568208003333D+03

 The electronic state is 1-A.
 Alpha  occ. eigenvalues --  -19.73052 -10.64317  -1.14994  -0.79065  -0.58397
 Alpha  occ. eigenvalues --   -0.51779  -0.49700  -0.42651  -0.34967
 Alpha virt. eigenvalues --    0.04306   0.08307   0.12224   0.12541   0.14787
 Alpha virt. eigenvalues --    0.17466   0.17741   0.29139   0.31490   0.32995
 Alpha virt. eigenvalues --    0.33991   0.38365   0.40623   0.42212   0.44407

 Mulliken charges:
               1
     1  C    0.081469
     2  O   -0.473281
     3  H    0.033139
     4  H    0.045530
     5  H    0.077116
     6  H    0.236027
 Sum of Mulliken charges =   0.00000

 Dipole moment (field-independent basis, Debye):
    X=              1.1771    Y=              1.5289    Z=             -0.0928  Tot=              1.9318
 Quadrupole moment (field-independent basis, Debye-Ang):
   XX=            -13.8106   YY=            -11.6390   ZZ=            -13.8037
   XY=             -2.1070   XZ=              0.0110   YZ=             -0.1048

 Normal termination of Gaussian 09 at Wed Aug 26 22:09:56 2020.
