 Gaussian 09, Revision D.01,
 Gaussian 09:  ES64L-G09RevD.01 24-Apr-2013

 --------------------
 #p B2PLYPD3/Def2QZVP
 --------------------

 --------
 methanol
 --------
 Symbolic Z-matrix:
 Charge =  0 Multiplicity = 1

                         Standard orientation:
 ---------------------------------------------------------------------
 Center     Atomic      Atomic             Coordinates (Angstroms)
 Number     Number       Type             X           Y           Z
 ---------------------------------------------------------------------
      1          6           0        0.658764   -0.021984    0.014026
      2          8           0       -0.737836    0.130825   -0.016350
      3          1           0        1.052705   -0.622901   -0.841334
      4          1           0        0.963571   -0.464473    0.885085
      5          1           0        1.081607    0.969144   -0.051937
      6          1           0       -1.147779   -0.796463    0.054834
 ---------------------------------------------------------------------

 SCF Done:  E(RB2PLYPD3) =  -115.545807425     A.U. after   10 cycles
 E2(B2PLYPD3) =    -0.1478913488D+00 E(B2PLYPD3) =    -0.11569369877385D+03

 The electronic state is 1-A.
 Alpha  occ. eigenvalues --  -19.72938 -10.64771  -1.15581  -0.78602  -0.58467
 Alpha  occ. eigenvalues --   -0.52153  -0.49899  -0.40932  -0.35155
 Alpha virt. eigenvalues --    0.04558   0.08138   0.12457   0.12551   0.14991
 Alpha virt. eigenvalues --    0.17343   0.18077   0.29169   0.32744   0.33322
 Alpha virt. eigenvalues --    0.34542   0.38939   0.39767   0.41369   0.44731

 Mulliken charges:
               1
     1  C    0.074892
     2  O   -0.469459
     3  H    0.038823
     4  H    0.049505
     5  H    0.067782
     6  H    0.238457
 Sum of Mulliken charges =   0.00000

 Dipole moment (field-independent basis, Debye):
    X=              0.8267    Y=             -1.5518    Z=              0.2062  Tot=              1.7703
 Quadrupole moment (field-independent basis, Debye-Ang):
   XX=            -13.0377   YY=            -12.1151   ZZ=            -13.8128
   XY=              2.3077   XZ=             -0.1339   YZ=             -0.1472

 Normal termination of Gaussian 09 at Wed Aug 26 10:42:34 2020.
