 Gaussian 09, Revision D.01,
 Gaussian 09:  ES64L-G09RevD.01 24-Apr-2013

 --------------------
 #p B2PLYPD3/Def2QZVP
 --------------------

 --------
 methanol
 --------
 Symbolic Z-matrix:
 Charge =  0 Multiplicity = 1

                         Standard orientation:
 ---------------------------------------------------------------------
 Center     Atomic      Atomic             Coordinates (Angstroms)
 Number     Number       Type             X           Y           Z
 ---------------------------------------------------------------------
      1          6           0       -0.661667   -0.000883   -0.000977
      2          8           0        0.743392   -0.079504   -0.026621
      3          1           0       -1.016359    0.917238   -0.690167
      4          1           0       -1.043730    0.148631    1.070112
      5          1           0       -0.994517   -0.972069   -0.358826
      6          1           0        1.077475    0.547531    0.197715
 ---------------------------------------------------------------------

 SCF Done:  E(RB2PLYPD3) =  -115.472311871     A.U. after   10 cycles
 E2(B2PLYPD3) =    -0.1442566228D+00 E(B2PLYPD3) =    -0.11561656849349D+03

 The electronic state is 1-A.
 Alpha  occ. eigenvalues --  -19.70259 -10.67720  -1.22687  -0.80828  -0.60957
 Alpha  occ. eigenvalues --   -0.51393  -0.50859  -0.41374  -0.35492
 Alpha virt. eigenvalues --    0.05357   0.09123   0.11705   0.12259   0.14631
 Alpha virt. eigenvalues --    0.16754   0.17783   0.28769   0.32484   0.33409
 Alpha virt. eigenvalues --    0.36465   0.38705   0.40167   0.40653   0.42814

 Mulliken charges:
               1
     1  C    0.054064
     2  O   -0.287753
     3  H    0.037813
     4  H    0.046997
     5  H    0.086456
     6  H    0.062423
 Sum of Mulliken charges =   0.00000

 Dipole moment (field-independent basis, Debye):
    X=             -0.8482    Y=              1.1168    Z=              0.4542  Tot=              1.4741
 Quadrupole moment (field-independent basis, Debye-Ang):
   XX=            -13.3139   YY=            -12.4596   ZZ=            -13.5359
   XY=              1.9190   XZ=              0.5820   YZ=              0.3416

 Normal termination of Gaussian 09 at Wed Aug 26 10:05:16 2020.
