 Gaussian 09, Revision D.01,
 Gaussian 09:  ES64L-G09RevD.01 24-Apr-2013

 --------------------
 #p B2PLYPD3/Def2QZVP
 --------------------

 --------
 methanol
 --------
 Symbolic Z-matrix:
 Charge =  0 Multiplicity = 1

                         Standard orientation:
 ---------------------------------------------------------------------
 Center     Atomic      Atomic             Coordinates (Angstroms)
 Number     Number       Type             X           Y           Z
 ---------------------------------------------------------------------
      1          6           0        0.688265    0.006704   -0.017953
      2          8           0       -0.728815   -0.184661    0.030385
      3          1           0        1.124024    0.621811    0.810603
      4          1           0        0.969104    0.485595   -0.780380
      5          1           0        0.967401   -0.784558   -0.055310
      6          1           0       -1.359601    1.114219   -0.110281
 ---------------------------------------------------------------------

 SCF Done:  E(RB2PLYPD3) =  -115.372010909     A.U. after   12 cycles
 E2(B2PLYPD3) =    -0.1568416516D+00 E(B2PLYPD3) =    -0.11552885256053D+03

 The electronic state is 1-A.
 Alpha  occ. eigenvalues --  -19.75263 -10.61247  -1.11309  -0.81267  -0.57737
 Alpha  occ. eigenvalues --   -0.51051  -0.48792  -0.39577  -0.34699
 Alpha virt. eigenvalues --   -0.02212   0.07389   0.12807   0.12969   0.14695
 Alpha virt. eigenvalues --    0.17044   0.18314   0.21823   0.29439   0.33045
 Alpha virt. eigenvalues --    0.34077   0.37446   0.39958   0.41362   0.45621

 Mulliken charges:
               1
     1  C    0.011997
     2  O   -0.489688
     3  H    0.046812
     4  H    0.051097
     5  H    0.147511
     6  H    0.232271
 Sum of Mulliken charges =   0.00000

 Dipole moment (field-independent basis, Debye):
    X=              0.9459    Y=              1.6509    Z=             -0.3715  Tot=              1.9386
 Quadrupole moment (field-independent basis, Debye-Ang):
   XX=            -12.5330   YY=            -11.4060   ZZ=            -14.0592
   XY=             -2.6392   XZ=              0.1206   YZ=             -0.1847

 Normal termination of Gaussian 09 at Wed Aug 26 23:57:09 2020.
