 Gaussian 09, Revision D.01,
 Gaussian 09:  ES64L-G09RevD.01 24-Apr-2013

 --------------------
 #p B2PLYPD3/Def2QZVP
 --------------------

 --------
 methanol
 --------
 Symbolic Z-matrix:
 Charge =  0 Multiplicity = 1

                         Standard orientation:
 ---------------------------------------------------------------------
 Center     Atomic      Atomic             Coordinates (Angstroms)
 Number     Number       Type             X           Y           Z
 ---------------------------------------------------------------------
      1          6           0       -0.674488    0.015216   -0.038675
      2          8           0        0.768822   -0.179196    0.022480
      3          1           0       -1.006781    0.387551   -0.787400
      4          1           0       -1.166552    0.606226    0.787386
      5          1           0       -1.114024   -0.804528    0.100450
      6          1           0        1.183708    1.153028   -0.048225
 ---------------------------------------------------------------------

 SCF Done:  E(RB2PLYPD3) =  -115.410036530     A.U. after   11 cycles
 E2(B2PLYPD3) =    -0.1566352112D+00 E(B2PLYPD3) =    -0.11556667174095D+03

 The electronic state is 1-A.
 Alpha  occ. eigenvalues --  -19.75948 -10.62137  -1.10753  -0.81569  -0.55905
 Alpha  occ. eigenvalues --   -0.50645  -0.48935  -0.40083  -0.35490
 Alpha virt. eigenvalues --   -0.01349   0.07145   0.12702   0.12837   0.14570
 Alpha virt. eigenvalues --    0.17862   0.18742   0.22168   0.29275   0.32839
 Alpha virt. eigenvalues --    0.33422   0.37070   0.40432   0.41165   0.45138

 Mulliken charges:
               1
     1  C    0.083215
     2  O   -0.485246
     3  H    0.064136
     4  H    0.030946
     5  H    0.063269
     6  H    0.243680
 Sum of Mulliken charges =   0.00000

 Dipole moment (field-independent basis, Debye):
    X=             -1.1839    Y=              1.6827    Z=             -0.2423  Tot=              2.0717
 Quadrupole moment (field-independent basis, Debye-Ang):
   XX=            -12.9807   YY=            -11.4550   ZZ=            -14.0707
   XY=              2.5197   XZ=             -0.0503   YZ=             -0.2605

 Normal termination of Gaussian 09 at Wed Aug 26 20:12:04 2020.
