 Gaussian 09, Revision D.01,
 Gaussian 09:  ES64L-G09RevD.01 24-Apr-2013

 --------------------
 #p B2PLYPD3/Def2QZVP
 --------------------

 --------
 methanol
 --------
 Symbolic Z-matrix:
 Charge =  0 Multiplicity = 1

                         Standard orientation:
 ---------------------------------------------------------------------
 Center     Atomic      Atomic             Coordinates (Angstroms)
 Number     Number       Type             X           Y           Z
 ---------------------------------------------------------------------
      1          6           0        0.679053    0.019547    0.000724
      2          8           0       -0.738246   -0.154023   -0.004309
      3          1           0        0.948103    0.493341    0.889569
      4          1           0        0.958854    0.598511   -0.833997
      5          1           0        1.121640   -0.864030   -0.044241
      6          1           0       -1.196944    0.887082    0.018797
 ---------------------------------------------------------------------

 SCF Done:  E(RB2PLYPD3) =  -115.518995006     A.U. after   11 cycles
 E2(B2PLYPD3) =    -0.1499469000D+00 E(B2PLYPD3) =    -0.11566894190565D+03

 The electronic state is 1-A.
 Alpha  occ. eigenvalues --  -19.73328 -10.63316  -1.12916  -0.79150  -0.56186
 Alpha  occ. eigenvalues --   -0.52599  -0.50407  -0.40516  -0.34820
 Alpha virt. eigenvalues --    0.03319   0.07906   0.12518   0.12878   0.14579
 Alpha virt. eigenvalues --    0.17658   0.17927   0.28354   0.29732   0.33185
 Alpha virt. eigenvalues --    0.33423   0.39430   0.41769   0.42084   0.43538

 Mulliken charges:
               1
     1  C    0.090193
     2  O   -0.502829
     3  H    0.046063
     4  H    0.043251
     5  H    0.070523
     6  H    0.252800
 Sum of Mulliken charges =   0.00000

 Dipole moment (field-independent basis, Debye):
    X=              0.9422    Y=              1.6176    Z=              0.0424  Tot=              1.8725
 Quadrupole moment (field-independent basis, Debye-Ang):
   XX=            -12.8977   YY=            -11.9384   ZZ=            -13.7569
   XY=             -2.6000   XZ=             -0.0657   YZ=              0.0276

 Normal termination of Gaussian 09 at Wed Aug 26 11:07:45 2020.
