 Gaussian 09, Revision D.01,
 Gaussian 09:  ES64L-G09RevD.01 24-Apr-2013

 --------------------
 #p B2PLYPD3/Def2QZVP
 --------------------

 --------
 methanol
 --------
 Symbolic Z-matrix:
 Charge =  0 Multiplicity = 1

                         Standard orientation:
 ---------------------------------------------------------------------
 Center     Atomic      Atomic             Coordinates (Angstroms)
 Number     Number       Type             X           Y           Z
 ---------------------------------------------------------------------
      1          6           0       -0.673347   -0.027995   -0.006781
      2          8           0        0.754478    0.108110    0.002563
      3          1           0       -1.024801   -0.558179    0.907310
      4          1           0       -1.036038   -0.518417   -0.898925
      5          1           0       -1.068677    1.046668    0.026222
      6          1           0        1.133773   -0.666984   -0.014426
 ---------------------------------------------------------------------

 SCF Done:  E(RB2PLYPD3) =  -115.540633258     A.U. after   10 cycles
 E2(B2PLYPD3) =    -0.1460069627D+00 E(B2PLYPD3) =    -0.11568664022047D+03

 The electronic state is 1-A.
 Alpha  occ. eigenvalues --  -19.71527 -10.66643  -1.17966  -0.79241  -0.59798
 Alpha  occ. eigenvalues --   -0.51950  -0.49160  -0.40987  -0.35823
 Alpha virt. eigenvalues --    0.05314   0.08567   0.12072   0.12246   0.14750
 Alpha virt. eigenvalues --    0.17042   0.18050   0.29025   0.32682   0.33444
 Alpha virt. eigenvalues --    0.37229   0.38176   0.39772   0.40875   0.42897

 Mulliken charges:
               1
     1  C    0.065001
     2  O   -0.416871
     3  H    0.052285
     4  H    0.057668
     5  H    0.068863
     6  H    0.173054
 Sum of Mulliken charges =   0.00000

 Dipole moment (field-independent basis, Debye):
    X=             -0.9180    Y=             -1.4459    Z=             -0.0574  Tot=              1.7137
 Quadrupole moment (field-independent basis, Debye-Ang):
   XX=            -13.0332   YY=            -12.3690   ZZ=            -13.6693
   XY=             -2.0843   XZ=              0.0002   YZ=              0.0560

 Normal termination of Gaussian 09 at Wed Aug 26 10:26:17 2020.
