 Gaussian 09, Revision D.01,
 Gaussian 09:  ES64L-G09RevD.01 24-Apr-2013

 --------------------
 #p B2PLYPD3/Def2QZVP
 --------------------

 --------
 methanol
 --------
 Symbolic Z-matrix:
 Charge =  0 Multiplicity = 1

                         Standard orientation:
 ---------------------------------------------------------------------
 Center     Atomic      Atomic             Coordinates (Angstroms)
 Number     Number       Type             X           Y           Z
 ---------------------------------------------------------------------
      1          6           0        0.670403    0.024057    0.001347
      2          8           0       -0.743960   -0.138787   -0.011544
      3          1           0        0.959369    0.451022    0.917164
      4          1           0        1.029223    0.621487   -0.821786
      5          1           0        1.110261   -0.929773   -0.053166
      6          1           0       -1.169595    0.823218    0.042060
 ---------------------------------------------------------------------

 SCF Done:  E(RB2PLYPD3) =  -115.542317731     A.U. after   11 cycles
 E2(B2PLYPD3) =    -0.1486442334D+00 E(B2PLYPD3) =    -0.11569096196393D+03

 The electronic state is 1-A.
 Alpha  occ. eigenvalues --  -19.73066 -10.64466  -1.14263  -0.78718  -0.57229
 Alpha  occ. eigenvalues --   -0.52308  -0.49930  -0.40798  -0.35160
 Alpha virt. eigenvalues --    0.04293   0.07993   0.12440   0.12708   0.14725
 Alpha virt. eigenvalues --    0.17451   0.18131   0.29163   0.31628   0.33243
 Alpha virt. eigenvalues --    0.33765   0.39427   0.40355   0.41633   0.43867

 Mulliken charges:
               1
     1  C    0.079060
     2  O   -0.486897
     3  H    0.048691
     4  H    0.045348
     5  H    0.068764
     6  H    0.245033
 Sum of Mulliken charges =   0.00000

 Dipole moment (field-independent basis, Debye):
    X=              0.9044    Y=              1.5749    Z=              0.1159  Tot=              1.8198
 Quadrupole moment (field-independent basis, Debye-Ang):
   XX=            -12.9477   YY=            -12.1043   ZZ=            -13.7742
   XY=             -2.4217   XZ=             -0.1610   YZ=              0.0503

 Normal termination of Gaussian 09 at Thu Aug 27 00:03:59 2020.
