 Gaussian 09, Revision D.01,
 Gaussian 09:  ES64L-G09RevD.01 24-Apr-2013

 --------------------
 #p B2PLYPD3/Def2QZVP
 --------------------

 --------
 methanol
 --------
 Symbolic Z-matrix:
 Charge =  0 Multiplicity = 1

                         Standard orientation:
 ---------------------------------------------------------------------
 Center     Atomic      Atomic             Coordinates (Angstroms)
 Number     Number       Type             X           Y           Z
 ---------------------------------------------------------------------
      1          6           0        0.675148    0.024716   -0.006122
      2          8           0       -0.745510   -0.148615    0.002659
      3          1           0        1.031672    0.505873    0.854134
      4          1           0        0.954211    0.580558   -0.819006
      5          1           0        1.108737   -0.924154   -0.035919
      6          1           0       -1.181426    0.878344    0.016249
 ---------------------------------------------------------------------

 SCF Done:  E(RB2PLYPD3) =  -115.527844794     A.U. after   11 cycles
 E2(B2PLYPD3) =    -0.1497692718D+00 E(B2PLYPD3) =    -0.11567761406591D+03

 The electronic state is 1-A.
 Alpha  occ. eigenvalues --  -19.73479 -10.63704  -1.13185  -0.79028  -0.56742
 Alpha  occ. eigenvalues --   -0.52441  -0.49470  -0.40954  -0.35103
 Alpha virt. eigenvalues --    0.03623   0.07856   0.12578   0.12712   0.14849
 Alpha virt. eigenvalues --    0.17487   0.18027   0.28762   0.29998   0.33240
 Alpha virt. eigenvalues --    0.33696   0.39586   0.40038   0.42217   0.44053

 Mulliken charges:
               1
     1  C    0.089488
     2  O   -0.497831
     3  H    0.044656
     4  H    0.045921
     5  H    0.068069
     6  H    0.249697
 Sum of Mulliken charges =   0.00000

 Dipole moment (field-independent basis, Debye):
    X=              0.9606    Y=              1.6514    Z=              0.0017  Tot=              1.9105
 Quadrupole moment (field-independent basis, Debye-Ang):
   XX=            -12.9241   YY=            -11.8991   ZZ=            -13.8573
   XY=             -2.4337   XZ=              0.0086   YZ=             -0.0139

 Normal termination of Gaussian 09 at Thu Aug 27 00:02:09 2020.
