 Gaussian 09, Revision D.01,
 Gaussian 09:  ES64L-G09RevD.01 24-Apr-2013

 --------------------
 #p B2PLYPD3/Def2QZVP
 --------------------

 --------
 methanol
 --------
 Symbolic Z-matrix:
 Charge =  0 Multiplicity = 1

                         Standard orientation:
 ---------------------------------------------------------------------
 Center     Atomic      Atomic             Coordinates (Angstroms)
 Number     Number       Type             X           Y           Z
 ---------------------------------------------------------------------
      1          6           0       -0.665050    0.006972   -0.002119
      2          8           0        0.745294   -0.139842   -0.008286
      3          1           0       -1.044226    0.614061   -0.843374
      4          1           0       -1.076933    0.484847    0.880757
      5          1           0       -1.067361   -0.898380   -0.025468
      6          1           0        1.216470    0.876370    0.067084
 ---------------------------------------------------------------------

 SCF Done:  E(RB2PLYPD3) =  -115.524292436     A.U. after   11 cycles
 E2(B2PLYPD3) =    -0.1500494086D+00 E(B2PLYPD3) =    -0.11567434184494D+03

 The electronic state is 1-A.
 Alpha  occ. eigenvalues --  -19.73870 -10.64381  -1.13594  -0.78734  -0.56820
 Alpha  occ. eigenvalues --   -0.51131  -0.50224  -0.40909  -0.34819
 Alpha virt. eigenvalues --    0.03449   0.07671   0.12589   0.12788   0.15004
 Alpha virt. eigenvalues --    0.17349   0.18304   0.28499   0.29845   0.33309
 Alpha virt. eigenvalues --    0.34224   0.38474   0.40236   0.40998   0.43422

 Mulliken charges:
               1
     1  C    0.076704
     2  O   -0.488486
     3  H    0.040269
     4  H    0.040118
     5  H    0.075197
     6  H    0.256198
 Sum of Mulliken charges =   0.00000

 Dipole moment (field-independent basis, Debye):
    X=             -0.8121    Y=              1.5588    Z=              0.1430  Tot=              1.7635
 Quadrupole moment (field-independent basis, Debye-Ang):
   XX=            -12.7336   YY=            -12.0014   ZZ=            -14.0274
   XY=              2.5218   XZ=              0.1112   YZ=              0.0780

 Normal termination of Gaussian 09 at Wed Aug 26 13:56:51 2020.
