 Gaussian 09, Revision D.01,
 Gaussian 09:  ES64L-G09RevD.01 24-Apr-2013

 --------------------
 #p B2PLYPD3/Def2QZVP
 --------------------

 --------
 methanol
 --------
 Symbolic Z-matrix:
 Charge =  0 Multiplicity = 1

                         Standard orientation:
 ---------------------------------------------------------------------
 Center     Atomic      Atomic             Coordinates (Angstroms)
 Number     Number       Type             X           Y           Z
 ---------------------------------------------------------------------
      1          6           0       -0.667601   -0.019391    0.000030
      2          8           0        0.745701    0.099306   -0.005028
      3          1           0       -1.048706   -0.466876    0.955765
      4          1           0       -0.991014   -0.642658   -0.888082
      5          1           0       -1.062289    1.038558   -0.083424
      6          1           0        1.142009   -0.607127    0.055788
 ---------------------------------------------------------------------

 SCF Done:  E(RB2PLYPD3) =  -115.522291285     A.U. after   10 cycles
 E2(B2PLYPD3) =    -0.1450799698D+00 E(B2PLYPD3) =    -0.11566737125431D+03

 The electronic state is 1-A.
 Alpha  occ. eigenvalues --  -19.70864 -10.67184  -1.19748  -0.79855  -0.60444
 Alpha  occ. eigenvalues --   -0.51685  -0.49993  -0.40688  -0.35633
 Alpha virt. eigenvalues --    0.05396   0.08809   0.12101   0.12162   0.14669
 Alpha virt. eigenvalues --    0.16956   0.17889   0.29001   0.32883   0.33388
 Alpha virt. eigenvalues --    0.37458   0.38887   0.39815   0.40005   0.42686

 Mulliken charges:
               1
     1  C    0.062060
     2  O   -0.370296
     3  H    0.051134
     4  H    0.049574
     5  H    0.075676
     6  H    0.131851
 Sum of Mulliken charges =   0.00000

 Dipole moment (field-independent basis, Debye):
    X=             -0.8300    Y=             -1.3334    Z=              0.1240  Tot=              1.5755
 Quadrupole moment (field-independent basis, Debye-Ang):
   XX=            -12.9849   YY=            -12.4635   ZZ=            -13.6483
   XY=             -2.0951   XZ=              0.1069   YZ=             -0.0700

 Normal termination of Gaussian 09 at Wed Aug 26 13:04:30 2020.
