 Gaussian 09, Revision D.01,
 Gaussian 09:  ES64L-G09RevD.01 24-Apr-2013

 --------------------
 #p B2PLYPD3/Def2QZVP
 --------------------

 --------
 methanol
 --------
 Symbolic Z-matrix:
 Charge =  0 Multiplicity = 1

                         Standard orientation:
 ---------------------------------------------------------------------
 Center     Atomic      Atomic             Coordinates (Angstroms)
 Number     Number       Type             X           Y           Z
 ---------------------------------------------------------------------
      1          6           0        0.659476   -0.026887    0.010955
      2          8           0       -0.740377    0.135911   -0.006357
      3          1           0        1.007433   -0.592795   -0.848915
      4          1           0        1.017325   -0.496893    0.849240
      5          1           0        1.100384    0.975426   -0.047508
      6          1           0       -1.158982   -0.811706    0.032315
 ---------------------------------------------------------------------

 SCF Done:  E(RB2PLYPD3) =  -115.543735439     A.U. after   10 cycles
 E2(B2PLYPD3) =    -0.1482956957D+00 E(B2PLYPD3) =    -0.11569203113485D+03

 The electronic state is 1-A.
 Alpha  occ. eigenvalues --  -19.73153 -10.64659  -1.15111  -0.78591  -0.58214
 Alpha  occ. eigenvalues --   -0.52199  -0.49588  -0.40870  -0.35223
 Alpha virt. eigenvalues --    0.04394   0.08032   0.12426   0.12634   0.15024
 Alpha virt. eigenvalues --    0.17410   0.18103   0.29190   0.32112   0.33382
 Alpha virt. eigenvalues --    0.34464   0.38687   0.39682   0.41885   0.44688

 Mulliken charges:
               1
     1  C    0.077237
     2  O   -0.474537
     3  H    0.041563
     4  H    0.048955
     5  H    0.064680
     6  H    0.242101
 Sum of Mulliken charges =   0.00000

 Dipole moment (field-independent basis, Debye):
    X=              0.8409    Y=             -1.6058    Z=              0.1144  Tot=              1.8163
 Quadrupole moment (field-independent basis, Debye-Ang):
   XX=            -12.9675   YY=            -12.0858   ZZ=            -13.8641
   XY=              2.3049   XZ=             -0.0183   YZ=             -0.1001

 Normal termination of Gaussian 09 at Thu Aug 27 00:07:45 2020.
