 Gaussian 09, Revision D.01,
 Gaussian 09:  ES64L-G09RevD.01 24-Apr-2013

 --------------------
 #p B2PLYPD3/Def2QZVP
 --------------------

 --------
 methanol
 --------
 Symbolic Z-matrix:
 Charge =  0 Multiplicity = 1

                         Standard orientation:
 ---------------------------------------------------------------------
 Center     Atomic      Atomic             Coordinates (Angstroms)
 Number     Number       Type             X           Y           Z
 ---------------------------------------------------------------------
      1          6           0       -0.654922   -0.036059    0.006522
      2          8           0        0.736945    0.085362   -0.021031
      3          1           0       -0.941022   -0.449775    0.973858
      4          1           0       -1.022737   -0.636778   -0.887004
      5          1           0       -1.050024    1.129328   -0.054625
      6          1           0        1.047753   -0.509316    0.096885
 ---------------------------------------------------------------------

 SCF Done:  E(RB2PLYPD3) =  -115.391479315     A.U. after   11 cycles
 E2(B2PLYPD3) =    -0.1434502991D+00 E(B2PLYPD3) =    -0.11553492961449D+03

 The electronic state is 1-A.
 Alpha  occ. eigenvalues --  -19.69412 -10.67891  -1.25746  -0.81505  -0.62218
 Alpha  occ. eigenvalues --   -0.53096  -0.49544  -0.40437  -0.36344
 Alpha virt. eigenvalues --    0.05283   0.09507   0.11499   0.11978   0.14562
 Alpha virt. eigenvalues --    0.16846   0.17716   0.28605   0.32990   0.33178
 Alpha virt. eigenvalues --    0.35339   0.38810   0.40607   0.41269   0.43010

 Mulliken charges:
               1
     1  C    0.050065
     2  O   -0.225629
     3  H    0.056544
     4  H    0.055460
     5  H    0.062141
     6  H    0.001419
 Sum of Mulliken charges =   0.00000

 Dipole moment (field-independent basis, Debye):
    X=             -0.8526    Y=             -1.2916    Z=              0.3000  Tot=              1.5765
 Quadrupole moment (field-independent basis, Debye-Ang):
   XX=            -13.3898   YY=            -12.5130   ZZ=            -13.3651
   XY=             -1.7240   XZ=              0.3384   YZ=             -0.1222

 Normal termination of Gaussian 09 at Wed Aug 26 12:21:05 2020.
