 Gaussian 09, Revision D.01,
 Gaussian 09:  ES64L-G09RevD.01 24-Apr-2013

 --------------------
 #p B2PLYPD3/Def2QZVP
 --------------------

 --------
 methanol
 --------
 Symbolic Z-matrix:
 Charge =  0 Multiplicity = 1

                         Standard orientation:
 ---------------------------------------------------------------------
 Center     Atomic      Atomic             Coordinates (Angstroms)
 Number     Number       Type             X           Y           Z
 ---------------------------------------------------------------------
      1          6           0       -0.664960   -0.020902    0.008648
      2          8           0        0.744719    0.129783   -0.013772
      3          1           0       -0.999057   -0.445649    0.916237
      4          1           0       -1.054271   -0.635364   -0.841030
      5          1           0       -1.107195    0.944556   -0.071931
      6          1           0        1.192532   -0.776394    0.055016
 ---------------------------------------------------------------------

 SCF Done:  E(RB2PLYPD3) =  -115.547989052     A.U. after   10 cycles
 E2(B2PLYPD3) =    -0.1480048582D+00 E(B2PLYPD3) =    -0.11569599391006D+03

 The electronic state is 1-A.
 Alpha  occ. eigenvalues --  -19.72925 -10.65162  -1.15057  -0.78668  -0.57983
 Alpha  occ. eigenvalues --   -0.51691  -0.50145  -0.40649  -0.35207
 Alpha virt. eigenvalues --    0.04640   0.07974   0.12437   0.12661   0.14837
 Alpha virt. eigenvalues --    0.17372   0.18217   0.29152   0.32914   0.33431
 Alpha virt. eigenvalues --    0.33832   0.38994   0.40023   0.41104   0.44040

 Mulliken charges:
               1
     1  C    0.073157
     2  O   -0.476542
     3  H    0.050436
     4  H    0.041759
     5  H    0.070791
     6  H    0.240398
 Sum of Mulliken charges =   0.00000

 Dipole moment (field-independent basis, Debye):
    X=             -0.8125    Y=             -1.5133    Z=              0.1735  Tot=              1.7264
 Quadrupole moment (field-independent basis, Debye-Ang):
   XX=            -12.7696   YY=            -12.2748   ZZ=            -13.8249
   XY=             -2.4108   XZ=              0.1514   YZ=             -0.1148

 Normal termination of Gaussian 09 at Thu Aug 27 00:07:59 2020.
