 Gaussian 09, Revision D.01,
 Gaussian 09:  ES64L-G09RevD.01 24-Apr-2013

 --------------------
 #p B2PLYPD3/Def2QZVP
 --------------------

 --------
 methanol
 --------
 Symbolic Z-matrix:
 Charge =  0 Multiplicity = 1

                         Standard orientation:
 ---------------------------------------------------------------------
 Center     Atomic      Atomic             Coordinates (Angstroms)
 Number     Number       Type             X           Y           Z
 ---------------------------------------------------------------------
      1          6           0        0.661500    0.028919    0.004739
      2          8           0       -0.741944   -0.196941   -0.001247
      3          1           0        0.992077    0.478555    0.809971
      4          1           0        0.912047    0.569567   -0.800877
      5          1           0        1.294415   -0.729091   -0.052754
      6          1           0       -1.231984    1.082986    0.025197
 ---------------------------------------------------------------------

 SCF Done:  E(RB2PLYPD3) =  -115.443284682     A.U. after   11 cycles
 E2(B2PLYPD3) =    -0.1546834314D+00 E(B2PLYPD3) =    -0.11559796811368D+03

 The electronic state is 1-A.
 Alpha  occ. eigenvalues --  -19.75154 -10.61751  -1.11703  -0.80523  -0.53522
 Alpha  occ. eigenvalues --   -0.53292  -0.50331  -0.38943  -0.35206
 Alpha virt. eigenvalues --   -0.01008   0.07365   0.12779   0.13036   0.14236
 Alpha virt. eigenvalues --    0.18261   0.19223   0.22792   0.29615   0.32958
 Alpha virt. eigenvalues --    0.33432   0.39915   0.40547   0.43024   0.43323

 Mulliken charges:
               1
     1  C    0.105835
     2  O   -0.489498
     3  H    0.041553
     4  H    0.040778
     5  H    0.050106
     6  H    0.251226
 Sum of Mulliken charges =   0.00000

 Dipole moment (field-independent basis, Debye):
    X=              1.0344    Y=              1.7923    Z=              0.0423  Tot=              2.0698
 Quadrupole moment (field-independent basis, Debye-Ang):
   XX=            -12.6417   YY=            -11.7791   ZZ=            -13.9058
   XY=             -2.7426   XZ=              0.0118   YZ=              0.0345

 Normal termination of Gaussian 09 at Wed Aug 26 19:28:52 2020.
