 Gaussian 09, Revision D.01,
 Gaussian 09:  ES64L-G09RevD.01 24-Apr-2013

 --------------------
 #p B2PLYPD3/Def2QZVP
 --------------------

 --------
 methanol
 --------
 Symbolic Z-matrix:
 Charge =  0 Multiplicity = 1

                         Standard orientation:
 ---------------------------------------------------------------------
 Center     Atomic      Atomic             Coordinates (Angstroms)
 Number     Number       Type             X           Y           Z
 ---------------------------------------------------------------------
      1          6           0        0.660585    0.029308    0.016552
      2          8           0       -0.736738   -0.161999   -0.023824
      3          1           0        1.004814    0.335666    0.879971
      4          1           0        1.097821    0.707585   -0.750340
      5          1           0        1.116321   -0.867391   -0.131358
      6          1           0       -1.288559    0.944286    0.093010
 ---------------------------------------------------------------------

 SCF Done:  E(RB2PLYPD3) =  -115.490623839     A.U. after   11 cycles
 E2(B2PLYPD3) =    -0.1521387613D+00 E(B2PLYPD3) =    -0.11564276260075D+03

 The electronic state is 1-A.
 Alpha  occ. eigenvalues --  -19.74576 -10.63339  -1.12707  -0.79107  -0.55584
 Alpha  occ. eigenvalues --   -0.51762  -0.49950  -0.39815  -0.35069
 Alpha virt. eigenvalues --    0.01640   0.07438   0.12671   0.12996   0.14977
 Alpha virt. eigenvalues --    0.17419   0.18608   0.25170   0.29460   0.33556
 Alpha virt. eigenvalues --    0.34683   0.38392   0.40054   0.41763   0.44207

 Mulliken charges:
               1
     1  C    0.084005
     2  O   -0.492207
     3  H    0.051545
     4  H    0.035514
     5  H    0.063067
     6  H    0.258077
 Sum of Mulliken charges =   0.00000

 Dipole moment (field-independent basis, Debye):
    X=              0.7771    Y=              1.6233    Z=              0.2861  Tot=              1.8223
 Quadrupole moment (field-independent basis, Debye-Ang):
   XX=            -12.4391   YY=            -12.0339   ZZ=            -13.9937
   XY=             -2.6507   XZ=             -0.1933   YZ=              0.1845

 Normal termination of Gaussian 09 at Wed Aug 26 14:55:39 2020.
