 Gaussian 09, Revision D.01,
 Gaussian 09:  ES64L-G09RevD.01 24-Apr-2013

 --------------------
 #p B2PLYPD3/Def2QZVP
 --------------------

 --------
 methanol
 --------
 Symbolic Z-matrix:
 Charge =  0 Multiplicity = 1

                         Standard orientation:
 ---------------------------------------------------------------------
 Center     Atomic      Atomic             Coordinates (Angstroms)
 Number     Number       Type             X           Y           Z
 ---------------------------------------------------------------------
      1          6           0       -0.666942    0.010025    0.004247
      2          8           0        0.744758   -0.174389    0.006129
      3          1           0       -1.089394    0.417691   -0.824979
      4          1           0       -0.875889    0.600073    0.850869
      5          1           0       -1.114710   -0.761016    0.026880
      6          1           0        1.123576    1.078212   -0.127290
 ---------------------------------------------------------------------

 SCF Done:  E(RB2PLYPD3) =  -115.441006453     A.U. after   11 cycles
 E2(B2PLYPD3) =    -0.1538361964D+00 E(B2PLYPD3) =    -0.11559484264930D+03

 The electronic state is 1-A.
 Alpha  occ. eigenvalues --  -19.74861 -10.61733  -1.12078  -0.80842  -0.55393
 Alpha  occ. eigenvalues --   -0.53151  -0.49429  -0.40194  -0.34947
 Alpha virt. eigenvalues --    0.00237   0.07614   0.12444   0.12998   0.14506
 Alpha virt. eigenvalues --    0.17983   0.18573   0.23864   0.29533   0.32377
 Alpha virt. eigenvalues --    0.34269   0.38646   0.40269   0.43316   0.44295

 Mulliken charges:
               1
     1  C    0.073265
     2  O   -0.486015
     3  H    0.035810
     4  H    0.044112
     5  H    0.083199
     6  H    0.249628
 Sum of Mulliken charges =   0.00000

 Dipole moment (field-independent basis, Debye):
    X=             -1.1411    Y=              1.6506    Z=             -0.2133  Tot=              2.0179
 Quadrupole moment (field-independent basis, Debye-Ang):
   XX=            -13.2202   YY=            -11.5363   ZZ=            -13.8115
   XY=              2.5696   XZ=              0.0092   YZ=             -0.1270

 Normal termination of Gaussian 09 at Wed Aug 26 20:40:54 2020.
