 Gaussian 09, Revision D.01,
 Gaussian 09:  ES64L-G09RevD.01 24-Apr-2013

 --------------------
 #p B2PLYPD3/Def2QZVP
 --------------------

 --------
 methanol
 --------
 Symbolic Z-matrix:
 Charge =  0 Multiplicity = 1

                         Standard orientation:
 ---------------------------------------------------------------------
 Center     Atomic      Atomic             Coordinates (Angstroms)
 Number     Number       Type             X           Y           Z
 ---------------------------------------------------------------------
      1          6           0       -0.669049   -0.010514    0.002581
      2          8           0        0.750667    0.096662   -0.010464
      3          1           0       -0.996379   -0.481423    0.965844
      4          1           0       -0.986754   -0.646219   -0.901857
      5          1           0       -1.074598    1.020554   -0.065904
      6          1           0        1.066688   -0.603126    0.070141
 ---------------------------------------------------------------------

 SCF Done:  E(RB2PLYPD3) =  -115.499092528     A.U. after   10 cycles
 E2(B2PLYPD3) =    -0.1445579558D+00 E(B2PLYPD3) =    -0.11564365048372D+03

 The electronic state is 1-A.
 Alpha  occ. eigenvalues --  -19.70431 -10.67209  -1.21327  -0.80109  -0.60605
 Alpha  occ. eigenvalues --   -0.51744  -0.50478  -0.41479  -0.35695
 Alpha virt. eigenvalues --    0.05393   0.09067   0.11899   0.12217   0.14505
 Alpha virt. eigenvalues --    0.17129   0.17636   0.28858   0.32580   0.33019
 Alpha virt. eigenvalues --    0.37472   0.39052   0.39766   0.40272   0.43306

 Mulliken charges:
               1
     1  C    0.063934
     2  O   -0.329270
     3  H    0.049078
     4  H    0.046664
     5  H    0.079646
     6  H    0.089948
 Sum of Mulliken charges =   0.00000

 Dipole moment (field-independent basis, Debye):
    X=             -0.9776    Y=             -1.2914    Z=              0.1817  Tot=              1.6299
 Quadrupole moment (field-independent basis, Debye-Ang):
   XX=            -13.3199   YY=            -12.3525   ZZ=            -13.5552
   XY=             -2.0634   XZ=              0.1688   YZ=             -0.1124

 Normal termination of Gaussian 09 at Thu Aug 27 00:01:23 2020.
