 Gaussian 09, Revision D.01,
 Gaussian 09:  ES64L-G09RevD.01 24-Apr-2013

 --------------------
 #p B2PLYPD3/Def2QZVP
 --------------------

 --------
 methanol
 --------
 Symbolic Z-matrix:
 Charge =  0 Multiplicity = 1

                         Standard orientation:
 ---------------------------------------------------------------------
 Center     Atomic      Atomic             Coordinates (Angstroms)
 Number     Number       Type             X           Y           Z
 ---------------------------------------------------------------------
      1          6           0       -0.694568   -0.018048    0.011867
      2          8           0        0.756606    0.102128   -0.022259
      3          1           0       -0.983292   -0.318391    0.990263
      4          1           0       -1.019477   -0.758154   -0.800771
      5          1           0       -1.042666    1.001526   -0.198565
      6          1           0        1.159999   -0.633719    0.115947
 ---------------------------------------------------------------------

 SCF Done:  E(RB2PLYPD3) =  -115.535362508     A.U. after   11 cycles
 E2(B2PLYPD3) =    -0.1458501267D+00 E(B2PLYPD3) =    -0.11568121263517D+03

 The electronic state is 1-A.
 Alpha  occ. eigenvalues --  -19.70836 -10.66563  -1.17302  -0.79794  -0.59159
 Alpha  occ. eigenvalues --   -0.51846  -0.49675  -0.40900  -0.35614
 Alpha virt. eigenvalues --    0.05383   0.08635   0.12021   0.12284   0.14486
 Alpha virt. eigenvalues --    0.16821   0.17837   0.29063   0.31682   0.33221
 Alpha virt. eigenvalues --    0.37542   0.39047   0.39483   0.40875   0.43436

 Mulliken charges:
               1
     1  C    0.073094
     2  O   -0.426954
     3  H    0.061281
     4  H    0.050342
     5  H    0.079882
     6  H    0.162356
 Sum of Mulliken charges =   0.00000

 Dipole moment (field-independent basis, Debye):
    X=             -0.9896    Y=             -1.3455    Z=              0.3211  Tot=              1.7008
 Quadrupole moment (field-independent basis, Debye-Ang):
   XX=            -12.9962   YY=            -12.3690   ZZ=            -13.5300
   XY=             -2.1398   XZ=              0.3419   YZ=             -0.1913

 Normal termination of Gaussian 09 at Wed Aug 26 13:14:02 2020.
