 Gaussian 09, Revision D.01,
 Gaussian 09:  ES64L-G09RevD.01 24-Apr-2013

 --------------------
 #p B2PLYPD3/Def2QZVP
 --------------------

 --------
 methanol
 --------
 Symbolic Z-matrix:
 Charge =  0 Multiplicity = 1

                         Standard orientation:
 ---------------------------------------------------------------------
 Center     Atomic      Atomic             Coordinates (Angstroms)
 Number     Number       Type             X           Y           Z
 ---------------------------------------------------------------------
      1          6           0        0.669247   -0.021661    0.009136
      2          8           0       -0.752079    0.100969   -0.015361
      3          1           0        1.029159   -0.719884   -0.823734
      4          1           0        1.002165   -0.379206    0.972276
      5          1           0        1.083985    1.039411   -0.157128
      6          1           0       -1.114158   -0.618106    0.076660
 ---------------------------------------------------------------------

 SCF Done:  E(RB2PLYPD3) =  -115.520542901     A.U. after   10 cycles
 E2(B2PLYPD3) =    -0.1451608597D+00 E(B2PLYPD3) =    -0.11566570376071D+03

 The electronic state is 1-A.
 Alpha  occ. eigenvalues --  -19.70938 -10.67094  -1.19790  -0.79731  -0.60500
 Alpha  occ. eigenvalues --   -0.51863  -0.49614  -0.41000  -0.35835
 Alpha virt. eigenvalues --    0.05370   0.08821   0.11967   0.12205   0.14688
 Alpha virt. eigenvalues --    0.17064   0.17863   0.28989   0.32793   0.33148
 Alpha virt. eigenvalues --    0.37147   0.38419   0.39644   0.40854   0.42953

 Mulliken charges:
               1
     1  C    0.064543
     2  O   -0.369949
     3  H    0.046843
     4  H    0.057712
     5  H    0.071792
     6  H    0.129058
 Sum of Mulliken charges =   0.00000

 Dipole moment (field-independent basis, Debye):
    X=              0.9147    Y=             -1.3631    Z=              0.2331  Tot=              1.6580
 Quadrupole moment (field-independent basis, Debye-Ang):
   XX=            -13.0937   YY=            -12.4117   ZZ=            -13.6291
   XY=              2.0491   XZ=             -0.2117   YZ=             -0.1356

 Normal termination of Gaussian 09 at Thu Aug 27 00:12:20 2020.
