 Gaussian 09, Revision D.01,
 Gaussian 09:  ES64L-G09RevD.01 24-Apr-2013

 --------------------
 #p B2PLYPD3/Def2QZVP
 --------------------

 --------
 methanol
 --------
 Symbolic Z-matrix:
 Charge =  0 Multiplicity = 1

                         Standard orientation:
 ---------------------------------------------------------------------
 Center     Atomic      Atomic             Coordinates (Angstroms)
 Number     Number       Type             X           Y           Z
 ---------------------------------------------------------------------
      1          6           0        0.645956   -0.024141    0.001008
      2          8           0       -0.748857    0.088482    0.002756
      3          1           0        1.008897   -0.668859   -0.858851
      4          1           0        1.103543   -0.449696    0.937184
      5          1           0        1.054886    1.129170   -0.126767
      6          1           0       -1.052205   -0.573626    0.020337
 ---------------------------------------------------------------------

 SCF Done:  E(RB2PLYPD3) =  -115.452133501     A.U. after   10 cycles
 E2(B2PLYPD3) =    -0.1443500462D+00 E(B2PLYPD3) =    -0.11559648354691D+03

 The electronic state is 1-A.
 Alpha  occ. eigenvalues --  -19.70640 -10.68179  -1.24147  -0.80318  -0.62354
 Alpha  occ. eigenvalues --   -0.51851  -0.49584  -0.40896  -0.36122
 Alpha virt. eigenvalues --    0.05241   0.09071   0.11409   0.12200   0.15011
 Alpha virt. eigenvalues --    0.16966   0.17843   0.28700   0.32857   0.33478
 Alpha virt. eigenvalues --    0.35546   0.38766   0.39525   0.40690   0.42061

 Mulliken charges:
               1
     1  C    0.046536
     2  O   -0.258940
     3  H    0.048311
     4  H    0.054009
     5  H    0.061797
     6  H    0.048286
 Sum of Mulliken charges =   0.00000

 Dipole moment (field-independent basis, Debye):
    X=              0.8384    Y=             -1.3634    Z=              0.0450  Tot=              1.6012
 Quadrupole moment (field-independent basis, Debye-Ang):
   XX=            -13.2848   YY=            -12.4125   ZZ=            -13.7470
   XY=              1.7579   XZ=              0.0416   YZ=             -0.0232

 Normal termination of Gaussian 09 at Wed Aug 26 13:17:59 2020.
