 Gaussian 09, Revision D.01,
 Gaussian 09:  ES64L-G09RevD.01 24-Apr-2013

 --------------------
 #p B2PLYPD3/Def2QZVP
 --------------------

 --------
 methanol
 --------
 Symbolic Z-matrix:
 Charge =  0 Multiplicity = 1

                         Standard orientation:
 ---------------------------------------------------------------------
 Center     Atomic      Atomic             Coordinates (Angstroms)
 Number     Number       Type             X           Y           Z
 ---------------------------------------------------------------------
      1          6           0        0.676544    0.025091    0.002664
      2          8           0       -0.746779   -0.148830    0.001267
      3          1           0        1.032088    0.502491    0.846494
      4          1           0        0.965927    0.580413   -0.832558
      5          1           0        1.109845   -0.921216   -0.052326
      6          1           0       -1.192891    0.878404    0.012268
 ---------------------------------------------------------------------

 SCF Done:  E(RB2PLYPD3) =  -115.527485789     A.U. after   11 cycles
 E2(B2PLYPD3) =    -0.1498931357D+00 E(B2PLYPD3) =    -0.11567737892492D+03

 The electronic state is 1-A.
 Alpha  occ. eigenvalues --  -19.73522 -10.63768  -1.13020  -0.79025  -0.56565
 Alpha  occ. eigenvalues --   -0.52343  -0.49498  -0.40869  -0.35130
 Alpha virt. eigenvalues --    0.03582   0.07814   0.12619   0.12686   0.14823
 Alpha virt. eigenvalues --    0.17476   0.18075   0.28677   0.29929   0.33205
 Alpha virt. eigenvalues --    0.33695   0.39514   0.40049   0.42222   0.43968

 Mulliken charges:
               1
     1  C    0.088498
     2  O   -0.499137
     3  H    0.047502
     4  H    0.044677
     5  H    0.067963
     6  H    0.250497
 Sum of Mulliken charges =   0.00000

 Dipole moment (field-independent basis, Debye):
    X=              0.9549    Y=              1.6477    Z=              0.0182  Tot=              1.9044
 Quadrupole moment (field-independent basis, Debye-Ang):
   XX=            -12.8685   YY=            -11.9322   ZZ=            -13.8564
   XY=             -2.4516   XZ=              0.0284   YZ=              0.0301

 Normal termination of Gaussian 09 at Thu Aug 27 00:05:04 2020.
