 Gaussian 09, Revision D.01,
 Gaussian 09:  ES64L-G09RevD.01 24-Apr-2013

 --------------------
 #p B2PLYPD3/Def2QZVP
 --------------------

 --------
 methanol
 --------
 Symbolic Z-matrix:
 Charge =  0 Multiplicity = 1

                         Standard orientation:
 ---------------------------------------------------------------------
 Center     Atomic      Atomic             Coordinates (Angstroms)
 Number     Number       Type             X           Y           Z
 ---------------------------------------------------------------------
      1          6           0       -0.683285    0.024696   -0.014879
      2          8           0        0.742903   -0.161746    0.001789
      3          1           0       -1.027416    0.476698   -0.789130
      4          1           0       -0.948290    0.595720    0.807426
      5          1           0       -1.048715   -0.910726    0.082365
      6          1           0        1.180908    0.984097   -0.025699
 ---------------------------------------------------------------------

 SCF Done:  E(RB2PLYPD3) =  -115.488265751     A.U. after   11 cycles
 E2(B2PLYPD3) =    -0.1520215384D+00 E(B2PLYPD3) =    -0.11564028728891D+03

 The electronic state is 1-A.
 Alpha  occ. eigenvalues --  -19.74106 -10.62403  -1.11963  -0.79755  -0.56637
 Alpha  occ. eigenvalues --   -0.52801  -0.48533  -0.40926  -0.35054
 Alpha virt. eigenvalues --    0.02050   0.07779   0.12495   0.12869   0.14874
 Alpha virt. eigenvalues --    0.17262   0.18024   0.25864   0.29617   0.33053
 Alpha virt. eigenvalues --    0.34019   0.38979   0.39855   0.42868   0.45363

 Mulliken charges:
               1
     1  C    0.100694
     2  O   -0.501041
     3  H    0.046849
     4  H    0.040282
     5  H    0.067509
     6  H    0.245707
 Sum of Mulliken charges =   0.00000

 Dipole moment (field-independent basis, Debye):
    X=             -1.0708    Y=              1.7097    Z=             -0.0740  Tot=              2.0187
 Quadrupole moment (field-independent basis, Debye-Ang):
   XX=            -13.0838   YY=            -11.5521   ZZ=            -13.8847
   XY=              2.3702   XZ=              0.0595   YZ=             -0.1100

 Normal termination of Gaussian 09 at Wed Aug 26 13:33:48 2020.
