 Gaussian 09, Revision D.01,
 Gaussian 09:  ES64L-G09RevD.01 24-Apr-2013

 --------------------
 #p B2PLYPD3/Def2QZVP
 --------------------

 --------
 methanol
 --------
 Symbolic Z-matrix:
 Charge =  0 Multiplicity = 1

                         Standard orientation:
 ---------------------------------------------------------------------
 Center     Atomic      Atomic             Coordinates (Angstroms)
 Number     Number       Type             X           Y           Z
 ---------------------------------------------------------------------
      1          6           0        0.658307    0.036058    0.004169
      2          8           0       -0.725463   -0.160512   -0.007512
      3          1           0        0.958576    0.457562    0.832371
      4          1           0        0.958088    0.617207   -0.781273
      5          1           0        1.097554   -0.935414   -0.056692
      6          1           0       -1.160355    0.928392    0.040680
 ---------------------------------------------------------------------

 SCF Done:  E(RB2PLYPD3) =  -115.507471221     A.U. after   11 cycles
 E2(B2PLYPD3) =    -0.1503401671D+00 E(B2PLYPD3) =    -0.11565781138829D+03

 The electronic state is 1-A.
 Alpha  occ. eigenvalues --  -19.73779 -10.62731  -1.13859  -0.78943  -0.56929
 Alpha  occ. eigenvalues --   -0.53637  -0.49277  -0.40472  -0.35034
 Alpha virt. eigenvalues --    0.02765   0.07925   0.12502   0.12845   0.15030
 Alpha virt. eigenvalues --    0.17494   0.18003   0.27167   0.29597   0.33333
 Alpha virt. eigenvalues --    0.35058   0.39105   0.39910   0.43478   0.44707

 Mulliken charges:
               1
     1  C    0.095174
     2  O   -0.487202
     3  H    0.043584
     4  H    0.039495
     5  H    0.060214
     6  H    0.248735
 Sum of Mulliken charges =   0.00000

 Dipole moment (field-independent basis, Debye):
    X=              0.9057    Y=              1.7228    Z=              0.1135  Tot=              1.9496
 Quadrupole moment (field-independent basis, Debye-Ang):
   XX=            -13.1200   YY=            -11.7377   ZZ=            -13.8296
   XY=             -2.3598   XZ=             -0.0494   YZ=              0.0618

 Normal termination of Gaussian 09 at Wed Aug 26 11:52:32 2020.
