 Gaussian 09, Revision D.01,
 Gaussian 09:  ES64L-G09RevD.01 24-Apr-2013

 --------------------
 #p B2PLYPD3/Def2QZVP
 --------------------

 --------
 methanol
 --------
 Symbolic Z-matrix:
 Charge =  0 Multiplicity = 1

                         Standard orientation:
 ---------------------------------------------------------------------
 Center     Atomic      Atomic             Coordinates (Angstroms)
 Number     Number       Type             X           Y           Z
 ---------------------------------------------------------------------
      1          6           0       -0.624791   -0.008215    0.001153
      2          8           0        0.729689   -0.180359   -0.015090
      3          1           0       -1.105796    0.605863   -0.763525
      4          1           0       -0.996595    0.468091    0.808984
      5          1           0       -1.094140   -0.769894    0.009706
      6          1           0        1.107766    1.188100    0.058639
 ---------------------------------------------------------------------

 SCF Done:  E(RB2PLYPD3) =  -115.412998842     A.U. after   11 cycles
 E2(B2PLYPD3) =    -0.1557249607D+00 E(B2PLYPD3) =    -0.11556872380258D+03

 The electronic state is 1-A.
 Alpha  occ. eigenvalues --  -19.75910 -10.61667  -1.14069  -0.80460  -0.55967
 Alpha  occ. eigenvalues --   -0.51510  -0.51187  -0.39596  -0.34410
 Alpha virt. eigenvalues --   -0.02425   0.07390   0.12797   0.13105   0.14957
 Alpha virt. eigenvalues --    0.18122   0.18567   0.22112   0.29788   0.33110
 Alpha virt. eigenvalues --    0.35668   0.38342   0.41152   0.41316   0.44025

 Mulliken charges:
               1
     1  C    0.083646
     2  O   -0.456827
     3  H    0.022275
     4  H    0.027858
     5  H    0.076155
     6  H    0.246893
 Sum of Mulliken charges =   0.00000

 Dipole moment (field-independent basis, Debye):
    X=             -0.9806    Y=              1.7083    Z=              0.2060  Tot=              1.9805
 Quadrupole moment (field-independent basis, Debye-Ang):
   XX=            -13.3267   YY=            -11.1684   ZZ=            -14.2494
   XY=              2.4514   XZ=              0.0329   YZ=              0.1212

 Normal termination of Gaussian 09 at Wed Aug 26 21:35:15 2020.
