 Gaussian 09, Revision D.01,
 Gaussian 09:  ES64L-G09RevD.01 24-Apr-2013

 --------------------
 #p B2PLYPD3/Def2QZVP
 --------------------

 --------
 methanol
 --------
 Symbolic Z-matrix:
 Charge =  0 Multiplicity = 1

                         Standard orientation:
 ---------------------------------------------------------------------
 Center     Atomic      Atomic             Coordinates (Angstroms)
 Number     Number       Type             X           Y           Z
 ---------------------------------------------------------------------
      1          6           0        0.666347   -0.019922   -0.004876
      2          8           0       -0.753563    0.102625    0.002458
      3          1           0        1.041967   -0.530855   -0.918698
      4          1           0        1.015637   -0.577149    0.922450
      5          1           0        1.097211    1.032919    0.027571
      6          1           0       -1.124397   -0.626385   -0.021736
 ---------------------------------------------------------------------

 SCF Done:  E(RB2PLYPD3) =  -115.525225634     A.U. after   10 cycles
 E2(B2PLYPD3) =    -0.1453171869D+00 E(B2PLYPD3) =    -0.11567054282056D+03

 The electronic state is 1-A.
 Alpha  occ. eigenvalues --  -19.71152 -10.67224  -1.19600  -0.79586  -0.60399
 Alpha  occ. eigenvalues --   -0.51542  -0.49881  -0.40943  -0.35765
 Alpha virt. eigenvalues --    0.05375   0.08717   0.12106   0.12163   0.14647
 Alpha virt. eigenvalues --    0.17161   0.17939   0.28963   0.32819   0.33269
 Alpha virt. eigenvalues --    0.37145   0.38784   0.39653   0.40005   0.42827

 Mulliken charges:
               1
     1  C    0.062683
     2  O   -0.375733
     3  H    0.052997
     4  H    0.048538
     5  H    0.073329
     6  H    0.138186
 Sum of Mulliken charges =   0.00000

 Dipole moment (field-independent basis, Debye):
    X=              0.8931    Y=             -1.3640    Z=             -0.0678  Tot=              1.6318
 Quadrupole moment (field-independent basis, Debye-Ang):
   XX=            -13.0126   YY=            -12.4599   ZZ=            -13.6797
   XY=              2.1094   XZ=              0.0127   YZ=              0.0578

 Normal termination of Gaussian 09 at Thu Aug 27 00:14:24 2020.
