 Gaussian 09, Revision D.01,
 Gaussian 09:  ES64L-G09RevD.01 24-Apr-2013

 --------------------
 #p B2PLYPD3/Def2QZVP
 --------------------

 --------
 methanol
 --------
 Symbolic Z-matrix:
 Charge =  0 Multiplicity = 1

                         Standard orientation:
 ---------------------------------------------------------------------
 Center     Atomic      Atomic             Coordinates (Angstroms)
 Number     Number       Type             X           Y           Z
 ---------------------------------------------------------------------
      1          6           0       -0.670572   -0.022756    0.007175
      2          8           0        0.768470   -0.031555   -0.050509
      3          1           0       -1.076408    1.219171   -0.039894
      4          1           0       -1.005853   -0.589606    0.949785
      5          1           0       -0.997756   -0.538348   -0.909332
      6          1           0        0.955692    0.297756    0.360462
 ---------------------------------------------------------------------

 SCF Done:  E(RB2PLYPD3) =  -115.065650223     A.U. after   11 cycles
 E2(B2PLYPD3) =    -0.1434413247D+00 E(B2PLYPD3) =    -0.11520909154772D+03

 The electronic state is 1-A.
 Alpha  occ. eigenvalues --  -19.68773 -10.69551  -1.31590  -0.82357  -0.61791
 Alpha  occ. eigenvalues --   -0.51704  -0.50605  -0.42283  -0.36542
 Alpha virt. eigenvalues --    0.05028   0.09407   0.10753   0.12056   0.14050
 Alpha virt. eigenvalues --    0.16812   0.17705   0.27612   0.31036   0.31453
 Alpha virt. eigenvalues --    0.33891   0.38245   0.39729   0.41017   0.43730

 Mulliken charges:
               1
     1  C    0.045162
     2  O   -0.118982
     3  H    0.032650
     4  H    0.064843
     5  H    0.094109
     6  H   -0.117781
 Sum of Mulliken charges =   0.00000

 Dipole moment (field-independent basis, Debye):
    X=             -1.1993    Y=              0.5044    Z=              0.8440  Tot=              1.5508
 Quadrupole moment (field-independent basis, Debye-Ang):
   XX=            -13.7198   YY=            -12.9519   ZZ=            -12.7078
   XY=              1.1712   XZ=              1.3422   YZ=              0.4007

 Normal termination of Gaussian 09 at Wed Aug 26 23:13:42 2020.
