 Gaussian 09, Revision D.01,
 Gaussian 09:  ES64L-G09RevD.01 24-Apr-2013

 --------------------
 #p B2PLYPD3/Def2QZVP
 --------------------

 --------
 methanol
 --------
 Symbolic Z-matrix:
 Charge =  0 Multiplicity = 1

                         Standard orientation:
 ---------------------------------------------------------------------
 Center     Atomic      Atomic             Coordinates (Angstroms)
 Number     Number       Type             X           Y           Z
 ---------------------------------------------------------------------
      1          6           0        0.647082   -0.018620    0.000668
      2          8           0       -0.733578    0.117516   -0.006803
      3          1           0        0.927963   -0.718462   -0.838817
      4          1           0        1.075736   -0.398288    0.952960
      5          1           0        1.130965    0.959983   -0.159006
      6          1           0       -1.148531   -0.671642    0.095277
 ---------------------------------------------------------------------

 SCF Done:  E(RB2PLYPD3) =  -115.547190055     A.U. after   11 cycles
 E2(B2PLYPD3) =    -0.1459435496D+00 E(B2PLYPD3) =    -0.11569313360490D+03

 The electronic state is 1-A.
 Alpha  occ. eigenvalues --  -19.72019 -10.66272  -1.18535  -0.78963  -0.60063
 Alpha  occ. eigenvalues --   -0.52104  -0.50640  -0.40366  -0.35146
 Alpha virt. eigenvalues --    0.05184   0.08441   0.12265   0.12560   0.14733
 Alpha virt. eigenvalues --    0.17449   0.18033   0.28999   0.32753   0.34619
 Alpha virt. eigenvalues --    0.36039   0.39321   0.39740   0.40618   0.43611

 Mulliken charges:
               1
     1  C    0.063426
     2  O   -0.419556
     3  H    0.039124
     4  H    0.044071
     5  H    0.071679
     6  H    0.201255
 Sum of Mulliken charges =   0.00000

 Dipole moment (field-independent basis, Debye):
    X=              0.7002    Y=             -1.3917    Z=              0.1924  Tot=              1.5698
 Quadrupole moment (field-independent basis, Debye-Ang):
   XX=            -12.8908   YY=            -12.4891   ZZ=            -13.7816
   XY=              2.3216   XZ=             -0.1485   YZ=             -0.1297

 Normal termination of Gaussian 09 at Wed Aug 26 13:41:04 2020.
