 Gaussian 09, Revision D.01,
 Gaussian 09:  ES64L-G09RevD.01 24-Apr-2013

 --------------------
 #p B2PLYPD3/Def2QZVP
 --------------------

 --------
 methanol
 --------
 Symbolic Z-matrix:
 Charge =  0 Multiplicity = 1

                         Standard orientation:
 ---------------------------------------------------------------------
 Center     Atomic      Atomic             Coordinates (Angstroms)
 Number     Number       Type             X           Y           Z
 ---------------------------------------------------------------------
      1          6           0       -0.652362    0.018524    0.026971
      2          8           0        0.732522   -0.066485   -0.049534
      3          1           0       -0.847506    1.207901   -0.269145
      4          1           0       -1.058581   -0.382792    0.966396
      5          1           0       -1.072335   -0.711767   -0.792759
      6          1           0        1.032419    0.307392    0.329956
 ---------------------------------------------------------------------

 SCF Done:  E(RB2PLYPD3) =  -115.239599595     A.U. after   11 cycles
 E2(B2PLYPD3) =    -0.1430072757D+00 E(B2PLYPD3) =    -0.11538260687112D+03

 The electronic state is 1-A.
 Alpha  occ. eigenvalues --  -19.68712 -10.68682  -1.29154  -0.83122  -0.62288
 Alpha  occ. eigenvalues --   -0.53062  -0.50634  -0.40160  -0.36138
 Alpha virt. eigenvalues --    0.05179   0.09596   0.11241   0.12110   0.13850
 Alpha virt. eigenvalues --    0.16849   0.17984   0.27994   0.31537   0.33894
 Alpha virt. eigenvalues --    0.35346   0.37367   0.40386   0.41645   0.43367

 Mulliken charges:
               1
     1  C    0.044313
     2  O   -0.158354
     3  H    0.040135
     4  H    0.062140
     5  H    0.072610
     6  H   -0.060844
 Sum of Mulliken charges =   0.00000

 Dipole moment (field-independent basis, Debye):
    X=             -0.8512    Y=              0.6844    Z=              0.8696  Tot=              1.3961
 Quadrupole moment (field-independent basis, Debye-Ang):
   XX=            -13.3616   YY=            -12.8752   ZZ=            -13.0795
   XY=              1.6408   XZ=              1.0991   YZ=              0.2457

 Normal termination of Gaussian 09 at Wed Aug 26 18:50:06 2020.
