 Gaussian 09, Revision D.01,
 Gaussian 09:  ES64L-G09RevD.01 24-Apr-2013

 --------------------
 #p B2PLYPD3/Def2QZVP
 --------------------

 --------
 methanol
 --------
 Symbolic Z-matrix:
 Charge =  0 Multiplicity = 1

                         Standard orientation:
 ---------------------------------------------------------------------
 Center     Atomic      Atomic             Coordinates (Angstroms)
 Number     Number       Type             X           Y           Z
 ---------------------------------------------------------------------
      1          6           0       -0.680497   -0.000229   -0.008277
      2          8           0        0.770415    0.070858   -0.006147
      3          1           0       -1.096757   -0.444551    0.971348
      4          1           0       -0.917589   -0.764267   -0.859492
      5          1           0       -1.050325    1.110630   -0.144290
      6          1           0        0.984335   -0.467303    0.131267
 ---------------------------------------------------------------------

 SCF Done:  E(RB2PLYPD3) =  -115.199473608     A.U. after   11 cycles
 E2(B2PLYPD3) =    -0.1434953001D+00 E(B2PLYPD3) =    -0.11534296890820D+03

 The electronic state is 1-A.
 Alpha  occ. eigenvalues --  -19.68562 -10.69089  -1.29053  -0.81502  -0.62044
 Alpha  occ. eigenvalues --   -0.51548  -0.49354  -0.42706  -0.36296
 Alpha virt. eigenvalues --    0.05165   0.09348   0.11436   0.11678   0.14638
 Alpha virt. eigenvalues --    0.16797   0.17114   0.28306   0.30481   0.33023
 Alpha virt. eigenvalues --    0.36259   0.37621   0.37795   0.40939   0.43087

 Mulliken charges:
               1
     1  C    0.061663
     2  O   -0.178908
     3  H    0.049319
     4  H    0.053483
     5  H    0.086469
     6  H   -0.072026
 Sum of Mulliken charges =   0.00000

 Dipole moment (field-independent basis, Debye):
    X=             -1.2394    Y=             -1.1357    Z=              0.3115  Tot=              1.7097
 Quadrupole moment (field-independent basis, Debye-Ang):
   XX=            -13.5871   YY=            -12.1359   ZZ=            -13.5117
   XY=             -1.7217   XZ=              0.1911   YZ=             -0.1972

 Normal termination of Gaussian 09 at Wed Aug 26 22:31:16 2020.
