 Gaussian 09, Revision D.01,
 Gaussian 09:  ES64L-G09RevD.01 24-Apr-2013

 --------------------
 #p B2PLYPD3/Def2QZVP
 --------------------

 --------
 methanol
 --------
 Symbolic Z-matrix:
 Charge =  0 Multiplicity = 1

                         Standard orientation:
 ---------------------------------------------------------------------
 Center     Atomic      Atomic             Coordinates (Angstroms)
 Number     Number       Type             X           Y           Z
 ---------------------------------------------------------------------
      1          6           0        0.658547   -0.015762   -0.003676
      2          8           0       -0.751508    0.095792   -0.006572
      3          1           0        1.010324   -0.708116   -0.839219
      4          1           0        1.076948   -0.367599    1.007546
      5          1           0        1.061021    1.018740   -0.169454
      6          1           0       -1.087514   -0.614792    0.075755
 ---------------------------------------------------------------------

 SCF Done:  E(RB2PLYPD3) =  -115.510165744     A.U. after   10 cycles
 E2(B2PLYPD3) =    -0.1449379625D+00 E(B2PLYPD3) =    -0.11565510370629D+03

 The electronic state is 1-A.
 Alpha  occ. eigenvalues --  -19.71034 -10.67422  -1.21063  -0.79817  -0.60775
 Alpha  occ. eigenvalues --   -0.51521  -0.50218  -0.41192  -0.35792
 Alpha virt. eigenvalues --    0.05389   0.08839   0.11967   0.12223   0.14659
 Alpha virt. eigenvalues --    0.17077   0.18034   0.28800   0.32980   0.33335
 Alpha virt. eigenvalues --    0.36972   0.39043   0.39485   0.40067   0.42858

 Mulliken charges:
               1
     1  C    0.056582
     2  O   -0.338168
     3  H    0.047745
     4  H    0.047778
     5  H    0.074994
     6  H    0.111069
 Sum of Mulliken charges =   0.00000

 Dipole moment (field-independent basis, Debye):
    X=              0.8850    Y=             -1.3023    Z=              0.1341  Tot=              1.5802
 Quadrupole moment (field-independent basis, Debye-Ang):
   XX=            -13.1698   YY=            -12.4570   ZZ=            -13.6559
   XY=              2.0386   XZ=             -0.1993   YZ=             -0.0817

 Normal termination of Gaussian 09 at Thu Aug 27 00:01:11 2020.
