 Gaussian 09, Revision D.01,
 Gaussian 09:  ES64L-G09RevD.01 24-Apr-2013

 --------------------
 #p B2PLYPD3/Def2QZVP
 --------------------

 --------
 methanol
 --------
 Symbolic Z-matrix:
 Charge =  0 Multiplicity = 1

                         Standard orientation:
 ---------------------------------------------------------------------
 Center     Atomic      Atomic             Coordinates (Angstroms)
 Number     Number       Type             X           Y           Z
 ---------------------------------------------------------------------
      1          6           0        0.663801    0.030864   -0.009791
      2          8           0       -0.739579   -0.142494    0.002018
      3          1           0        1.006985    0.521424    0.881299
      4          1           0        1.023935    0.534905   -0.831138
      5          1           0        1.086473   -0.951081    0.002451
      6          1           0       -1.183564    0.849519   -0.010013
 ---------------------------------------------------------------------

 SCF Done:  E(RB2PLYPD3) =  -115.535916406     A.U. after   11 cycles
 E2(B2PLYPD3) =    -0.1491967216D+00 E(B2PLYPD3) =    -0.11568511312757D+03

 The electronic state is 1-A.
 Alpha  occ. eigenvalues --  -19.73448 -10.64211  -1.14169  -0.78602  -0.57327
 Alpha  occ. eigenvalues --   -0.52370  -0.49520  -0.40669  -0.35202
 Alpha virt. eigenvalues --    0.03948   0.07894   0.12540   0.12656   0.14943
 Alpha virt. eigenvalues --    0.17324   0.18286   0.28975   0.30626   0.33455
 Alpha virt. eigenvalues --    0.34340   0.39038   0.39801   0.42080   0.44322

 Mulliken charges:
               1
     1  C    0.077921
     2  O   -0.484797
     3  H    0.044948
     4  H    0.048872
     5  H    0.064578
     6  H    0.248478
 Sum of Mulliken charges =   0.00000

 Dipole moment (field-independent basis, Debye):
    X=              0.8534    Y=              1.6193    Z=             -0.0526  Tot=              1.8312
 Quadrupole moment (field-independent basis, Debye-Ang):
   XX=            -12.9046   YY=            -12.0628   ZZ=            -13.8329
   XY=             -2.3783   XZ=             -0.0335   YZ=             -0.0679

 Normal termination of Gaussian 09 at Thu Aug 27 01:12:01 2020.
