 Gaussian 09, Revision D.01,
 Gaussian 09:  ES64L-G09RevD.01 24-Apr-2013

 --------------------
 #p B2PLYPD3/Def2QZVP
 --------------------

 --------
 methanol
 --------
 Symbolic Z-matrix:
 Charge =  0 Multiplicity = 1

                         Standard orientation:
 ---------------------------------------------------------------------
 Center     Atomic      Atomic             Coordinates (Angstroms)
 Number     Number       Type             X           Y           Z
 ---------------------------------------------------------------------
      1          6           0       -0.667573   -0.018526    0.007247
      2          8           0        0.756151    0.104129   -0.004100
      3          1           0       -1.069185   -0.494522    0.919934
      4          1           0       -1.009361   -0.614922   -0.905351
      5          1           0       -1.098315    1.027454   -0.068215
      6          1           0        1.133088   -0.639890    0.042950
 ---------------------------------------------------------------------

 SCF Done:  E(RB2PLYPD3) =  -115.531753998     A.U. after   10 cycles
 E2(B2PLYPD3) =    -0.1456409742D+00 E(B2PLYPD3) =    -0.11567739497238D+03

 The electronic state is 1-A.
 Alpha  occ. eigenvalues --  -19.71398 -10.67167  -1.18973  -0.79409  -0.60221
 Alpha  occ. eigenvalues --   -0.51343  -0.49805  -0.41010  -0.35718
 Alpha virt. eigenvalues --    0.05350   0.08594   0.12141   0.12176   0.14695
 Alpha virt. eigenvalues --    0.17176   0.17987   0.29000   0.32617   0.33407
 Alpha virt. eigenvalues --    0.37073   0.38676   0.39448   0.40114   0.42754

 Mulliken charges:
               1
     1  C    0.063283
     2  O   -0.391615
     3  H    0.054233
     4  H    0.046707
     5  H    0.073422
     6  H    0.153970
 Sum of Mulliken charges =   0.00000

 Dipole moment (field-independent basis, Debye):
    X=             -0.8956    Y=             -1.3760    Z=              0.1201  Tot=              1.6462
 Quadrupole moment (field-independent basis, Debye-Ang):
   XX=            -12.9657   YY=            -12.4496   ZZ=            -13.7260
   XY=             -2.1305   XZ=              0.0331   YZ=             -0.0992

 Normal termination of Gaussian 09 at Thu Aug 27 00:01:43 2020.
