 Gaussian 09, Revision D.01,
 Gaussian 09:  ES64L-G09RevD.01 24-Apr-2013

 --------------------
 #p B2PLYPD3/Def2QZVP
 --------------------

 --------
 methanol
 --------
 Symbolic Z-matrix:
 Charge =  0 Multiplicity = 1

                         Standard orientation:
 ---------------------------------------------------------------------
 Center     Atomic      Atomic             Coordinates (Angstroms)
 Number     Number       Type             X           Y           Z
 ---------------------------------------------------------------------
      1          6           0       -0.671038    0.016844   -0.000838
      2          8           0        0.745477   -0.141178   -0.009876
      3          1           0       -1.070887    0.551122   -0.842831
      4          1           0       -1.004592    0.495439    0.872649
      5          1           0       -1.025598   -0.922237    0.015293
      6          1           0        1.163487    0.904040    0.038927
 ---------------------------------------------------------------------

 SCF Done:  E(RB2PLYPD3) =  -115.524591348     A.U. after   11 cycles
 E2(B2PLYPD3) =    -0.1501518062D+00 E(B2PLYPD3) =    -0.11567474315456D+03

 The electronic state is 1-A.
 Alpha  occ. eigenvalues --  -19.73752 -10.63780  -1.13392  -0.78888  -0.56898
 Alpha  occ. eigenvalues --   -0.51843  -0.49552  -0.41173  -0.35120
 Alpha virt. eigenvalues --    0.03478   0.07842   0.12574   0.12695   0.14964
 Alpha virt. eigenvalues --    0.17147   0.18314   0.28413   0.29901   0.33466
 Alpha virt. eigenvalues --    0.34031   0.38829   0.40388   0.41555   0.43943

 Mulliken charges:
               1
     1  C    0.078715
     2  O   -0.489823
     3  H    0.045794
     4  H    0.044376
     5  H    0.070985
     6  H    0.249952
 Sum of Mulliken charges =   0.00000

 Dipole moment (field-independent basis, Debye):
    X=             -0.9491    Y=              1.6002    Z=              0.1097  Tot=              1.8638
 Quadrupole moment (field-independent basis, Debye-Ang):
   XX=            -13.0562   YY=            -11.8571   ZZ=            -13.8622
   XY=              2.3586   XZ=              0.1126   YZ=              0.0380

 Normal termination of Gaussian 09 at Wed Aug 26 10:32:07 2020.
