 Gaussian 09, Revision D.01,
 Gaussian 09:  ES64L-G09RevD.01 24-Apr-2013

 --------------------
 #p B2PLYPD3/Def2QZVP
 --------------------

 --------
 methanol
 --------
 Symbolic Z-matrix:
 Charge =  0 Multiplicity = 1

                         Standard orientation:
 ---------------------------------------------------------------------
 Center     Atomic      Atomic             Coordinates (Angstroms)
 Number     Number       Type             X           Y           Z
 ---------------------------------------------------------------------
      1          6           0        0.668190    0.033311    0.010420
      2          8           0       -0.732091   -0.167197   -0.010339
      3          1           0        1.026339    0.389779    0.871849
      4          1           0        1.012738    0.641701   -0.790922
      5          1           0        1.088368   -0.855803   -0.115645
      6          1           0       -1.279854    0.962036    0.054910
 ---------------------------------------------------------------------

 SCF Done:  E(RB2PLYPD3) =  -115.488360096     A.U. after   11 cycles
 E2(B2PLYPD3) =    -0.1522299882D+00 E(B2PLYPD3) =    -0.11564059008398D+03

 The electronic state is 1-A.
 Alpha  occ. eigenvalues --  -19.74366 -10.62725  -1.12392  -0.79276  -0.55424
 Alpha  occ. eigenvalues --   -0.52559  -0.49764  -0.39835  -0.35060
 Alpha virt. eigenvalues --    0.01479   0.07591   0.12756   0.12935   0.14874
 Alpha virt. eigenvalues --    0.17317   0.18519   0.24998   0.29436   0.33588
 Alpha virt. eigenvalues --    0.34501   0.38890   0.40503   0.42619   0.44098

 Mulliken charges:
               1
     1  C    0.088955
     2  O   -0.496982
     3  H    0.049037
     4  H    0.041204
     5  H    0.064387
     6  H    0.253399
 Sum of Mulliken charges =   0.00000

 Dipole moment (field-independent basis, Debye):
    X=              0.8509    Y=              1.6453    Z=              0.1332  Tot=              1.8571
 Quadrupole moment (field-independent basis, Debye-Ang):
   XX=            -12.5610   YY=            -11.9356   ZZ=            -13.8719
   XY=             -2.6382   XZ=             -0.0905   YZ=              0.1044

 Normal termination of Gaussian 09 at Wed Aug 26 11:33:55 2020.
