 Gaussian 09, Revision D.01,
 Gaussian 09:  ES64L-G09RevD.01 24-Apr-2013

 --------------------
 #p B2PLYPD3/Def2QZVP
 --------------------

 --------
 methanol
 --------
 Symbolic Z-matrix:
 Charge =  0 Multiplicity = 1

                         Standard orientation:
 ---------------------------------------------------------------------
 Center     Atomic      Atomic             Coordinates (Angstroms)
 Number     Number       Type             X           Y           Z
 ---------------------------------------------------------------------
      1          6           0        0.676022    0.028098    0.009245
      2          8           0       -0.740728   -0.138776   -0.000108
      3          1           0        1.066952    0.450707    0.845178
      4          1           0        0.941722    0.604841   -0.843192
      5          1           0        1.027371   -0.966247   -0.096573
      6          1           0       -1.166355    0.852323    0.039982
 ---------------------------------------------------------------------

 SCF Done:  E(RB2PLYPD3) =  -115.534034129     A.U. after   11 cycles
 E2(B2PLYPD3) =    -0.1491929355D+00 E(B2PLYPD3) =    -0.11568322706421D+03

 The electronic state is 1-A.
 Alpha  occ. eigenvalues --  -19.73182 -10.63932  -1.13830  -0.78875  -0.57512
 Alpha  occ. eigenvalues --   -0.52706  -0.48943  -0.41020  -0.35197
 Alpha virt. eigenvalues --    0.04049   0.08039   0.12423   0.12627   0.14965
 Alpha virt. eigenvalues --    0.17043   0.18162   0.29056   0.31065   0.33034
 Alpha virt. eigenvalues --    0.34254   0.38982   0.39473   0.42537   0.44683

 Mulliken charges:
               1
     1  C    0.080020
     2  O   -0.487852
     3  H    0.051188
     4  H    0.044891
     5  H    0.068156
     6  H    0.243598
 Sum of Mulliken charges =   0.00000

 Dipole moment (field-independent basis, Debye):
    X=              0.9306    Y=              1.6165    Z=              0.0891  Tot=              1.8673
 Quadrupole moment (field-independent basis, Debye-Ang):
   XX=            -13.0564   YY=            -11.9305   ZZ=            -13.7810
   XY=             -2.2893   XZ=              0.0573   YZ=              0.0988

 Normal termination of Gaussian 09 at Wed Aug 26 12:07:44 2020.
