 Gaussian 09, Revision D.01,
 Gaussian 09:  ES64L-G09RevD.01 24-Apr-2013

 --------------------
 #p B2PLYPD3/Def2QZVP
 --------------------

 --------
 methanol
 --------
 Symbolic Z-matrix:
 Charge =  0 Multiplicity = 1

                         Standard orientation:
 ---------------------------------------------------------------------
 Center     Atomic      Atomic             Coordinates (Angstroms)
 Number     Number       Type             X           Y           Z
 ---------------------------------------------------------------------
      1          6           0        0.663353    0.027347    0.013712
      2          8           0       -0.753829   -0.136178   -0.007734
      3          1           0        0.967484    0.471907    0.928914
      4          1           0        1.023654    0.568868   -0.896035
      5          1           0        1.205987   -0.893196   -0.061119
      6          1           0       -1.146610    0.777761    0.007840
 ---------------------------------------------------------------------

 SCF Done:  E(RB2PLYPD3) =  -115.546899473     A.U. after   10 cycles
 E2(B2PLYPD3) =    -0.1479607187D+00 E(B2PLYPD3) =    -0.11569486019171D+03

 The electronic state is 1-A.
 Alpha  occ. eigenvalues --  -19.72926 -10.65410  -1.15321  -0.78733  -0.57538
 Alpha  occ. eigenvalues --   -0.52507  -0.50168  -0.40260  -0.35514
 Alpha virt. eigenvalues --    0.04773   0.07951   0.12151   0.12911   0.14227
 Alpha virt. eigenvalues --    0.18019   0.18392   0.28988   0.32549   0.33101
 Alpha virt. eigenvalues --    0.33572   0.39006   0.40576   0.41430   0.43739

 Mulliken charges:
               1
     1  C    0.069567
     2  O   -0.470679
     3  H    0.054174
     4  H    0.044089
     5  H    0.065678
     6  H    0.237171
 Sum of Mulliken charges =   0.00000

 Dipole moment (field-independent basis, Debye):
    X=              0.9275    Y=              1.5100    Z=              0.0665  Tot=              1.7733
 Quadrupole moment (field-independent basis, Debye-Ang):
   XX=            -12.8864   YY=            -12.4680   ZZ=            -13.6685
   XY=             -2.4828   XZ=             -0.0632   YZ=              0.0786

 Normal termination of Gaussian 09 at Wed Aug 26 18:53:42 2020.
