 Gaussian 09, Revision D.01,
 Gaussian 09:  ES64L-G09RevD.01 24-Apr-2013

 --------------------
 #p B2PLYPD3/Def2QZVP
 --------------------

 --------
 methanol
 --------
 Symbolic Z-matrix:
 Charge =  0 Multiplicity = 1

                         Standard orientation:
 ---------------------------------------------------------------------
 Center     Atomic      Atomic             Coordinates (Angstroms)
 Number     Number       Type             X           Y           Z
 ---------------------------------------------------------------------
      1          6           0       -0.671104   -0.028699    0.000468
      2          8           0        0.754701    0.114358   -0.006935
      3          1           0       -1.016996   -0.509709    0.918504
      4          1           0       -1.054459   -0.566613   -0.886796
      5          1           0       -1.108929    1.014791   -0.008015
      6          1           0        1.169406   -0.681135    0.028983
 ---------------------------------------------------------------------

 SCF Done:  E(RB2PLYPD3) =  -115.547913673     A.U. after   10 cycles
 E2(B2PLYPD3) =    -0.1465044478D+00 E(B2PLYPD3) =    -0.11569441812029D+03

 The electronic state is 1-A.
 Alpha  occ. eigenvalues --  -19.71934 -10.66510  -1.17000  -0.79020  -0.59312
 Alpha  occ. eigenvalues --   -0.51764  -0.49426  -0.40655  -0.35716
 Alpha virt. eigenvalues --    0.05263   0.08313   0.12257   0.12307   0.14695
 Alpha virt. eigenvalues --    0.17196   0.18169   0.29038   0.32870   0.33446
 Alpha virt. eigenvalues --    0.36512   0.38319   0.39697   0.40638   0.43256

 Mulliken charges:
               1
     1  C    0.066652
     2  O   -0.440010
     3  H    0.053688
     4  H    0.053681
     5  H    0.068945
     6  H    0.197043
 Sum of Mulliken charges =   0.00000

 Dipole moment (field-independent basis, Debye):
    X=             -0.8730    Y=             -1.4547    Z=              0.0826  Tot=              1.6986
 Quadrupole moment (field-independent basis, Debye-Ang):
   XX=            -12.8239   YY=            -12.4552   ZZ=            -13.7211
   XY=             -2.2096   XZ=              0.1040   YZ=             -0.0305

 Normal termination of Gaussian 09 at Thu Aug 27 00:03:53 2020.
