 Gaussian 09, Revision D.01,
 Gaussian 09:  ES64L-G09RevD.01 24-Apr-2013

 --------------------
 #p B2PLYPD3/Def2QZVP
 --------------------

 --------
 methanol
 --------
 Symbolic Z-matrix:
 Charge =  0 Multiplicity = 1

                         Standard orientation:
 ---------------------------------------------------------------------
 Center     Atomic      Atomic             Coordinates (Angstroms)
 Number     Number       Type             X           Y           Z
 ---------------------------------------------------------------------
      1          6           0        0.618602    0.049421    0.008379
      2          8           0       -0.727589   -0.182461    0.000828
      3          1           0        1.038032    0.486615    0.781443
      4          1           0        1.095473    0.485992   -0.767232
      5          1           0        1.131757   -0.901553   -0.034607
      6          1           0       -1.156164    1.092109   -0.036506
 ---------------------------------------------------------------------

 SCF Done:  E(RB2PLYPD3) =  -115.455908034     A.U. after   12 cycles
 E2(B2PLYPD3) =    -0.1543114740D+00 E(B2PLYPD3) =    -0.11561021950840D+03

 The electronic state is 1-A.
 Alpha  occ. eigenvalues --  -19.75872 -10.62572  -1.14426  -0.79427  -0.55465
 Alpha  occ. eigenvalues --   -0.53055  -0.50275  -0.38596  -0.35446
 Alpha virt. eigenvalues --   -0.00648   0.07316   0.12584   0.13092   0.15127
 Alpha virt. eigenvalues --    0.17842   0.18839   0.22646   0.29360   0.34173
 Alpha virt. eigenvalues --    0.36383   0.37319   0.40023   0.43217   0.44322

 Mulliken charges:
               1
     1  C    0.090619
     2  O   -0.453050
     3  H    0.041549
     4  H    0.037165
     5  H    0.038411
     6  H    0.245306
 Sum of Mulliken charges =   0.00000

 Dipole moment (field-independent basis, Debye):
    X=              0.8864    Y=              1.8051    Z=             -0.0454  Tot=              2.0116
 Quadrupole moment (field-independent basis, Debye-Ang):
   XX=            -13.0825   YY=            -11.6881   ZZ=            -14.1248
   XY=             -2.2736   XZ=              0.0218   YZ=              0.0089

 Normal termination of Gaussian 09 at Thu Aug 27 00:22:24 2020.
