 Gaussian 09, Revision D.01,
 Gaussian 09:  ES64L-G09RevD.01 24-Apr-2013

 --------------------
 #p B2PLYPD3/Def2QZVP
 --------------------

 --------
 methanol
 --------
 Symbolic Z-matrix:
 Charge =  0 Multiplicity = 1

                         Standard orientation:
 ---------------------------------------------------------------------
 Center     Atomic      Atomic             Coordinates (Angstroms)
 Number     Number       Type             X           Y           Z
 ---------------------------------------------------------------------
      1          6           0        0.686894   -0.028386    0.016387
      2          8           0       -0.759897    0.066961   -0.021185
      3          1           0        0.971267   -0.958993   -0.640944
      4          1           0        0.905479   -0.067897    1.129218
      5          1           0        1.098206    1.035212   -0.482450
      6          1           0       -1.017142   -0.373691    0.065329
 ---------------------------------------------------------------------

 SCF Done:  E(RB2PLYPD3) =  -114.874194897     A.U. after   11 cycles
 E2(B2PLYPD3) =    -0.1431540970D+00 E(B2PLYPD3) =    -0.11501734899386D+03

 The electronic state is 1-A.
 Alpha  occ. eigenvalues --  -19.67840 -10.69872  -1.32436  -0.83275  -0.61777
 Alpha  occ. eigenvalues --   -0.52656  -0.49344  -0.40824  -0.36837
 Alpha virt. eigenvalues --    0.04964   0.09870   0.11026   0.11557   0.13745
 Alpha virt. eigenvalues --    0.16590   0.17305   0.28018   0.30600   0.32583
 Alpha virt. eigenvalues --    0.33939   0.36714   0.39164   0.41046   0.43890

 Mulliken charges:
               1
     1  C    0.060685
     2  O   -0.079200
     3  H    0.057643
     4  H    0.071849
     5  H    0.074819
     6  H   -0.185796
 Sum of Mulliken charges =   0.00000

 Dipole moment (field-independent basis, Debye):
    X=              1.1988    Y=             -1.0980    Z=              0.2461  Tot=              1.6441
 Quadrupole moment (field-independent basis, Debye-Ang):
   XX=            -13.4791   YY=            -12.4195   ZZ=            -13.0760
   XY=              1.6812   XZ=             -0.4478   YZ=             -0.0579

 Normal termination of Gaussian 09 at Wed Aug 26 19:48:49 2020.
