 Gaussian 09, Revision D.01,
 Gaussian 09:  ES64L-G09RevD.01 24-Apr-2013

 --------------------
 #p B2PLYPD3/Def2QZVP
 --------------------

 --------
 methanol
 --------
 Symbolic Z-matrix:
 Charge =  0 Multiplicity = 1

                         Standard orientation:
 ---------------------------------------------------------------------
 Center     Atomic      Atomic             Coordinates (Angstroms)
 Number     Number       Type             X           Y           Z
 ---------------------------------------------------------------------
      1          6           0        0.658013   -0.022860    0.001808
      2          8           0       -0.741876    0.114779   -0.004615
      3          1           0        1.040935   -0.571447   -0.883886
      4          1           0        0.978247   -0.546510    0.909891
      5          1           0        1.121530    1.006288   -0.001968
      6          1           0       -1.153784   -0.669403    0.002038
 ---------------------------------------------------------------------

 SCF Done:  E(RB2PLYPD3) =  -115.546679295     A.U. after   10 cycles
 E2(B2PLYPD3) =    -0.1459190629D+00 E(B2PLYPD3) =    -0.11569259835833D+03

 The electronic state is 1-A.
 Alpha  occ. eigenvalues --  -19.71794 -10.66350  -1.18119  -0.79109  -0.59994
 Alpha  occ. eigenvalues --   -0.51900  -0.50103  -0.40587  -0.35431
 Alpha virt. eigenvalues --    0.05261   0.08487   0.12309   0.12363   0.14794
 Alpha virt. eigenvalues --    0.17330   0.17942   0.29102   0.33099   0.33932
 Alpha virt. eigenvalues --    0.36619   0.38700   0.39799   0.40598   0.43535

 Mulliken charges:
               1
     1  C    0.067604
     2  O   -0.424100
     3  H    0.046443
     4  H    0.048146
     5  H    0.070095
     6  H    0.191812
 Sum of Mulliken charges =   0.00000

 Dipole moment (field-independent basis, Debye):
    X=              0.7839    Y=             -1.4394    Z=              0.0273  Tot=              1.6393
 Quadrupole moment (field-independent basis, Debye-Ang):
   XX=            -12.8845   YY=            -12.4213   ZZ=            -13.7618
   XY=              2.2272   XZ=             -0.0569   YZ=             -0.0113

 Normal termination of Gaussian 09 at Wed Aug 26 22:32:22 2020.
