 Gaussian 09, Revision D.01,
 Gaussian 09:  ES64L-G09RevD.01 24-Apr-2013

 --------------------
 #p B2PLYPD3/Def2QZVP
 --------------------

 --------
 methanol
 --------
 Symbolic Z-matrix:
 Charge =  0 Multiplicity = 1

                         Standard orientation:
 ---------------------------------------------------------------------
 Center     Atomic      Atomic             Coordinates (Angstroms)
 Number     Number       Type             X           Y           Z
 ---------------------------------------------------------------------
      1          6           0       -0.670556   -0.023998    0.020059
      2          8           0        0.752456    0.093300   -0.020969
      3          1           0       -0.922883   -0.450365    0.973048
      4          1           0       -1.055222   -0.631449   -0.908324
      5          1           0       -1.070814    1.057145   -0.077562
      6          1           0        1.052608   -0.577739    0.060235
 ---------------------------------------------------------------------

 SCF Done:  E(RB2PLYPD3) =  -115.467763054     A.U. after   10 cycles
 E2(B2PLYPD3) =    -0.1443500600D+00 E(B2PLYPD3) =    -0.11561211311412D+03

 The electronic state is 1-A.
 Alpha  occ. eigenvalues --  -19.70046 -10.67500  -1.22551  -0.80351  -0.60949
 Alpha  occ. eigenvalues --   -0.52441  -0.49619  -0.41280  -0.36074
 Alpha virt. eigenvalues --    0.05390   0.09147   0.11821   0.11980   0.14364
 Alpha virt. eigenvalues --    0.17060   0.17784   0.28701   0.32283   0.32950
 Alpha virt. eigenvalues --    0.36671   0.38072   0.40090   0.41122   0.43435

 Mulliken charges:
               1
     1  C    0.059532
     2  O   -0.295257
     3  H    0.061477
     4  H    0.047037
     5  H    0.072483
     6  H    0.054728
 Sum of Mulliken charges =   0.00000

 Dipole moment (field-independent basis, Debye):
    X=             -1.0031    Y=             -1.2924    Z=              0.2475  Tot=              1.6546
 Quadrupole moment (field-independent basis, Debye-Ang):
   XX=            -13.3877   YY=            -12.4507   ZZ=            -13.4090
   XY=             -1.9559   XZ=              0.2463   YZ=             -0.1716

 Normal termination of Gaussian 09 at Wed Aug 26 16:35:12 2020.
