 Gaussian 09, Revision D.01,
 Gaussian 09:  ES64L-G09RevD.01 24-Apr-2013

 --------------------
 #p B2PLYPD3/Def2QZVP
 --------------------

 --------
 methanol
 --------
 Symbolic Z-matrix:
 Charge =  0 Multiplicity = 1

                         Standard orientation:
 ---------------------------------------------------------------------
 Center     Atomic      Atomic             Coordinates (Angstroms)
 Number     Number       Type             X           Y           Z
 ---------------------------------------------------------------------
      1          6           0        0.673528    0.034967    0.015386
      2          8           0       -0.753903   -0.151601   -0.016518
      3          1           0        0.999459    0.406959    0.817171
      4          1           0        1.050257    0.641549   -0.772746
      5          1           0        1.100231   -0.968509   -0.076228
      6          1           0       -1.159894    0.923006    0.071626
 ---------------------------------------------------------------------

 SCF Done:  E(RB2PLYPD3) =  -115.506356485     A.U. after   11 cycles
 E2(B2PLYPD3) =    -0.1508923289D+00 E(B2PLYPD3) =    -0.11565724881358D+03

 The electronic state is 1-A.
 Alpha  occ. eigenvalues --  -19.74100 -10.63542  -1.12740  -0.79581  -0.56561
 Alpha  occ. eigenvalues --   -0.52661  -0.48393  -0.41016  -0.35521
 Alpha virt. eigenvalues --    0.03142   0.07692   0.12264   0.12848   0.15031
 Alpha virt. eigenvalues --    0.17396   0.18260   0.27597   0.29648   0.33444
 Alpha virt. eigenvalues --    0.33763   0.38050   0.39473   0.42348   0.44595

 Mulliken charges:
               1
     1  C    0.086260
     2  O   -0.493218
     3  H    0.055315
     4  H    0.043424
     5  H    0.059575
     6  H    0.248645
 Sum of Mulliken charges =   0.00000

 Dipole moment (field-independent basis, Debye):
    X=              1.0268    Y=              1.7164    Z=              0.2325  Tot=              2.0136
 Quadrupole moment (field-independent basis, Debye-Ang):
   XX=            -13.0382   YY=            -11.7861   ZZ=            -13.9170
   XY=             -2.2623   XZ=             -0.0929   YZ=              0.1488

 Normal termination of Gaussian 09 at Wed Aug 26 11:22:36 2020.
