 Gaussian 09, Revision D.01,
 Gaussian 09:  ES64L-G09RevD.01 24-Apr-2013

 --------------------
 #p B2PLYPD3/Def2QZVP
 --------------------

 --------
 methanol
 --------
 Symbolic Z-matrix:
 Charge =  0 Multiplicity = 1

                         Standard orientation:
 ---------------------------------------------------------------------
 Center     Atomic      Atomic             Coordinates (Angstroms)
 Number     Number       Type             X           Y           Z
 ---------------------------------------------------------------------
      1          6           0        0.656629    0.024221    0.006583
      2          8           0       -0.734034   -0.164133   -0.004506
      3          1           0        0.969031    0.521487    0.847107
      4          1           0        1.061714    0.549941   -0.819536
      5          1           0        1.137477   -0.855159   -0.017483
      6          1           0       -1.235726    0.951468   -0.013540
 ---------------------------------------------------------------------

 SCF Done:  E(RB2PLYPD3) =  -115.499662666     A.U. after   11 cycles
 E2(B2PLYPD3) =    -0.1514871905D+00 E(B2PLYPD3) =    -0.11565114985700D+03

 The electronic state is 1-A.
 Alpha  occ. eigenvalues --  -19.74362 -10.63043  -1.13129  -0.79042  -0.55776
 Alpha  occ. eigenvalues --   -0.52262  -0.50247  -0.40094  -0.34909
 Alpha virt. eigenvalues --    0.01909   0.07597   0.12805   0.12929   0.14875
 Alpha virt. eigenvalues --    0.17784   0.18364   0.25666   0.29584   0.33312
 Alpha virt. eigenvalues --    0.34833   0.39274   0.40645   0.42344   0.43438

 Mulliken charges:
               1
     1  C    0.088365
     2  O   -0.490625
     3  H    0.043122
     4  H    0.037748
     5  H    0.063519
     6  H    0.257871
 Sum of Mulliken charges =   0.00000

 Dipole moment (field-independent basis, Debye):
    X=              0.8304    Y=              1.6674    Z=              0.0129  Tot=              1.8627
 Quadrupole moment (field-independent basis, Debye-Ang):
   XX=            -12.6523   YY=            -11.9235   ZZ=            -13.9637
   XY=             -2.6270   XZ=             -0.0294   YZ=              0.0273

 Normal termination of Gaussian 09 at Wed Aug 26 11:11:51 2020.
