 Gaussian 09, Revision D.01,
 Gaussian 09:  ES64L-G09RevD.01 24-Apr-2013

 --------------------
 #p B2PLYPD3/Def2QZVP
 --------------------

 --------
 methanol
 --------
 Symbolic Z-matrix:
 Charge =  0 Multiplicity = 1

                         Standard orientation:
 ---------------------------------------------------------------------
 Center     Atomic      Atomic             Coordinates (Angstroms)
 Number     Number       Type             X           Y           Z
 ---------------------------------------------------------------------
      1          6           0       -0.653241   -0.035399   -0.005327
      2          8           0        0.759803   -0.118555   -0.002026
      3          1           0       -1.227417    0.506476   -0.872479
      4          1           0       -1.111526    0.603125    0.879174
      5          1           0       -0.944886   -0.877551    0.071935
      6          1           0        1.124849    0.928785   -0.030458
 ---------------------------------------------------------------------

 SCF Done:  E(RB2PLYPD3) =  -115.488517026     A.U. after   11 cycles
 E2(B2PLYPD3) =    -0.1508490542D+00 E(B2PLYPD3) =    -0.11563936608046D+03

 The electronic state is 1-A.
 Alpha  occ. eigenvalues --  -19.74617 -10.65170  -1.14536  -0.79311  -0.57522
 Alpha  occ. eigenvalues --   -0.51585  -0.48760  -0.42346  -0.34272
 Alpha virt. eigenvalues --    0.03392   0.07389   0.12226   0.12713   0.15266
 Alpha virt. eigenvalues --    0.17349   0.18330   0.28267   0.30047   0.32459
 Alpha virt. eigenvalues --    0.34276   0.36055   0.38178   0.39625   0.43590

 Mulliken charges:
               1
     1  C    0.042218
     2  O   -0.464053
     3  H    0.034745
     4  H    0.023503
     5  H    0.105734
     6  H    0.257852
 Sum of Mulliken charges =   0.00000

 Dipole moment (field-independent basis, Debye):
    X=             -0.8186    Y=              1.4747    Z=             -0.0402  Tot=              1.6871
 Quadrupole moment (field-independent basis, Debye-Ang):
   XX=            -13.1706   YY=            -11.7354   ZZ=            -14.3661
   XY=              2.3336   XZ=              0.0136   YZ=             -0.1207

 Normal termination of Gaussian 09 at Wed Aug 26 19:26:46 2020.
