 Gaussian 09, Revision D.01,
 Gaussian 09:  ES64L-G09RevD.01 24-Apr-2013

 --------------------
 #p B2PLYPD3/Def2QZVP
 --------------------

 --------
 methanol
 --------
 Symbolic Z-matrix:
 Charge =  0 Multiplicity = 1

                         Standard orientation:
 ---------------------------------------------------------------------
 Center     Atomic      Atomic             Coordinates (Angstroms)
 Number     Number       Type             X           Y           Z
 ---------------------------------------------------------------------
      1          6           0        0.656314   -0.020552    0.002216
      2          8           0       -0.743250    0.121729   -0.005897
      3          1           0        1.051271   -0.595613   -0.843859
      4          1           0        0.988592   -0.498577    0.905812
      5          1           0        1.088438    0.994613   -0.037846
      6          1           0       -1.120187   -0.750944    0.009772
 ---------------------------------------------------------------------

 SCF Done:  E(RB2PLYPD3) =  -115.552581902     A.U. after   10 cycles
 E2(B2PLYPD3) =    -0.1469440969D+00 E(B2PLYPD3) =    -0.11569952599891D+03

 The electronic state is 1-A.
 Alpha  occ. eigenvalues --  -19.72540 -10.65522  -1.16862  -0.78657  -0.59256
 Alpha  occ. eigenvalues --   -0.51966  -0.49903  -0.41118  -0.35352
 Alpha virt. eigenvalues --    0.04967   0.08331   0.12335   0.12483   0.14970
 Alpha virt. eigenvalues --    0.17357   0.18030   0.29154   0.33171   0.33980
 Alpha virt. eigenvalues --    0.35526   0.38617   0.39904   0.41055   0.44057

 Mulliken charges:
               1
     1  C    0.069795
     2  O   -0.448823
     3  H    0.043540
     4  H    0.047530
     5  H    0.067596
     6  H    0.220361
 Sum of Mulliken charges =   0.00000

 Dipole moment (field-independent basis, Debye):
    X=              0.8490    Y=             -1.5187    Z=              0.0479  Tot=              1.7406
 Quadrupole moment (field-independent basis, Debye-Ang):
   XX=            -13.0914   YY=            -12.1889   ZZ=            -13.8180
   XY=              2.2064   XZ=             -0.0724   YZ=             -0.0263

 Normal termination of Gaussian 09 at Wed Aug 26 09:56:45 2020.
