 Gaussian 09, Revision D.01,
 Gaussian 09:  ES64L-G09RevD.01 24-Apr-2013

 --------------------
 #p B2PLYPD3/Def2QZVP
 --------------------

 --------
 methanol
 --------
 Symbolic Z-matrix:
 Charge =  0 Multiplicity = 1

                         Standard orientation:
 ---------------------------------------------------------------------
 Center     Atomic      Atomic             Coordinates (Angstroms)
 Number     Number       Type             X           Y           Z
 ---------------------------------------------------------------------
      1          6           0       -0.644869    0.004476    0.002975
      2          8           0        0.734186   -0.075049   -0.029208
      3          1           0       -0.870744    1.078935   -0.551092
      4          1           0       -1.110468   -0.067242    1.027225
      5          1           0       -0.981437   -0.898459   -0.563658
      6          1           0        0.958378    0.460305    0.303334
 ---------------------------------------------------------------------

 SCF Done:  E(RB2PLYPD3) =  -115.368071344     A.U. after   11 cycles
 E2(B2PLYPD3) =    -0.1434091015D+00 E(B2PLYPD3) =    -0.11551148044585D+03

 The electronic state is 1-A.
 Alpha  occ. eigenvalues --  -19.69646 -10.67952  -1.27496  -0.81414  -0.62133
 Alpha  occ. eigenvalues --   -0.52738  -0.50691  -0.41958  -0.35592
 Alpha virt. eigenvalues --    0.05250   0.09397   0.11494   0.12103   0.14482
 Alpha virt. eigenvalues --    0.16833   0.17761   0.28170   0.31569   0.34232
 Alpha virt. eigenvalues --    0.35937   0.38019   0.40081   0.42210   0.43176

 Mulliken charges:
               1
     1  C    0.040040
     2  O   -0.201789
     3  H    0.032144
     4  H    0.049923
     5  H    0.079671
     6  H    0.000011
 Sum of Mulliken charges =   0.00000

 Dipole moment (field-independent basis, Debye):
    X=             -0.8975    Y=              0.9200    Z=              0.6963  Tot=              1.4618
 Quadrupole moment (field-independent basis, Debye-Ang):
   XX=            -13.7490   YY=            -12.5887   ZZ=            -13.2483
   XY=              1.7584   XZ=              0.6334   YZ=              0.4717

 Normal termination of Gaussian 09 at Wed Aug 26 19:31:04 2020.
