 Gaussian 09, Revision D.01,
 Gaussian 09:  ES64L-G09RevD.01 24-Apr-2013

 --------------------
 #p B2PLYPD3/Def2QZVP
 --------------------

 --------
 methanol
 --------
 Symbolic Z-matrix:
 Charge =  0 Multiplicity = 1

                         Standard orientation:
 ---------------------------------------------------------------------
 Center     Atomic      Atomic             Coordinates (Angstroms)
 Number     Number       Type             X           Y           Z
 ---------------------------------------------------------------------
      1          6           0       -0.646013    0.000500    0.042619
      2          8           0        0.758369   -0.093734   -0.042565
      3          1           0       -1.157223    0.928937   -0.676735
      4          1           0       -0.960888    0.160728    0.989736
      5          1           0       -1.180037   -0.952912   -0.368993
      6          1           0        1.107277    0.610120    0.140796
 ---------------------------------------------------------------------

 SCF Done:  E(RB2PLYPD3) =  -115.498824430     A.U. after   11 cycles
 E2(B2PLYPD3) =    -0.1456101226D+00 E(B2PLYPD3) =    -0.11564443455283D+03

 The electronic state is 1-A.
 Alpha  occ. eigenvalues --  -19.71801 -10.67840  -1.20977  -0.79959  -0.61638
 Alpha  occ. eigenvalues --   -0.51720  -0.49961  -0.40528  -0.35723
 Alpha virt. eigenvalues --    0.05223   0.08457   0.11499   0.12356   0.14710
 Alpha virt. eigenvalues --    0.17664   0.18077   0.28780   0.31472   0.33257
 Alpha virt. eigenvalues --    0.35218   0.36739   0.39130   0.42078   0.44271

 Mulliken charges:
               1
     1  C    0.060462
     2  O   -0.347093
     3  H    0.014994
     4  H    0.068457
     5  H    0.070032
     6  H    0.133148
 Sum of Mulliken charges =   0.00000

 Dipole moment (field-independent basis, Debye):
    X=             -0.8017    Y=              1.1755    Z=              0.5775  Tot=              1.5356
 Quadrupole moment (field-independent basis, Debye-Ang):
   XX=            -12.9857   YY=            -12.7999   ZZ=            -13.6904
   XY=              2.1665   XZ=              0.4242   YZ=              0.4017

 Normal termination of Gaussian 09 at Wed Aug 26 23:55:08 2020.
