 Gaussian 09, Revision D.01,
 Gaussian 09:  ES64L-G09RevD.01 24-Apr-2013

 --------------------
 #p B2PLYPD3/Def2QZVP
 --------------------

 --------
 methanol
 --------
 Symbolic Z-matrix:
 Charge =  0 Multiplicity = 1

                         Standard orientation:
 ---------------------------------------------------------------------
 Center     Atomic      Atomic             Coordinates (Angstroms)
 Number     Number       Type             X           Y           Z
 ---------------------------------------------------------------------
      1          6           0        0.664360   -0.005588    0.003270
      2          8           0       -0.756293    0.102632   -0.017259
      3          1           0        1.017860   -0.731534   -0.819737
      4          1           0        0.978235   -0.363410    1.011260
      5          1           0        1.097707    0.968284   -0.163380
      6          1           0       -1.029616   -0.660869    0.090312
 ---------------------------------------------------------------------

 SCF Done:  E(RB2PLYPD3) =  -115.525020352     A.U. after   10 cycles
 E2(B2PLYPD3) =    -0.1452620469D+00 E(B2PLYPD3) =    -0.11567028239874D+03

 The electronic state is 1-A.
 Alpha  occ. eigenvalues --  -19.71216 -10.66730  -1.20106  -0.79492  -0.60069
 Alpha  occ. eigenvalues --   -0.51695  -0.50707  -0.41879  -0.35645
 Alpha virt. eigenvalues --    0.05332   0.08874   0.11880   0.12435   0.14494
 Alpha virt. eigenvalues --    0.17429   0.17798   0.28843   0.32614   0.32958
 Alpha virt. eigenvalues --    0.36946   0.39311   0.39774   0.40540   0.44049

 Mulliken charges:
               1
     1  C    0.065914
     2  O   -0.370846
     3  H    0.041379
     4  H    0.048641
     5  H    0.077858
     6  H    0.137054
 Sum of Mulliken charges =   0.00000

 Dipole moment (field-independent basis, Debye):
    X=              1.0464    Y=             -1.3196    Z=              0.2197  Tot=              1.6984
 Quadrupole moment (field-independent basis, Debye-Ang):
   XX=            -13.4427   YY=            -12.2939   ZZ=            -13.5962
   XY=              2.0949   XZ=             -0.2964   YZ=             -0.1568

 Normal termination of Gaussian 09 at Wed Aug 26 15:52:06 2020.
