 Gaussian 09, Revision D.01,
 Gaussian 09:  ES64L-G09RevD.01 24-Apr-2013

 --------------------
 #p B2PLYPD3/Def2QZVP
 --------------------

 --------
 methanol
 --------
 Symbolic Z-matrix:
 Charge =  0 Multiplicity = 1

                         Standard orientation:
 ---------------------------------------------------------------------
 Center     Atomic      Atomic             Coordinates (Angstroms)
 Number     Number       Type             X           Y           Z
 ---------------------------------------------------------------------
      1          6           0       -0.670731   -0.003143   -0.002028
      2          8           0        0.750490    0.087319   -0.022111
      3          1           0       -0.964556   -0.398817    1.054666
      4          1           0       -0.962567   -0.763015   -0.856542
      5          1           0       -1.126300    0.988005   -0.148683
      6          1           0        1.073894   -0.505865    0.139619
 ---------------------------------------------------------------------

 SCF Done:  E(RB2PLYPD3) =  -115.414149732     A.U. after   11 cycles
 E2(B2PLYPD3) =    -0.1437692788D+00 E(B2PLYPD3) =    -0.11555791901112D+03

 The electronic state is 1-A.
 Alpha  occ. eigenvalues --  -19.69402 -10.68227  -1.24180  -0.81335  -0.61059
 Alpha  occ. eigenvalues --   -0.51743  -0.51167  -0.40945  -0.35670
 Alpha virt. eigenvalues --    0.05349   0.09302   0.11552   0.12311   0.14104
 Alpha virt. eigenvalues --    0.17166   0.17435   0.28580   0.32131   0.32601
 Alpha virt. eigenvalues --    0.36775   0.38224   0.39184   0.40896   0.43531

 Mulliken charges:
               1
     1  C    0.061379
     2  O   -0.256465
     3  H    0.042765
     4  H    0.046683
     5  H    0.089861
     6  H    0.015778
 Sum of Mulliken charges =   0.00000

 Dipole moment (field-independent basis, Debye):
    X=             -0.9859    Y=             -1.1135    Z=              0.3335  Tot=              1.5241
 Quadrupole moment (field-independent basis, Debye-Ang):
   XX=            -13.2372   YY=            -12.5452   ZZ=            -13.4486
   XY=             -2.0896   XZ=              0.4811   YZ=             -0.1888

 Normal termination of Gaussian 09 at Wed Aug 26 10:52:47 2020.
