 Gaussian 09, Revision D.01,
 Gaussian 09:  ES64L-G09RevD.01 24-Apr-2013

 --------------------
 #p B2PLYPD3/Def2QZVP
 --------------------

 --------
 methanol
 --------
 Symbolic Z-matrix:
 Charge =  0 Multiplicity = 1

                         Standard orientation:
 ---------------------------------------------------------------------
 Center     Atomic      Atomic             Coordinates (Angstroms)
 Number     Number       Type             X           Y           Z
 ---------------------------------------------------------------------
      1          6           0       -0.703369    0.028016    0.001164
      2          8           0        0.756450   -0.186637   -0.021692
      3          1           0       -1.155408    0.584722   -0.678797
      4          1           0       -0.936996    0.415487    0.746518
      5          1           0       -0.940171   -0.897768    0.031443
      6          1           0        1.201192    1.222564    0.067386
 ---------------------------------------------------------------------

 SCF Done:  E(RB2PLYPD3) =  -115.372108959     A.U. after   12 cycles
 E2(B2PLYPD3) =    -0.1587408208D+00 E(B2PLYPD3) =    -0.11553084977976D+03

 The electronic state is 1-A.
 Alpha  occ. eigenvalues --  -19.75791 -10.60629  -1.10091  -0.82264  -0.57023
 Alpha  occ. eigenvalues --   -0.53341  -0.46675  -0.39525  -0.35710
 Alpha virt. eigenvalues --   -0.02569   0.07384   0.12094   0.13233   0.14656
 Alpha virt. eigenvalues --    0.16649   0.18377   0.21494   0.28927   0.32094
 Alpha virt. eigenvalues --    0.34168   0.38287   0.39524   0.42732   0.45901

 Mulliken charges:
               1
     1  C    0.064543
     2  O   -0.480704
     3  H    0.046311
     4  H    0.085921
     5  H    0.074778
     6  H    0.209151
 Sum of Mulliken charges =   0.00000

 Dipole moment (field-independent basis, Debye):
    X=             -1.3946    Y=              1.7369    Z=              0.2287  Tot=              2.2392
 Quadrupole moment (field-independent basis, Debye-Ang):
   XX=            -13.2460   YY=            -10.9520   ZZ=            -14.0698
   XY=              2.0439   XZ=              0.1202   YZ=              0.0800

 Normal termination of Gaussian 09 at Wed Aug 26 23:45:59 2020.
