 Gaussian 09, Revision D.01,
 Gaussian 09:  ES64L-G09RevD.01 24-Apr-2013

 --------------------
 #p B2PLYPD3/Def2QZVP
 --------------------

 --------
 methanol
 --------
 Symbolic Z-matrix:
 Charge =  0 Multiplicity = 1

                         Standard orientation:
 ---------------------------------------------------------------------
 Center     Atomic      Atomic             Coordinates (Angstroms)
 Number     Number       Type             X           Y           Z
 ---------------------------------------------------------------------
      1          6           0        0.672583    0.067028   -0.021180
      2          8           0       -0.724243   -0.208299    0.009075
      3          1           0        1.013175    0.470376    0.794330
      4          1           0        1.018599    0.479991   -0.679169
      5          1           0        1.042342   -0.860865   -0.023232
      6          1           0       -1.315666    1.174722   -0.037453
 ---------------------------------------------------------------------

 SCF Done:  E(RB2PLYPD3) =  -115.366015517     A.U. after   12 cycles
 E2(B2PLYPD3) =    -0.1578993039D+00 E(B2PLYPD3) =    -0.11552391482076D+03

 The electronic state is 1-A.
 Alpha  occ. eigenvalues --  -19.75854 -10.60241  -1.11498  -0.82237  -0.56338
 Alpha  occ. eigenvalues --   -0.53929  -0.48336  -0.38449  -0.35777
 Alpha virt. eigenvalues --   -0.03129   0.07407   0.12454   0.13221   0.14928
 Alpha virt. eigenvalues --    0.17043   0.18704   0.21167   0.29363   0.33793
 Alpha virt. eigenvalues --    0.34631   0.38087   0.39211   0.43779   0.46944

 Mulliken charges:
               1
     1  C    0.061039
     2  O   -0.463044
     3  H    0.047176
     4  H    0.092572
     5  H    0.053091
     6  H    0.209165
 Sum of Mulliken charges =   0.00000

 Dipole moment (field-independent basis, Debye):
    X=              1.1452    Y=              1.7283    Z=             -0.1122  Tot=              2.0763
 Quadrupole moment (field-independent basis, Debye-Ang):
   XX=            -12.7354   YY=            -11.4074   ZZ=            -13.9089
   XY=             -2.3767   XZ=             -0.0047   YZ=             -0.1157

 Normal termination of Gaussian 09 at Wed Aug 26 23:52:54 2020.
