 Gaussian 09, Revision D.01,
 Gaussian 09:  ES64L-G09RevD.01 24-Apr-2013

 --------------------
 #p B2PLYPD3/Def2QZVP
 --------------------

 --------
 methanol
 --------
 Symbolic Z-matrix:
 Charge =  0 Multiplicity = 1

                         Standard orientation:
 ---------------------------------------------------------------------
 Center     Atomic      Atomic             Coordinates (Angstroms)
 Number     Number       Type             X           Y           Z
 ---------------------------------------------------------------------
      1          6           0        0.662230    0.022048   -0.005455
      2          8           0       -0.739653   -0.197025   -0.016239
      3          1           0        0.897715    0.449361    0.841935
      4          1           0        1.008388    0.612647   -0.761087
      5          1           0        1.262319   -0.726591    0.015038
      6          1           0       -1.224579    1.108494    0.066754
 ---------------------------------------------------------------------

 SCF Done:  E(RB2PLYPD3) =  -115.433682651     A.U. after   11 cycles
 E2(B2PLYPD3) =    -0.1551897250D+00 E(B2PLYPD3) =    -0.11558887237629D+03

 The electronic state is 1-A.
 Alpha  occ. eigenvalues --  -19.75234 -10.61562  -1.11722  -0.80647  -0.53703
 Alpha  occ. eigenvalues --   -0.53083  -0.50364  -0.39015  -0.35045
 Alpha virt. eigenvalues --   -0.01509   0.07401   0.12725   0.13066   0.14257
 Alpha virt. eigenvalues --    0.18085   0.19215   0.22537   0.29682   0.32989
 Alpha virt. eigenvalues --    0.33604   0.39760   0.40567   0.42723   0.43802

 Mulliken charges:
               1
     1  C    0.104322
     2  O   -0.485832
     3  H    0.042416
     4  H    0.037994
     5  H    0.053036
     6  H    0.248064
 Sum of Mulliken charges =   0.00000

 Dipole moment (field-independent basis, Debye):
    X=              1.0497    Y=              1.7739    Z=              0.1786  Tot=              2.0689
 Quadrupole moment (field-independent basis, Debye-Ang):
   XX=            -12.7459   YY=            -11.6425   ZZ=            -13.9340
   XY=             -2.7279   XZ=             -0.1432   YZ=              0.0504

 Normal termination of Gaussian 09 at Wed Aug 26 23:13:43 2020.
