 Gaussian 09, Revision D.01,
 Gaussian 09:  ES64L-G09RevD.01 24-Apr-2013

 --------------------
 #p B2PLYPD3/Def2QZVP
 --------------------

 --------
 methanol
 --------
 Symbolic Z-matrix:
 Charge =  0 Multiplicity = 1

                         Standard orientation:
 ---------------------------------------------------------------------
 Center     Atomic      Atomic             Coordinates (Angstroms)
 Number     Number       Type             X           Y           Z
 ---------------------------------------------------------------------
      1          6           0        0.663511   -0.013006    0.001337
      2          8           0       -0.750924    0.104146   -0.017958
      3          1           0        1.043755   -0.733640   -0.817314
      4          1           0        1.047957   -0.350440    1.001778
      5          1           0        1.089035    0.976240   -0.163279
      6          1           0       -1.154427   -0.647290    0.114454
 ---------------------------------------------------------------------

 SCF Done:  E(RB2PLYPD3) =  -115.540241253     A.U. after   10 cycles
 E2(B2PLYPD3) =    -0.1458993205D+00 E(B2PLYPD3) =    -0.11568614057317D+03

 The electronic state is 1-A.
 Alpha  occ. eigenvalues --  -19.71697 -10.66910  -1.18354  -0.79358  -0.59832
 Alpha  occ. eigenvalues --   -0.51163  -0.50459  -0.40787  -0.35487
 Alpha virt. eigenvalues --    0.05323   0.08468   0.12074   0.12481   0.14675
 Alpha virt. eigenvalues --    0.17172   0.18124   0.28981   0.33063   0.33348
 Alpha virt. eigenvalues --    0.36646   0.39114   0.39424   0.40123   0.43121

 Mulliken charges:
               1
     1  C    0.063885
     2  O   -0.411466
     3  H    0.043747
     4  H    0.048433
     5  H    0.077528
     6  H    0.177873
 Sum of Mulliken charges =   0.00000

 Dipole moment (field-independent basis, Debye):
    X=              0.8221    Y=             -1.3208    Z=              0.2652  Tot=              1.5782
 Quadrupole moment (field-independent basis, Debye-Ang):
   XX=            -12.8732   YY=            -12.5065   ZZ=            -13.7335
   XY=              2.2165   XZ=             -0.3367   YZ=             -0.1586

 Normal termination of Gaussian 09 at Wed Aug 26 09:49:53 2020.
