 Gaussian 09, Revision D.01,
 Gaussian 09:  ES64L-G09RevD.01 24-Apr-2013

 --------------------
 #p B2PLYPD3/Def2QZVP
 --------------------

 --------
 methanol
 --------
 Symbolic Z-matrix:
 Charge =  0 Multiplicity = 1

                         Standard orientation:
 ---------------------------------------------------------------------
 Center     Atomic      Atomic             Coordinates (Angstroms)
 Number     Number       Type             X           Y           Z
 ---------------------------------------------------------------------
      1          6           0       -0.628318   -0.002891    0.014514
      2          8           0        0.738634   -0.046170   -0.051874
      3          1           0       -0.969791    1.273802   -0.072441
      4          1           0       -1.141950   -0.529315    0.940339
      5          1           0       -1.140648   -0.572829   -0.872252
      6          1           0        1.113224    0.215050    0.332259
 ---------------------------------------------------------------------

 SCF Done:  E(RB2PLYPD3) =  -115.182119927     A.U. after   11 cycles
 E2(B2PLYPD3) =    -0.1437359785D+00 E(B2PLYPD3) =    -0.11532585590512D+03

 The electronic state is 1-A.
 Alpha  occ. eigenvalues --  -19.69650 -10.70642  -1.30195  -0.84860  -0.62892
 Alpha  occ. eigenvalues --   -0.51942  -0.51117  -0.39090  -0.35585
 Alpha virt. eigenvalues --    0.04927   0.09230   0.10898   0.12085   0.14145
 Alpha virt. eigenvalues --    0.16997   0.18126   0.27881   0.30807   0.33703
 Alpha virt. eigenvalues --    0.35282   0.36616   0.37402   0.41586   0.42568

 Mulliken charges:
               1
     1  C    0.036892
     2  O   -0.114183
     3  H    0.019951
     4  H    0.052347
     5  H    0.085213
     6  H   -0.080220
 Sum of Mulliken charges =   0.00000

 Dipole moment (field-independent basis, Debye):
    X=             -0.5994    Y=              0.3474    Z=              0.8349  Tot=              1.0849
 Quadrupole moment (field-independent basis, Debye-Ang):
   XX=            -12.8044   YY=            -13.4165   ZZ=            -13.3255
   XY=              1.4482   XZ=              1.4361   YZ=              0.2594

 Normal termination of Gaussian 09 at Wed Aug 26 20:55:33 2020.
