 Gaussian 09, Revision D.01,
 Gaussian 09:  ES64L-G09RevD.01 24-Apr-2013

 --------------------
 #p B2PLYPD3/Def2QZVP
 --------------------

 --------
 methanol
 --------
 Symbolic Z-matrix:
 Charge =  0 Multiplicity = 1

                         Standard orientation:
 ---------------------------------------------------------------------
 Center     Atomic      Atomic             Coordinates (Angstroms)
 Number     Number       Type             X           Y           Z
 ---------------------------------------------------------------------
      1          6           0        0.660695    0.010370    0.002878
      2          8           0       -0.743796   -0.129376   -0.005376
      3          1           0        1.034010    0.491702    0.891590
      4          1           0        1.015431    0.599579   -0.861303
      5          1           0        1.072389   -0.934210   -0.043424
      6          1           0       -1.135637    0.815717    0.038876
 ---------------------------------------------------------------------

 SCF Done:  E(RB2PLYPD3) =  -115.546108360     A.U. after   10 cycles
 E2(B2PLYPD3) =    -0.1481278588D+00 E(B2PLYPD3) =    -0.11569423621922D+03

 The electronic state is 1-A.
 Alpha  occ. eigenvalues --  -19.73095 -10.64773  -1.15291  -0.78698  -0.58067
 Alpha  occ. eigenvalues --   -0.51547  -0.50476  -0.41267  -0.35055
 Alpha virt. eigenvalues --    0.04474   0.08100   0.12449   0.12662   0.14938
 Alpha virt. eigenvalues --    0.17417   0.18101   0.29174   0.32543   0.33234
 Alpha virt. eigenvalues --    0.34268   0.39013   0.40546   0.40973   0.43964

 Mulliken charges:
               1
     1  C    0.074510
     2  O   -0.471458
     3  H    0.043524
     4  H    0.039667
     5  H    0.072595
     6  H    0.241162
 Sum of Mulliken charges =   0.00000

 Dipole moment (field-independent basis, Debye):
    X=              0.8759    Y=              1.5255    Z=              0.0968  Tot=              1.7617
 Quadrupole moment (field-independent basis, Debye-Ang):
   XX=            -13.0655   YY=            -12.0586   ZZ=            -13.8591
   XY=             -2.3530   XZ=             -0.0567   YZ=              0.0740

 Normal termination of Gaussian 09 at Wed Aug 26 09:49:20 2020.
