 Gaussian 09, Revision D.01,
 Gaussian 09:  ES64L-G09RevD.01 24-Apr-2013

 --------------------
 #p B2PLYPD3/Def2QZVP
 --------------------

 --------
 methanol
 --------
 Symbolic Z-matrix:
 Charge =  0 Multiplicity = 1

                         Standard orientation:
 ---------------------------------------------------------------------
 Center     Atomic      Atomic             Coordinates (Angstroms)
 Number     Number       Type             X           Y           Z
 ---------------------------------------------------------------------
      1          6           0       -0.687947   -0.007021    0.002516
      2          8           0        0.777427    0.053432   -0.015374
      3          1           0       -1.093225   -0.265509    1.074344
      4          1           0       -0.988970   -0.959723   -0.739506
      5          1           0       -1.169582    1.105334   -0.348734
      6          1           0        1.160042   -0.265435    0.121790
 ---------------------------------------------------------------------

 SCF Done:  E(RB2PLYPD3) =  -114.843764132     A.U. after   12 cycles
 E2(B2PLYPD3) =    -0.1443353029D+00 E(B2PLYPD3) =    -0.11498809943534D+03

 The electronic state is 1-A.
 Alpha  occ. eigenvalues --  -19.67811 -10.72251  -1.30872  -0.84252  -0.62211
 Alpha  occ. eigenvalues --   -0.50179  -0.49356  -0.39207  -0.36344
 Alpha virt. eigenvalues --    0.04522   0.09584   0.10913   0.11246   0.13705
 Alpha virt. eigenvalues --    0.16779   0.17179   0.28368   0.29386   0.31730
 Alpha virt. eigenvalues --    0.33006   0.35525   0.36783   0.41084   0.42323

 Mulliken charges:
               1
     1  C    0.070104
     2  O   -0.108435
     3  H    0.063888
     4  H    0.058540
     5  H    0.092593
     6  H   -0.176690
 Sum of Mulliken charges =   0.00000

 Dipole moment (field-independent basis, Debye):
    X=             -1.1546    Y=             -0.8304    Z=              0.4329  Tot=              1.4866
 Quadrupole moment (field-independent basis, Debye-Ang):
   XX=            -12.5645   YY=            -12.6936   ZZ=            -13.4739
   XY=             -1.6380   XZ=              0.4522   YZ=             -0.2113

 Normal termination of Gaussian 09 at Wed Aug 26 21:20:01 2020.
