 Gaussian 09, Revision D.01,
 Gaussian 09:  ES64L-G09RevD.01 24-Apr-2013

 --------------------
 #p B2PLYPD3/Def2QZVP
 --------------------

 --------
 methanol
 --------
 Symbolic Z-matrix:
 Charge =  0 Multiplicity = 1

                         Standard orientation:
 ---------------------------------------------------------------------
 Center     Atomic      Atomic             Coordinates (Angstroms)
 Number     Number       Type             X           Y           Z
 ---------------------------------------------------------------------
      1          6           0        0.680298    0.039679    0.002750
      2          8           0       -0.719667   -0.210806   -0.006054
      3          1           0        1.120785    0.374008    0.729507
      4          1           0        0.883528    0.756983   -0.661642
      5          1           0        1.077444   -0.812240   -0.132726
      6          1           0       -1.406212    1.129628    0.096793
 ---------------------------------------------------------------------

 SCF Done:  E(RB2PLYPD3) =  -115.384572903     A.U. after   12 cycles
 E2(B2PLYPD3) =    -0.1578131075D+00 E(B2PLYPD3) =    -0.11554238601087D+03

 The electronic state is 1-A.
 Alpha  occ. eigenvalues --  -19.75524 -10.60678  -1.11273  -0.81580  -0.56421
 Alpha  occ. eigenvalues --   -0.52906  -0.48282  -0.38783  -0.34790
 Alpha virt. eigenvalues --   -0.03434   0.07410   0.12444   0.13401   0.14743
 Alpha virt. eigenvalues --    0.17232   0.18391   0.21100   0.29657   0.32410
 Alpha virt. eigenvalues --    0.34699   0.38048   0.39411   0.43886   0.46292

 Mulliken charges:
               1
     1  C    0.103856
     2  O   -0.475500
     3  H    0.047123
     4  H    0.037051
     5  H    0.067573
     6  H    0.219896
 Sum of Mulliken charges =   0.00000

 Dipole moment (field-independent basis, Debye):
    X=              0.9812    Y=              1.7396    Z=              0.1950  Tot=              2.0068
 Quadrupole moment (field-independent basis, Debye-Ang):
   XX=            -12.2548   YY=            -11.3684   ZZ=            -14.2423
   XY=             -2.6895   XZ=              0.0751   YZ=              0.1162

 Normal termination of Gaussian 09 at Wed Aug 26 23:56:02 2020.
