 Gaussian 09, Revision D.01,
 Gaussian 09:  ES64L-G09RevD.01 24-Apr-2013

 --------------------
 #p B2PLYPD3/Def2QZVP
 --------------------

 --------
 methanol
 --------
 Symbolic Z-matrix:
 Charge =  0 Multiplicity = 1

                         Standard orientation:
 ---------------------------------------------------------------------
 Center     Atomic      Atomic             Coordinates (Angstroms)
 Number     Number       Type             X           Y           Z
 ---------------------------------------------------------------------
      1          6           0        0.665516    0.005710   -0.007039
      2          8           0       -0.742907   -0.145844    0.002793
      3          1           0        1.080005    0.492504    0.898850
      4          1           0        1.061401    0.597485   -0.816921
      5          1           0        1.055710   -0.869717   -0.059207
      6          1           0       -1.246954    0.912222   -0.002831
 ---------------------------------------------------------------------

 SCF Done:  E(RB2PLYPD3) =  -115.507677000     A.U. after   11 cycles
 E2(B2PLYPD3) =    -0.1509285231D+00 E(B2PLYPD3) =    -0.11565860552333D+03

 The electronic state is 1-A.
 Alpha  occ. eigenvalues --  -19.74172 -10.63937  -1.13106  -0.78981  -0.56411
 Alpha  occ. eigenvalues --   -0.50784  -0.50555  -0.40761  -0.34706
 Alpha virt. eigenvalues --    0.02750   0.07570   0.12660   0.12894   0.15018
 Alpha virt. eigenvalues --    0.17344   0.18369   0.27162   0.29578   0.33337
 Alpha virt. eigenvalues --    0.34367   0.38240   0.40483   0.40908   0.43341

 Mulliken charges:
               1
     1  C    0.075914
     2  O   -0.491759
     3  H    0.039096
     4  H    0.039812
     5  H    0.077680
     6  H    0.259257
 Sum of Mulliken charges =   0.00000

 Dipole moment (field-independent basis, Debye):
    X=              0.7867    Y=              1.5763    Z=             -0.0536  Tot=              1.7625
 Quadrupole moment (field-independent basis, Debye-Ang):
   XX=            -12.6173   YY=            -11.9452   ZZ=            -14.0694
   XY=             -2.5950   XZ=             -0.0389   YZ=             -0.0198

 Normal termination of Gaussian 09 at Wed Aug 26 15:22:46 2020.
