 Gaussian 09, Revision D.01,
 Gaussian 09:  ES64L-G09RevD.01 24-Apr-2013

 --------------------
 #p B2PLYPD3/Def2QZVP
 --------------------

 --------
 methanol
 --------
 Symbolic Z-matrix:
 Charge =  0 Multiplicity = 1

                         Standard orientation:
 ---------------------------------------------------------------------
 Center     Atomic      Atomic             Coordinates (Angstroms)
 Number     Number       Type             X           Y           Z
 ---------------------------------------------------------------------
      1          6           0        0.670013   -0.032439   -0.000197
      2          8           0       -0.761394    0.099711    0.000293
      3          1           0        1.006933   -0.658928   -0.854121
      4          1           0        1.112414   -0.461471    0.921351
      5          1           0        1.122259    1.099170   -0.105706
      6          1           0       -1.170536   -0.581827    0.037315
 ---------------------------------------------------------------------

 SCF Done:  E(RB2PLYPD3) =  -115.505268250     A.U. after   10 cycles
 E2(B2PLYPD3) =    -0.1454516559D+00 E(B2PLYPD3) =    -0.11565071990621D+03

 The electronic state is 1-A.
 Alpha  occ. eigenvalues --  -19.71005 -10.68024  -1.19884  -0.79801  -0.61058
 Alpha  occ. eigenvalues --   -0.51465  -0.48673  -0.40382  -0.36093
 Alpha virt. eigenvalues --    0.05308   0.08574   0.11584   0.12307   0.14799
 Alpha virt. eigenvalues --    0.17031   0.17992   0.28953   0.32180   0.33478
 Alpha virt. eigenvalues --    0.35058   0.39077   0.39691   0.39892   0.41942

 Mulliken charges:
               1
     1  C    0.057989
     2  O   -0.354791
     3  H    0.056477
     4  H    0.059376
     5  H    0.065496
     6  H    0.115453
 Sum of Mulliken charges =   0.00000

 Dipole moment (field-independent basis, Debye):
    X=              0.8628    Y=             -1.4096    Z=              0.0801  Tot=              1.6546
 Quadrupole moment (field-independent basis, Debye-Ang):
   XX=            -12.7358   YY=            -12.5577   ZZ=            -13.7937
   XY=              1.9773   XZ=             -0.0086   YZ=             -0.0233

 Normal termination of Gaussian 09 at Wed Aug 26 15:12:32 2020.
