 Gaussian 09, Revision D.01,
 Gaussian 09:  ES64L-G09RevD.01 24-Apr-2013

 --------------------
 #p B2PLYPD3/Def2QZVP
 --------------------

 --------
 methanol
 --------
 Symbolic Z-matrix:
 Charge =  0 Multiplicity = 1

                         Standard orientation:
 ---------------------------------------------------------------------
 Center     Atomic      Atomic             Coordinates (Angstroms)
 Number     Number       Type             X           Y           Z
 ---------------------------------------------------------------------
      1          6           0       -0.673793   -0.018327    0.005986
      2          8           0        0.754708    0.106104   -0.011026
      3          1           0       -1.002137   -0.499408    0.950566
      4          1           0       -1.064824   -0.590303   -0.909564
      5          1           0       -1.093436    0.997226   -0.027306
      6          1           0        1.165486   -0.646388    0.038599
 ---------------------------------------------------------------------

 SCF Done:  E(RB2PLYPD3) =  -115.539342406     A.U. after   10 cycles
 E2(B2PLYPD3) =    -0.1459244790D+00 E(B2PLYPD3) =    -0.11568526688450D+03

 The electronic state is 1-A.
 Alpha  occ. eigenvalues --  -19.71439 -10.66936  -1.17915  -0.79422  -0.59534
 Alpha  occ. eigenvalues --   -0.51357  -0.50114  -0.40696  -0.35612
 Alpha virt. eigenvalues --    0.05360   0.08477   0.12074   0.12414   0.14533
 Alpha virt. eigenvalues --    0.17129   0.18082   0.28994   0.32632   0.33197
 Alpha virt. eigenvalues --    0.36875   0.39142   0.39586   0.39976   0.43154

 Mulliken charges:
               1
     1  C    0.065792
     2  O   -0.417624
     3  H    0.053055
     4  H    0.048624
     5  H    0.077177
     6  H    0.172977
 Sum of Mulliken charges =   0.00000

 Dipole moment (field-independent basis, Debye):
    X=             -0.8774    Y=             -1.3537    Z=              0.1316  Tot=              1.6186
 Quadrupole moment (field-independent basis, Debye-Ang):
   XX=            -12.8484   YY=            -12.5116   ZZ=            -13.6683
   XY=             -2.2327   XZ=              0.1435   YZ=             -0.0762

 Normal termination of Gaussian 09 at Thu Aug 27 00:03:32 2020.
