 Gaussian 09, Revision D.01,
 Gaussian 09:  ES64L-G09RevD.01 24-Apr-2013

 --------------------
 #p B2PLYPD3/Def2QZVP
 --------------------

 --------
 methanol
 --------
 Symbolic Z-matrix:
 Charge =  0 Multiplicity = 1

                         Standard orientation:
 ---------------------------------------------------------------------
 Center     Atomic      Atomic             Coordinates (Angstroms)
 Number     Number       Type             X           Y           Z
 ---------------------------------------------------------------------
      1          6           0       -0.643605   -0.009200    0.007484
      2          8           0        0.743919    0.082017   -0.031532
      3          1           0       -1.064443   -0.276088    0.984597
      4          1           0       -0.954350   -0.910454   -0.751392
      5          1           0       -1.124819    1.057311   -0.263807
      6          1           0        1.053893   -0.471707    0.237952
 ---------------------------------------------------------------------

 SCF Done:  E(RB2PLYPD3) =  -115.399587616     A.U. after   11 cycles
 E2(B2PLYPD3) =    -0.1438254288D+00 E(B2PLYPD3) =    -0.11554341304429D+03

 The electronic state is 1-A.
 Alpha  occ. eigenvalues --  -19.70068 -10.68564  -1.25824  -0.81284  -0.62784
 Alpha  occ. eigenvalues --   -0.51781  -0.50085  -0.41143  -0.35593
 Alpha virt. eigenvalues --    0.05183   0.09263   0.11648   0.11851   0.14819
 Alpha virt. eigenvalues --    0.17029   0.17635   0.28704   0.31820   0.34385
 Alpha virt. eigenvalues --    0.35820   0.36868   0.39988   0.41145   0.42315

 Mulliken charges:
               1
     1  C    0.051806
     2  O   -0.225737
     3  H    0.050169
     4  H    0.034994
     5  H    0.073300
     6  H    0.015468
 Sum of Mulliken charges =   0.00000

 Dipole moment (field-independent basis, Debye):
    X=             -0.8197    Y=             -1.0745    Z=              0.6903  Tot=              1.5175
 Quadrupole moment (field-independent basis, Debye-Ang):
   XX=            -13.2442   YY=            -12.6107   ZZ=            -13.6026
   XY=             -1.8449   XZ=              0.4960   YZ=             -0.3745

 Normal termination of Gaussian 09 at Wed Aug 26 23:47:38 2020.
