 Gaussian 09, Revision D.01,
 Gaussian 09:  ES64L-G09RevD.01 24-Apr-2013

 --------------------
 #p B2PLYPD3/Def2QZVP
 --------------------

 --------
 methanol
 --------
 Symbolic Z-matrix:
 Charge =  0 Multiplicity = 1

                         Standard orientation:
 ---------------------------------------------------------------------
 Center     Atomic      Atomic             Coordinates (Angstroms)
 Number     Number       Type             X           Y           Z
 ---------------------------------------------------------------------
      1          6           0        0.682864   -0.027104    0.008367
      2          8           0       -0.773972    0.048608    0.013657
      3          1           0        1.024839   -0.706409   -0.911880
      4          1           0        1.181732   -0.352037    1.012040
      5          1           0        0.934677    1.222926   -0.243716
      6          1           0       -1.046653   -0.390720   -0.015900
 ---------------------------------------------------------------------

 SCF Done:  E(RB2PLYPD3) =  -114.863546820     A.U. after   12 cycles
 E2(B2PLYPD3) =    -0.1440507579D+00 E(B2PLYPD3) =    -0.11500759757797D+03

 The electronic state is 1-A.
 Alpha  occ. eigenvalues --  -19.68590 -10.71057  -1.32545  -0.82995  -0.62461
 Alpha  occ. eigenvalues --   -0.51393  -0.48333  -0.40356  -0.37291
 Alpha virt. eigenvalues --    0.04711   0.09135   0.10713   0.11595   0.14304
 Alpha virt. eigenvalues --    0.16305   0.17891   0.28065   0.29789   0.33163
 Alpha virt. eigenvalues --    0.33261   0.35526   0.37568   0.41664   0.42181

 Mulliken charges:
               1
     1  C    0.031227
     2  O   -0.055509
     3  H    0.060260
     4  H    0.077996
     5  H    0.072895
     6  H   -0.186868
 Sum of Mulliken charges =   0.00000

 Dipole moment (field-independent basis, Debye):
    X=              1.1315    Y=             -1.1427    Z=             -0.0534  Tot=              1.6090
 Quadrupole moment (field-independent basis, Debye-Ang):
   XX=            -13.2572   YY=            -12.5389   ZZ=            -13.2952
   XY=              1.3731   XZ=              0.2991   YZ=              0.0126

 Normal termination of Gaussian 09 at Wed Aug 26 21:47:11 2020.
