 Gaussian 09, Revision D.01,
 Gaussian 09:  ES64L-G09RevD.01 24-Apr-2013

 --------------------
 #p B2PLYPD3/Def2QZVP
 --------------------

 --------
 methanol
 --------
 Symbolic Z-matrix:
 Charge =  0 Multiplicity = 1

                         Standard orientation:
 ---------------------------------------------------------------------
 Center     Atomic      Atomic             Coordinates (Angstroms)
 Number     Number       Type             X           Y           Z
 ---------------------------------------------------------------------
      1          6           0       -0.664798    0.010924    0.006577
      2          8           0        0.740657   -0.142135   -0.009353
      3          1           0       -1.036718    0.588419   -0.833543
      4          1           0       -0.984435    0.494656    0.860635
      5          1           0       -1.047747   -0.915435   -0.025399
      6          1           0        1.132431    0.903892    0.033672
 ---------------------------------------------------------------------

 SCF Done:  E(RB2PLYPD3) =  -115.525421982     A.U. after   11 cycles
 E2(B2PLYPD3) =    -0.1497297010D+00 E(B2PLYPD3) =    -0.11567515168324D+03

 The electronic state is 1-A.
 Alpha  occ. eigenvalues --  -19.73636 -10.63601  -1.13928  -0.78888  -0.57334
 Alpha  occ. eigenvalues --   -0.51914  -0.49959  -0.41334  -0.34932
 Alpha virt. eigenvalues --    0.03508   0.07967   0.12610   0.12674   0.14989
 Alpha virt. eigenvalues --    0.17386   0.18061   0.28632   0.29983   0.33300
 Alpha virt. eigenvalues --    0.34362   0.38983   0.40728   0.41593   0.44164

 Mulliken charges:
               1
     1  C    0.084569
     2  O   -0.486121
     3  H    0.038075
     4  H    0.042989
     5  H    0.070680
     6  H    0.249807
 Sum of Mulliken charges =   0.00000

 Dipole moment (field-independent basis, Debye):
    X=             -0.9500    Y=              1.6097    Z=              0.1165  Tot=              1.8727
 Quadrupole moment (field-independent basis, Debye-Ang):
   XX=            -13.1828   YY=            -11.7747   ZZ=            -13.8813
   XY=              2.3554   XZ=              0.0701   YZ=              0.0857

 Normal termination of Gaussian 09 at Thu Aug 27 01:00:18 2020.
