 Gaussian 09, Revision D.01,
 Gaussian 09:  ES64L-G09RevD.01 24-Apr-2013

 --------------------
 #p B2PLYPD3/Def2QZVP
 --------------------

 --------
 methanol
 --------
 Symbolic Z-matrix:
 Charge =  0 Multiplicity = 1

                         Standard orientation:
 ---------------------------------------------------------------------
 Center     Atomic      Atomic             Coordinates (Angstroms)
 Number     Number       Type             X           Y           Z
 ---------------------------------------------------------------------
      1          6           0        0.661184   -0.007902    0.009742
      2          8           0       -0.754563    0.094099   -0.012502
      3          1           0        1.048036   -0.714427   -0.854000
      4          1           0        1.025828   -0.387096    1.007058
      5          1           0        1.079459    1.005186   -0.172420
      6          1           0       -1.083925   -0.609044    0.060924
 ---------------------------------------------------------------------

 SCF Done:  E(RB2PLYPD3) =  -115.502606976     A.U. after   10 cycles
 E2(B2PLYPD3) =    -0.1448516842D+00 E(B2PLYPD3) =    -0.11564745865995D+03

 The electronic state is 1-A.
 Alpha  occ. eigenvalues --  -19.70897 -10.67594  -1.21276  -0.79953  -0.60737
 Alpha  occ. eigenvalues --   -0.51333  -0.50482  -0.41264  -0.35764
 Alpha virt. eigenvalues --    0.05377   0.08876   0.11864   0.12269   0.14572
 Alpha virt. eigenvalues --    0.17182   0.17900   0.28790   0.32881   0.32998
 Alpha virt. eigenvalues --    0.36614   0.39142   0.39519   0.40093   0.42927

 Mulliken charges:
               1
     1  C    0.058452
     2  O   -0.330478
     3  H    0.039545
     4  H    0.052645
     5  H    0.078900
     6  H    0.100936
 Sum of Mulliken charges =   0.00000

 Dipole moment (field-independent basis, Debye):
    X=              0.9188    Y=             -1.2661    Z=              0.1785  Tot=              1.5745
 Quadrupole moment (field-independent basis, Debye-Ang):
   XX=            -13.1817   YY=            -12.4790   ZZ=            -13.6343
   XY=              2.0762   XZ=             -0.1914   YZ=             -0.1586

 Normal termination of Gaussian 09 at Thu Aug 27 00:13:11 2020.
