 Gaussian 09, Revision D.01,
 Gaussian 09:  ES64L-G09RevD.01 24-Apr-2013

 --------------------
 #p B2PLYPD3/Def2QZVP
 --------------------

 --------
 methanol
 --------
 Symbolic Z-matrix:
 Charge =  0 Multiplicity = 1

                         Standard orientation:
 ---------------------------------------------------------------------
 Center     Atomic      Atomic             Coordinates (Angstroms)
 Number     Number       Type             X           Y           Z
 ---------------------------------------------------------------------
      1          6           0       -0.643260   -0.012112   -0.003470
      2          8           0        0.769368   -0.087408   -0.033129
      3          1           0       -1.058971    0.990586   -0.573825
      4          1           0       -1.064591    0.012307    1.093539
      5          1           0       -1.136965   -0.844986   -0.462741
      6          1           0        0.965143    0.614031    0.228877
 ---------------------------------------------------------------------

 SCF Done:  E(RB2PLYPD3) =  -115.487964599     A.U. after   11 cycles
 E2(B2PLYPD3) =    -0.1453956288D+00 E(B2PLYPD3) =    -0.11563336022751D+03

 The electronic state is 1-A.
 Alpha  occ. eigenvalues --  -19.71707 -10.68158  -1.22817  -0.79275  -0.60935
 Alpha  occ. eigenvalues --   -0.51644  -0.50686  -0.42084  -0.35688
 Alpha virt. eigenvalues --    0.05199   0.08762   0.11451   0.12457   0.14495
 Alpha virt. eigenvalues --    0.17682   0.18097   0.28401   0.32222   0.32780
 Alpha virt. eigenvalues --    0.34938   0.37816   0.39489   0.40723   0.44162

 Mulliken charges:
               1
     1  C    0.052800
     2  O   -0.303854
     3  H    0.026815
     4  H    0.041847
     5  H    0.082682
     6  H    0.099711
 Sum of Mulliken charges =   0.00000

 Dipole moment (field-independent basis, Debye):
    X=             -1.0626    Y=              1.1153    Z=              0.4400  Tot=              1.6020
 Quadrupole moment (field-independent basis, Debye-Ang):
   XX=            -13.5605   YY=            -12.5713   ZZ=            -13.6550
   XY=              1.9287   XZ=              0.7225   YZ=              0.4365

 Normal termination of Gaussian 09 at Wed Aug 26 21:55:26 2020.
