 Gaussian 09, Revision D.01,
 Gaussian 09:  ES64L-G09RevD.01 24-Apr-2013

 --------------------
 #p B2PLYPD3/Def2QZVP
 --------------------

 --------
 methanol
 --------
 Symbolic Z-matrix:
 Charge =  0 Multiplicity = 1

                         Standard orientation:
 ---------------------------------------------------------------------
 Center     Atomic      Atomic             Coordinates (Angstroms)
 Number     Number       Type             X           Y           Z
 ---------------------------------------------------------------------
      1          6           0        0.676562    0.006533   -0.000610
      2          8           0       -0.733944   -0.135163    0.020294
      3          1           0        1.094622    0.546224    0.926799
      4          1           0        1.037081    0.519982   -0.907429
      5          1           0        0.993523   -0.862301   -0.080461
      6          1           0       -1.313045    0.838200   -0.097599
 ---------------------------------------------------------------------

 SCF Done:  E(RB2PLYPD3) =  -115.503334163     A.U. after   11 cycles
 E2(B2PLYPD3) =    -0.1503337021D+00 E(B2PLYPD3) =    -0.11565366786478D+03

 The electronic state is 1-A.
 Alpha  occ. eigenvalues --  -19.73540 -10.64388  -1.13139  -0.79076  -0.56196
 Alpha  occ. eigenvalues --   -0.51749  -0.50125  -0.40022  -0.34639
 Alpha virt. eigenvalues --    0.03298   0.07589   0.12303   0.13088   0.14855
 Alpha virt. eigenvalues --    0.16852   0.18535   0.28219   0.29412   0.33110
 Alpha virt. eigenvalues --    0.34452   0.37526   0.39723   0.41028   0.43495

 Mulliken charges:
               1
     1  C    0.060624
     2  O   -0.498639
     3  H    0.047290
     4  H    0.040612
     5  H    0.090136
     6  H    0.259977
 Sum of Mulliken charges =   0.00000

 Dipole moment (field-independent basis, Debye):
    X=              0.6516    Y=              1.4541    Z=             -0.2698  Tot=              1.6161
 Quadrupole moment (field-independent basis, Debye-Ang):
   XX=            -12.3980   YY=            -12.2616   ZZ=            -13.8604
   XY=             -2.6468   XZ=              0.2212   YZ=             -0.0684

 Normal termination of Gaussian 09 at Wed Aug 26 22:44:57 2020.
