 Gaussian 09, Revision D.01,
 Gaussian 09:  ES64L-G09RevD.01 24-Apr-2013

 --------------------
 #p B2PLYPD3/Def2QZVP
 --------------------

 --------
 methanol
 --------
 Symbolic Z-matrix:
 Charge =  0 Multiplicity = 1

                         Standard orientation:
 ---------------------------------------------------------------------
 Center     Atomic      Atomic             Coordinates (Angstroms)
 Number     Number       Type             X           Y           Z
 ---------------------------------------------------------------------
      1          6           0       -0.696954   -0.014454   -0.043967
      2          8           0        0.775642   -0.016528    0.069245
      3          1           0       -0.910844   -0.688042   -0.882686
      4          1           0       -1.168753    1.184444   -0.033126
      5          1           0       -1.090071   -0.499826    0.971858
      6          1           0        1.146253    0.222371   -0.346209
 ---------------------------------------------------------------------

 SCF Done:  E(RB2PLYPD3) =  -115.210121621     A.U. after   11 cycles
 E2(B2PLYPD3) =    -0.1443862042D+00 E(B2PLYPD3) =    -0.11535450782485D+03

 The electronic state is 1-A.
 Alpha  occ. eigenvalues --  -19.68147 -10.70417  -1.26656  -0.82429  -0.61002
 Alpha  occ. eigenvalues --   -0.51780  -0.48795  -0.39497  -0.36676
 Alpha virt. eigenvalues --    0.04989   0.09105   0.10839   0.11790   0.13489
 Alpha virt. eigenvalues --    0.16638   0.18224   0.28187   0.29620   0.31751
 Alpha virt. eigenvalues --    0.34091   0.35778   0.40398   0.40829   0.42629

 Mulliken charges:
               1
     1  C    0.053354
     2  O   -0.192461
     3  H    0.081692
     4  H    0.052798
     5  H    0.083477
     6  H   -0.078859
 Sum of Mulliken charges =   0.00000

 Dipole moment (field-independent basis, Debye):
    X=             -1.1117    Y=              0.3732    Z=             -0.9804  Tot=              1.5285
 Quadrupole moment (field-independent basis, Debye-Ang):
   XX=            -12.8801   YY=            -13.1077   ZZ=            -12.9630
   XY=              0.8768   XZ=             -1.7051   YZ=             -0.0823

 Normal termination of Gaussian 09 at Wed Aug 26 19:40:47 2020.
