 Gaussian 09, Revision D.01,
 Gaussian 09:  ES64L-G09RevD.01 24-Apr-2013

 --------------------
 #p B2PLYPD3/Def2QZVP
 --------------------

 --------
 methanol
 --------
 Symbolic Z-matrix:
 Charge =  0 Multiplicity = 1

                         Standard orientation:
 ---------------------------------------------------------------------
 Center     Atomic      Atomic             Coordinates (Angstroms)
 Number     Number       Type             X           Y           Z
 ---------------------------------------------------------------------
      1          6           0        0.650232    0.042327    0.029883
      2          8           0       -0.737287   -0.196826   -0.020561
      3          1           0        1.099865    0.347825    0.700519
      4          1           0        1.147545    0.670755   -0.697245
      5          1           0        1.047357   -0.889602   -0.098790
      6          1           0       -1.297863    1.191670    0.080706
 ---------------------------------------------------------------------

 SCF Done:  E(RB2PLYPD3) =  -115.375679813     A.U. after   12 cycles
 E2(B2PLYPD3) =    -0.1586272465D+00 E(B2PLYPD3) =    -0.11553430705934D+03

 The electronic state is 1-A.
 Alpha  occ. eigenvalues --  -19.76664 -10.61877  -1.12255  -0.81892  -0.55698
 Alpha  occ. eigenvalues --   -0.51184  -0.49220  -0.38672  -0.35406
 Alpha virt. eigenvalues --   -0.03520   0.07079   0.12130   0.13544   0.15166
 Alpha virt. eigenvalues --    0.17190   0.18842   0.20824   0.29510   0.33844
 Alpha virt. eigenvalues --    0.34606   0.37253   0.37720   0.41824   0.46228

 Mulliken charges:
               1
     1  C    0.046945
     2  O   -0.445252
     3  H    0.090436
     4  H    0.032386
     5  H    0.053684
     6  H    0.221800
 Sum of Mulliken charges =   0.00000

 Dipole moment (field-independent basis, Debye):
    X=              0.9900    Y=              1.7339    Z=              0.3005  Tot=              2.0191
 Quadrupole moment (field-independent basis, Debye-Ang):
   XX=            -12.6704   YY=            -11.3688   ZZ=            -14.3904
   XY=             -2.3832   XZ=              0.0525   YZ=              0.2163

 Normal termination of Gaussian 09 at Wed Aug 26 22:04:31 2020.
