 Gaussian 09, Revision D.01,
 Gaussian 09:  ES64L-G09RevD.01 24-Apr-2013

 --------------------
 #p B2PLYPD3/Def2QZVP
 --------------------

 --------
 methanol
 --------
 Symbolic Z-matrix:
 Charge =  0 Multiplicity = 1

                         Standard orientation:
 ---------------------------------------------------------------------
 Center     Atomic      Atomic             Coordinates (Angstroms)
 Number     Number       Type             X           Y           Z
 ---------------------------------------------------------------------
      1          6           0        0.696782    0.037615    0.008157
      2          8           0       -0.713338   -0.206916   -0.005018
      3          1           0        0.999663    0.428766    0.831074
      4          1           0        0.946701    0.603013   -0.786614
      5          1           0        1.023796   -0.714357   -0.091476
      6          1           0       -1.444147    1.112217    0.038219
 ---------------------------------------------------------------------

 SCF Done:  E(RB2PLYPD3) =  -115.351465985     A.U. after   12 cycles
 E2(B2PLYPD3) =    -0.1574767978D+00 E(B2PLYPD3) =    -0.11550894278268D+03

 The electronic state is 1-A.
 Alpha  occ. eigenvalues --  -19.74995 -10.59944  -1.10941  -0.81896  -0.56641
 Alpha  occ. eigenvalues --   -0.53796  -0.48601  -0.38373  -0.35013
 Alpha virt. eigenvalues --   -0.03172   0.07544   0.12943   0.13109   0.14445
 Alpha virt. eigenvalues --    0.17137   0.18384   0.21346   0.29386   0.33317
 Alpha virt. eigenvalues --    0.33880   0.37998   0.41701   0.43654   0.45204

 Mulliken charges:
               1
     1  C    0.011939
     2  O   -0.492738
     3  H    0.053315
     4  H    0.049429
     5  H    0.156061
     6  H    0.221994
 Sum of Mulliken charges =   0.00000

 Dipole moment (field-independent basis, Debye):
    X=              0.9853    Y=              1.6351    Z=              0.0577  Tot=              1.9099
 Quadrupole moment (field-independent basis, Debye-Ang):
   XX=            -12.1560   YY=            -11.6502   ZZ=            -13.7460
   XY=             -2.8378   XZ=             -0.0391   YZ=              0.0801

 Normal termination of Gaussian 09 at Wed Aug 26 22:20:12 2020.
