 Gaussian 09, Revision D.01,
 Gaussian 09:  ES64L-G09RevD.01 24-Apr-2013

 --------------------
 #p B2PLYPD3/Def2QZVP
 --------------------

 --------
 methanol
 --------
 Symbolic Z-matrix:
 Charge =  0 Multiplicity = 1

                         Standard orientation:
 ---------------------------------------------------------------------
 Center     Atomic      Atomic             Coordinates (Angstroms)
 Number     Number       Type             X           Y           Z
 ---------------------------------------------------------------------
      1          6           0        0.666022   -0.019808    0.000372
      2          8           0       -0.771230    0.076901    0.002873
      3          1           0        1.085652   -0.639574   -0.885712
      4          1           0        1.123198   -0.454116    0.973569
      5          1           0        1.044139    1.131538   -0.111958
      6          1           0       -1.079282   -0.534203   -0.001118
 ---------------------------------------------------------------------

 SCF Done:  E(RB2PLYPD3) =  -115.393118510     A.U. after   11 cycles
 E2(B2PLYPD3) =    -0.1445196195D+00 E(B2PLYPD3) =    -0.11553763812902D+03

 The electronic state is 1-A.
 Alpha  occ. eigenvalues --  -19.70083 -10.69200  -1.24789  -0.80628  -0.61899
 Alpha  occ. eigenvalues --   -0.50844  -0.49131  -0.41171  -0.36508
 Alpha virt. eigenvalues --    0.05225   0.08914   0.11430   0.11908   0.14771
 Alpha virt. eigenvalues --    0.16817   0.17976   0.28615   0.31603   0.33226
 Alpha virt. eigenvalues --    0.35414   0.37524   0.38507   0.40543   0.41886

 Mulliken charges:
               1
     1  C    0.043136
     2  O   -0.236034
     3  H    0.054645
     4  H    0.058453
     5  H    0.071593
     6  H    0.008207
 Sum of Mulliken charges =   0.00000

 Dipole moment (field-independent basis, Debye):
    X=              0.9930    Y=             -1.2699    Z=             -0.0138  Tot=              1.6121
 Quadrupole moment (field-independent basis, Debye-Ang):
   XX=            -13.1060   YY=            -12.5158   ZZ=            -13.6866
   XY=              1.7446   XZ=              0.0313   YZ=              0.0023

 Normal termination of Gaussian 09 at Wed Aug 26 13:40:45 2020.
