 Gaussian 09, Revision D.01,
 Gaussian 09:  ES64L-G09RevD.01 24-Apr-2013

 --------------------
 #p B2PLYPD3/Def2QZVP
 --------------------

 --------
 methanol
 --------
 Symbolic Z-matrix:
 Charge =  0 Multiplicity = 1

                         Standard orientation:
 ---------------------------------------------------------------------
 Center     Atomic      Atomic             Coordinates (Angstroms)
 Number     Number       Type             X           Y           Z
 ---------------------------------------------------------------------
      1          6           0       -0.665018   -0.034314   -0.008337
      2          8           0        0.757106    0.135031   -0.003443
      3          1           0       -1.063787   -0.465691    0.894177
      4          1           0       -1.076770   -0.590782   -0.805023
      5          1           0       -1.125005    0.991736   -0.036951
      6          1           0        1.198828   -0.809629    0.025363
 ---------------------------------------------------------------------

 SCF Done:  E(RB2PLYPD3) =  -115.542085298     A.U. after   10 cycles
 E2(B2PLYPD3) =    -0.1490757777D+00 E(B2PLYPD3) =    -0.11569116107520D+03

 The electronic state is 1-A.
 Alpha  occ. eigenvalues --  -19.73578 -10.65431  -1.14328  -0.78464  -0.57706
 Alpha  occ. eigenvalues --   -0.51539  -0.48949  -0.40682  -0.35541
 Alpha virt. eigenvalues --    0.04396   0.07662   0.12287   0.12676   0.14971
 Alpha virt. eigenvalues --    0.17345   0.18462   0.28974   0.31886   0.33389
 Alpha virt. eigenvalues --    0.33898   0.37730   0.39759   0.41311   0.44094

 Mulliken charges:
               1
     1  C    0.070498
     2  O   -0.478129
     3  H    0.049733
     4  H    0.052586
     5  H    0.060578
     6  H    0.244735
 Sum of Mulliken charges =   0.00000

 Dipole moment (field-independent basis, Debye):
    X=             -0.8535    Y=             -1.6199    Z=              0.0399  Tot=              1.8314
 Quadrupole moment (field-independent basis, Debye-Ang):
   XX=            -12.7061   YY=            -12.2380   ZZ=            -13.9738
   XY=             -2.3039   XZ=              0.0893   YZ=              0.0240

 Normal termination of Gaussian 09 at Wed Aug 26 13:56:24 2020.
