 Gaussian 09, Revision D.01,
 Gaussian 09:  ES64L-G09RevD.01 24-Apr-2013

 --------------------
 #p B2PLYPD3/Def2QZVP
 --------------------

 --------
 methanol
 --------
 Symbolic Z-matrix:
 Charge =  0 Multiplicity = 1

                         Standard orientation:
 ---------------------------------------------------------------------
 Center     Atomic      Atomic             Coordinates (Angstroms)
 Number     Number       Type             X           Y           Z
 ---------------------------------------------------------------------
      1          6           0       -0.665889   -0.016609   -0.002375
      2          8           0        0.751305    0.129448    0.003929
      3          1           0       -1.081688   -0.537644    0.855869
      4          1           0       -1.021405   -0.556647   -0.853400
      5          1           0       -1.070102    0.977436   -0.019645
      6          1           0        1.158092   -0.819079   -0.000007
 ---------------------------------------------------------------------

 SCF Done:  E(RB2PLYPD3) =  -115.546203215     A.U. after   10 cycles
 E2(B2PLYPD3) =    -0.1485859217D+00 E(B2PLYPD3) =    -0.11569478913641D+03

 The electronic state is 1-A.
 Alpha  occ. eigenvalues --  -19.73277 -10.65063  -1.14726  -0.78555  -0.58037
 Alpha  occ. eigenvalues --   -0.51317  -0.49570  -0.41322  -0.35230
 Alpha virt. eigenvalues --    0.04445   0.07936   0.12392   0.12617   0.15071
 Alpha virt. eigenvalues --    0.17277   0.18135   0.29159   0.32353   0.33423
 Alpha virt. eigenvalues --    0.33952   0.38851   0.39597   0.40982   0.44022

 Mulliken charges:
               1
     1  C    0.074114
     2  O   -0.475993
     3  H    0.044674
     4  H    0.045668
     5  H    0.070133
     6  H    0.241404
 Sum of Mulliken charges =   0.00000

 Dipole moment (field-independent basis, Debye):
    X=             -0.8911    Y=             -1.5765    Z=             -0.0272  Tot=              1.8111
 Quadrupole moment (field-independent basis, Debye-Ang):
   XX=            -12.9609   YY=            -12.0347   ZZ=            -13.9581
   XY=             -2.2802   XZ=             -0.0306   YZ=              0.0142

 Normal termination of Gaussian 09 at Thu Aug 27 00:13:42 2020.
