 Gaussian 09, Revision D.01,
 Gaussian 09:  ES64L-G09RevD.01 24-Apr-2013

 --------------------
 #p B2PLYPD3/Def2QZVP
 --------------------

 --------
 methanol
 --------
 Symbolic Z-matrix:
 Charge =  0 Multiplicity = 1

                         Standard orientation:
 ---------------------------------------------------------------------
 Center     Atomic      Atomic             Coordinates (Angstroms)
 Number     Number       Type             X           Y           Z
 ---------------------------------------------------------------------
      1          6           0       -0.660335   -0.026106    0.004346
      2          8           0        0.766185    0.135547   -0.014253
      3          1           0       -1.081755   -0.454643    0.853815
      4          1           0       -1.186839   -0.571359   -0.806831
      5          1           0       -1.059340    0.999284   -0.010398
      6          1           0        1.160462   -0.901022    0.051367
 ---------------------------------------------------------------------

 SCF Done:  E(RB2PLYPD3) =  -115.526299947     A.U. after   11 cycles
 E2(B2PLYPD3) =    -0.1509337472D+00 E(B2PLYPD3) =    -0.11567723369467D+03

 The electronic state is 1-A.
 Alpha  occ. eigenvalues --  -19.74582 -10.65311  -1.13660  -0.78304  -0.57055
 Alpha  occ. eigenvalues --   -0.50618  -0.48810  -0.41064  -0.35550
 Alpha virt. eigenvalues --    0.03608   0.07391   0.12133   0.12786   0.15210
 Alpha virt. eigenvalues --    0.17194   0.18620   0.28118   0.30011   0.33228
 Alpha virt. eigenvalues --    0.34167   0.37555   0.39275   0.40521   0.44207

 Mulliken charges:
               1
     1  C    0.065237
     2  O   -0.472460
     3  H    0.051641
     4  H    0.044768
     5  H    0.059318
     6  H    0.251497
 Sum of Mulliken charges =   0.00000

 Dipole moment (field-independent basis, Debye):
    X=             -0.9179    Y=             -1.6448    Z=              0.1823  Tot=              1.8924
 Quadrupole moment (field-independent basis, Debye-Ang):
   XX=            -12.9237   YY=            -12.0052   ZZ=            -14.1616
   XY=             -2.2041   XZ=              0.1053   YZ=             -0.0991

 Normal termination of Gaussian 09 at Wed Aug 26 22:35:28 2020.
