 Gaussian 09, Revision D.01,
 Gaussian 09:  ES64L-G09RevD.01 24-Apr-2013

 --------------------
 #p B2PLYPD3/Def2QZVP
 --------------------

 --------
 methanol
 --------
 Symbolic Z-matrix:
 Charge =  0 Multiplicity = 1

                         Standard orientation:
 ---------------------------------------------------------------------
 Center     Atomic      Atomic             Coordinates (Angstroms)
 Number     Number       Type             X           Y           Z
 ---------------------------------------------------------------------
      1          6           0        0.672555   -0.024663    0.002260
      2          8           0       -0.746196    0.097149   -0.010523
      3          1           0        1.027561   -0.669182   -0.855256
      4          1           0        1.018458   -0.422990    0.974289
      5          1           0        1.049035    1.056767   -0.109321
      6          1           0       -1.160815   -0.593806    0.060909
 ---------------------------------------------------------------------

 SCF Done:  E(RB2PLYPD3) =  -115.519536205     A.U. after   10 cycles
 E2(B2PLYPD3) =    -0.1450905320D+00 E(B2PLYPD3) =    -0.11566462673749D+03

 The electronic state is 1-A.
 Alpha  occ. eigenvalues --  -19.70700 -10.67247  -1.19539  -0.79970  -0.60441
 Alpha  occ. eigenvalues --   -0.51810  -0.49605  -0.40453  -0.35747
 Alpha virt. eigenvalues --    0.05411   0.08810   0.12003   0.12180   0.14682
 Alpha virt. eigenvalues --    0.16822   0.17934   0.29030   0.32930   0.33212
 Alpha virt. eigenvalues --    0.37260   0.38818   0.39821   0.40332   0.42509

 Mulliken charges:
               1
     1  C    0.061661
     2  O   -0.370931
     3  H    0.052325
     4  H    0.055629
     5  H    0.074031
     6  H    0.127285
 Sum of Mulliken charges =   0.00000

 Dipole moment (field-independent basis, Debye):
    X=              0.8260    Y=             -1.3397    Z=              0.1616  Tot=              1.5822
 Quadrupole moment (field-independent basis, Debye-Ang):
   XX=            -12.9130   YY=            -12.4896   ZZ=            -13.6181
   XY=              2.0410   XZ=             -0.1860   YZ=             -0.0729

 Normal termination of Gaussian 09 at Thu Aug 27 00:09:16 2020.
