 Gaussian 09, Revision D.01,
 Gaussian 09:  ES64L-G09RevD.01 24-Apr-2013

 --------------------
 #p B2PLYPD3/Def2QZVP
 --------------------

 --------
 methanol
 --------
 Symbolic Z-matrix:
 Charge =  0 Multiplicity = 1

                         Standard orientation:
 ---------------------------------------------------------------------
 Center     Atomic      Atomic             Coordinates (Angstroms)
 Number     Number       Type             X           Y           Z
 ---------------------------------------------------------------------
      1          6           0        0.678856   -0.040615    0.017645
      2          8           0       -0.762942    0.074695    0.005485
      3          1           0        0.929021   -0.735912   -0.885724
      4          1           0        1.090431   -0.391193    0.958714
      5          1           0        1.093083    1.180722   -0.230772
      6          1           0       -1.082129   -0.407487    0.008032
 ---------------------------------------------------------------------

 SCF Done:  E(RB2PLYPD3) =  -115.130013437     A.U. after   11 cycles
 E2(B2PLYPD3) =    -0.1436276741D+00 E(B2PLYPD3) =    -0.11527364111141D+03

 The electronic state is 1-A.
 Alpha  occ. eigenvalues --  -19.68303 -10.69865  -1.29238  -0.82819  -0.62670
 Alpha  occ. eigenvalues --   -0.52529  -0.48354  -0.39889  -0.37050
 Alpha virt. eigenvalues --    0.04846   0.09524   0.10662   0.11888   0.14283
 Alpha virt. eigenvalues --    0.16679   0.17631   0.28418   0.30598   0.32433
 Alpha virt. eigenvalues --    0.33200   0.37612   0.39711   0.41149   0.42646

 Mulliken charges:
               1
     1  C    0.049254
     2  O   -0.143715
     3  H    0.056714
     4  H    0.078383
     5  H    0.064764
     6  H   -0.105400
 Sum of Mulliken charges =   0.00000

 Dipole moment (field-independent basis, Debye):
    X=              1.0520    Y=             -1.2441    Z=              0.0784  Tot=              1.6311
 Quadrupole moment (field-independent basis, Debye-Ang):
   XX=            -13.1199   YY=            -12.5866   ZZ=            -13.3383
   XY=              1.6436   XZ=              0.2197   YZ=             -0.0575

 Normal termination of Gaussian 09 at Wed Aug 26 18:55:48 2020.
