 Gaussian 09, Revision D.01,
 Gaussian 09:  ES64L-G09RevD.01 24-Apr-2013

 --------------------
 #p B2PLYPD3/Def2QZVP
 --------------------

 --------
 methanol
 --------
 Symbolic Z-matrix:
 Charge =  0 Multiplicity = 1

                         Standard orientation:
 ---------------------------------------------------------------------
 Center     Atomic      Atomic             Coordinates (Angstroms)
 Number     Number       Type             X           Y           Z
 ---------------------------------------------------------------------
      1          6           0        0.664765    0.030550   -0.009535
      2          8           0       -0.737253   -0.165796    0.010876
      3          1           0        1.102728    0.564239    0.793820
      4          1           0        1.022718    0.511063   -0.791653
      5          1           0        1.082020   -0.906133   -0.002120
      6          1           0       -1.298026    0.973896   -0.029846
 ---------------------------------------------------------------------

 SCF Done:  E(RB2PLYPD3) =  -115.484652668     A.U. after   11 cycles
 E2(B2PLYPD3) =    -0.1527610744D+00 E(B2PLYPD3) =    -0.11563741374209D+03

 The electronic state is 1-A.
 Alpha  occ. eigenvalues --  -19.74738 -10.62957  -1.12342  -0.79328  -0.55980
 Alpha  occ. eigenvalues --   -0.51530  -0.49403  -0.40151  -0.34999
 Alpha virt. eigenvalues --    0.01178   0.07437   0.12582   0.13128   0.15153
 Alpha virt. eigenvalues --    0.17288   0.18425   0.24603   0.29565   0.33732
 Alpha virt. eigenvalues --    0.34594   0.38881   0.39095   0.42024   0.44744

 Mulliken charges:
               1
     1  C    0.088786
     2  O   -0.491757
     3  H    0.040128
     4  H    0.045557
     5  H    0.064634
     6  H    0.252652
 Sum of Mulliken charges =   0.00000

 Dipole moment (field-independent basis, Debye):
    X=              0.8229    Y=              1.7005    Z=             -0.1305  Tot=              1.8936
 Quadrupole moment (field-independent basis, Debye-Ang):
   XX=            -12.4364   YY=            -11.8127   ZZ=            -14.1263
   XY=             -2.5353   XZ=              0.0501   YZ=             -0.0896

 Normal termination of Gaussian 09 at Wed Aug 26 12:41:56 2020.
