 Gaussian 09, Revision D.01,
 Gaussian 09:  ES64L-G09RevD.01 24-Apr-2013

 --------------------
 #p B2PLYPD3/Def2QZVP
 --------------------

 --------
 methanol
 --------
 Symbolic Z-matrix:
 Charge =  0 Multiplicity = 1

                         Standard orientation:
 ---------------------------------------------------------------------
 Center     Atomic      Atomic             Coordinates (Angstroms)
 Number     Number       Type             X           Y           Z
 ---------------------------------------------------------------------
      1          6           0        0.651247    0.017026    0.005714
      2          8           0       -0.740105   -0.143757   -0.004217
      3          1           0        1.034703    0.479956    0.861286
      4          1           0        1.004927    0.600583   -0.833774
      5          1           0        1.105051   -0.918792   -0.059175
      6          1           0       -1.131323    0.886157    0.031111
 ---------------------------------------------------------------------

 SCF Done:  E(RB2PLYPD3) =  -115.532373603     A.U. after   11 cycles
 E2(B2PLYPD3) =    -0.1494122990D+00 E(B2PLYPD3) =    -0.11568178590193D+03

 The electronic state is 1-A.
 Alpha  occ. eigenvalues --  -19.73805 -10.64077  -1.14672  -0.78539  -0.57402
 Alpha  occ. eigenvalues --   -0.51945  -0.50219  -0.40966  -0.35032
 Alpha virt. eigenvalues --    0.03639   0.07890   0.12628   0.12692   0.14981
 Alpha virt. eigenvalues --    0.17686   0.18188   0.28766   0.30035   0.33327
 Alpha virt. eigenvalues --    0.34809   0.39212   0.40258   0.41706   0.43919

 Mulliken charges:
               1
     1  C    0.080015
     2  O   -0.476361
     3  H    0.042544
     4  H    0.036530
     5  H    0.065179
     6  H    0.252093
 Sum of Mulliken charges =   0.00000

 Dipole moment (field-independent basis, Debye):
    X=              0.8806    Y=              1.6194    Z=              0.0838  Tot=              1.8452
 Quadrupole moment (field-independent basis, Debye-Ang):
   XX=            -13.0919   YY=            -11.9335   ZZ=            -13.9285
   XY=             -2.3792   XZ=             -0.0207   YZ=              0.0760

 Normal termination of Gaussian 09 at Wed Aug 26 13:23:43 2020.
