 Gaussian 09, Revision D.01,
 Gaussian 09:  ES64L-G09RevD.01 24-Apr-2013

 --------------------
 #p B2PLYPD3/Def2QZVP
 --------------------

 --------
 methanol
 --------
 Symbolic Z-matrix:
 Charge =  0 Multiplicity = 1

                         Standard orientation:
 ---------------------------------------------------------------------
 Center     Atomic      Atomic             Coordinates (Angstroms)
 Number     Number       Type             X           Y           Z
 ---------------------------------------------------------------------
      1          6           0       -0.633302   -0.041819   -0.025926
      2          8           0        0.737140    0.074159   -0.004014
      3          1           0       -1.001435   -0.631165    0.972378
      4          1           0       -1.105171   -0.516605   -0.919937
      5          1           0       -1.151055    1.182741    0.118832
      6          1           0        1.160355   -0.377331    0.016393
 ---------------------------------------------------------------------

 SCF Done:  E(RB2PLYPD3) =  -115.239985584     A.U. after   11 cycles
 E2(B2PLYPD3) =    -0.1439768751D+00 E(B2PLYPD3) =    -0.11538396245945D+03

 The electronic state is 1-A.
 Alpha  occ. eigenvalues --  -19.69483 -10.70524  -1.28540  -0.84363  -0.63352
 Alpha  occ. eigenvalues --   -0.52146  -0.49681  -0.38008  -0.36270
 Alpha virt. eigenvalues --    0.04814   0.09219   0.10821   0.11904   0.14555
 Alpha virt. eigenvalues --    0.16804   0.18053   0.28426   0.31897   0.32443
 Alpha virt. eigenvalues --    0.34432   0.37057   0.39331   0.40602   0.42222

 Mulliken charges:
               1
     1  C    0.038172
     2  O   -0.138037
     3  H    0.038565
     4  H    0.071672
     5  H    0.053444
     6  H   -0.063816
 Sum of Mulliken charges =   0.00000

 Dipole moment (field-independent basis, Debye):
    X=             -0.5334    Y=             -1.1802    Z=             -0.0648  Tot=              1.2967
 Quadrupole moment (field-independent basis, Debye-Ang):
   XX=            -12.6523   YY=            -13.0948   ZZ=            -13.6182
   XY=             -1.5750   XZ=              0.2714   YZ=              0.1336

 Normal termination of Gaussian 09 at Wed Aug 26 22:17:15 2020.
