 Gaussian 09, Revision D.01,
 Gaussian 09:  ES64L-G09RevD.01 24-Apr-2013

 --------------------
 #p B2PLYPD3/Def2QZVP
 --------------------

 --------
 methanol
 --------
 Symbolic Z-matrix:
 Charge =  0 Multiplicity = 1

                         Standard orientation:
 ---------------------------------------------------------------------
 Center     Atomic      Atomic             Coordinates (Angstroms)
 Number     Number       Type             X           Y           Z
 ---------------------------------------------------------------------
      1          6           0        0.673758   -0.022796    0.009635
      2          8           0       -0.751974    0.106578   -0.004491
      3          1           0        0.994328   -0.608880   -0.899567
      4          1           0        1.048858   -0.495378    0.901758
      5          1           0        1.066240    1.044133   -0.065686
      6          1           0       -1.136180   -0.655720    0.041612
 ---------------------------------------------------------------------

 SCF Done:  E(RB2PLYPD3) =  -115.538115163     A.U. after   10 cycles
 E2(B2PLYPD3) =    -0.1458199137D+00 E(B2PLYPD3) =    -0.11568393507643D+03

 The electronic state is 1-A.
 Alpha  occ. eigenvalues --  -19.71360 -10.66710  -1.18204  -0.79352  -0.59971
 Alpha  occ. eigenvalues --   -0.51758  -0.49400  -0.41047  -0.35662
 Alpha virt. eigenvalues --    0.05317   0.08629   0.12072   0.12230   0.14768
 Alpha virt. eigenvalues --    0.17018   0.17917   0.29084   0.32602   0.33454
 Alpha virt. eigenvalues --    0.37406   0.38279   0.39609   0.40867   0.42811

 Mulliken charges:
               1
     1  C    0.066344
     2  O   -0.411277
     3  H    0.048462
     4  H    0.057105
     5  H    0.071933
     6  H    0.167433
 Sum of Mulliken charges =   0.00000

 Dipole moment (field-independent basis, Debye):
    X=              0.9023    Y=             -1.4221    Z=              0.1274  Tot=              1.6890
 Quadrupole moment (field-independent basis, Debye-Ang):
   XX=            -13.0355   YY=            -12.3462   ZZ=            -13.6891
   XY=              2.0989   XZ=             -0.0160   YZ=             -0.1090

 Normal termination of Gaussian 09 at Thu Aug 27 00:02:46 2020.
