 Gaussian 09, Revision D.01,
 Gaussian 09:  ES64L-G09RevD.01 24-Apr-2013

 --------------------
 #p B2PLYPD3/Def2QZVP
 --------------------

 --------
 methanol
 --------
 Symbolic Z-matrix:
 Charge =  0 Multiplicity = 1

                         Standard orientation:
 ---------------------------------------------------------------------
 Center     Atomic      Atomic             Coordinates (Angstroms)
 Number     Number       Type             X           Y           Z
 ---------------------------------------------------------------------
      1          6           0        0.655445    0.020957    0.014648
      2          8           0       -0.741949   -0.125715   -0.033050
      3          1           0        0.980801    0.282294    0.972522
      4          1           0        1.074348    0.734477   -0.791508
      5          1           0        1.091786   -0.917374   -0.162101
      6          1           0       -1.144007    0.780584    0.157598
 ---------------------------------------------------------------------

 SCF Done:  E(RB2PLYPD3) =  -115.544593319     A.U. after   10 cycles
 E2(B2PLYPD3) =    -0.1479888877D+00 E(B2PLYPD3) =    -0.11569258220630D+03

 The electronic state is 1-A.
 Alpha  occ. eigenvalues --  -19.73086 -10.65105  -1.15767  -0.78638  -0.58043
 Alpha  occ. eigenvalues --   -0.51966  -0.50405  -0.40609  -0.35310
 Alpha virt. eigenvalues --    0.04629   0.08040   0.12207   0.12811   0.14708
 Alpha virt. eigenvalues --    0.17411   0.18477   0.28921   0.32730   0.33383
 Alpha virt. eigenvalues --    0.34373   0.38342   0.40492   0.41202   0.44188

 Mulliken charges:
               1
     1  C    0.067192
     2  O   -0.464254
     3  H    0.051871
     4  H    0.038370
     5  H    0.067200
     6  H    0.239620
 Sum of Mulliken charges =   0.00000

 Dipole moment (field-independent basis, Debye):
    X=              0.8214    Y=              1.4368    Z=              0.4135  Tot=              1.7059
 Quadrupole moment (field-independent basis, Debye-Ang):
   XX=            -13.0126   YY=            -12.3403   ZZ=            -13.6932
   XY=             -2.3604   XZ=             -0.4226   YZ=              0.2453

 Normal termination of Gaussian 09 at Wed Aug 26 14:33:35 2020.
