 Gaussian 09, Revision D.01,
 Gaussian 09:  ES64L-G09RevD.01 24-Apr-2013

 --------------------
 #p B2PLYPD3/Def2QZVP
 --------------------

 --------
 methanol
 --------
 Symbolic Z-matrix:
 Charge =  0 Multiplicity = 1

                         Standard orientation:
 ---------------------------------------------------------------------
 Center     Atomic      Atomic             Coordinates (Angstroms)
 Number     Number       Type             X           Y           Z
 ---------------------------------------------------------------------
      1          6           0       -0.647067    0.000321    0.033974
      2          8           0        0.757139    0.046864   -0.038552
      3          1           0       -1.004056   -0.423535    1.032196
      4          1           0       -1.298440   -0.651355   -0.927987
      5          1           0       -0.949995    1.137185   -0.096890
      6          1           0        1.077781   -0.439134    0.097255
 ---------------------------------------------------------------------

 SCF Done:  E(RB2PLYPD3) =  -115.189302387     A.U. after   11 cycles
 E2(B2PLYPD3) =    -0.1440698533D+00 E(B2PLYPD3) =    -0.11533337224067D+03

 The electronic state is 1-A.
 Alpha  occ. eigenvalues --  -19.69593 -10.70403  -1.29710  -0.83367  -0.62527
 Alpha  occ. eigenvalues --   -0.51120  -0.49808  -0.41126  -0.35746
 Alpha virt. eigenvalues --    0.04991   0.08738   0.11420   0.11563   0.14753
 Alpha virt. eigenvalues --    0.16468   0.18081   0.28183   0.30609   0.32922
 Alpha virt. eigenvalues --    0.34160   0.36894   0.38805   0.41191   0.42118

 Mulliken charges:
               1
     1  C    0.033104
     2  O   -0.131369
     3  H    0.059717
     4  H    0.028911
     5  H    0.084309
     6  H   -0.074673
 Sum of Mulliken charges =   0.00000

 Dipole moment (field-independent basis, Debye):
    X=             -0.7620    Y=             -0.9413    Z=              0.5381  Tot=              1.3252
 Quadrupole moment (field-independent basis, Debye-Ang):
   XX=            -13.1452   YY=            -12.7579   ZZ=            -13.6017
   XY=             -1.6376   XZ=              0.3654   YZ=             -0.3725

 Normal termination of Gaussian 09 at Wed Aug 26 21:22:56 2020.
