 Gaussian 09, Revision D.01,
 Gaussian 09:  ES64L-G09RevD.01 24-Apr-2013

 --------------------
 #p B2PLYPD3/Def2QZVP
 --------------------

 --------
 methanol
 --------
 Symbolic Z-matrix:
 Charge =  0 Multiplicity = 1

                         Standard orientation:
 ---------------------------------------------------------------------
 Center     Atomic      Atomic             Coordinates (Angstroms)
 Number     Number       Type             X           Y           Z
 ---------------------------------------------------------------------
      1          6           0        0.665980   -0.016200   -0.005120
      2          8           0       -0.747238    0.121235   -0.004387
      3          1           0        1.024981   -0.621278   -0.846788
      4          1           0        1.082166   -0.464977    0.912471
      5          1           0        1.051335    0.978863   -0.056162
      6          1           0       -1.176459   -0.765291    0.056293
 ---------------------------------------------------------------------

 SCF Done:  E(RB2PLYPD3) =  -115.551003177     A.U. after   10 cycles
 E2(B2PLYPD3) =    -0.1477411361D+00 E(B2PLYPD3) =    -0.11569874431279D+03

 The electronic state is 1-A.
 Alpha  occ. eigenvalues --  -19.72804 -10.65543  -1.15524  -0.78611  -0.58508
 Alpha  occ. eigenvalues --   -0.51362  -0.49827  -0.41045  -0.35214
 Alpha virt. eigenvalues --    0.04813   0.08062   0.12406   0.12510   0.15012
 Alpha virt. eigenvalues --    0.17094   0.18204   0.29133   0.33270   0.33844
 Alpha virt. eigenvalues --    0.34271   0.38754   0.39645   0.40749   0.43531

 Mulliken charges:
               1
     1  C    0.068940
     2  O   -0.467058
     3  H    0.046762
     4  H    0.045173
     5  H    0.073553
     6  H    0.232629
 Sum of Mulliken charges =   0.00000

 Dipole moment (field-independent basis, Debye):
    X=              0.8195    Y=             -1.4953    Z=              0.0984  Tot=              1.7080
 Quadrupole moment (field-independent basis, Debye-Ang):
   XX=            -12.8708   YY=            -12.1998   ZZ=            -13.8886
   XY=              2.2931   XZ=             -0.1059   YZ=             -0.0433

 Normal termination of Gaussian 09 at Thu Aug 27 00:10:43 2020.
