 Gaussian 09, Revision D.01,
 Gaussian 09:  ES64L-G09RevD.01 24-Apr-2013

 --------------------
 #p B2PLYPD3/Def2QZVP
 --------------------

 --------
 methanol
 --------
 Symbolic Z-matrix:
 Charge =  0 Multiplicity = 1

                         Standard orientation:
 ---------------------------------------------------------------------
 Center     Atomic      Atomic             Coordinates (Angstroms)
 Number     Number       Type             X           Y           Z
 ---------------------------------------------------------------------
      1          6           0       -0.669579   -0.022668    0.014406
      2          8           0        0.746588    0.098326   -0.010332
      3          1           0       -0.971132   -0.509995    0.942779
      4          1           0       -1.059319   -0.558207   -0.938719
      5          1           0       -1.040073    1.034942   -0.022963
      6          1           0        1.115294   -0.617339    0.015119
 ---------------------------------------------------------------------

 SCF Done:  E(RB2PLYPD3) =  -115.518292085     A.U. after   10 cycles
 E2(B2PLYPD3) =    -0.1450221427D+00 E(B2PLYPD3) =    -0.11566331422727D+03

 The electronic state is 1-A.
 Alpha  occ. eigenvalues --  -19.70772 -10.67005  -1.20006  -0.79930  -0.60314
 Alpha  occ. eigenvalues --   -0.52082  -0.49862  -0.40855  -0.35769
 Alpha virt. eigenvalues --    0.05417   0.08872   0.11993   0.12214   0.14524
 Alpha virt. eigenvalues --    0.16927   0.18026   0.28910   0.32914   0.33153
 Alpha virt. eigenvalues --    0.37130   0.38974   0.39935   0.40577   0.43142

 Mulliken charges:
               1
     1  C    0.060400
     2  O   -0.363220
     3  H    0.057854
     4  H    0.046734
     5  H    0.074512
     6  H    0.123718
 Sum of Mulliken charges =   0.00000

 Dipole moment (field-independent basis, Debye):
    X=             -0.8787    Y=             -1.3281    Z=              0.1132  Tot=              1.5965
 Quadrupole moment (field-independent basis, Debye-Ang):
   XX=            -13.1334   YY=            -12.4680   ZZ=            -13.5289
   XY=             -2.0726   XZ=              0.0736   YZ=             -0.0984

 Normal termination of Gaussian 09 at Wed Aug 26 10:02:51 2020.
