 Gaussian 09, Revision D.01,
 Gaussian 09:  ES64L-G09RevD.01 24-Apr-2013

 --------------------
 #p B2PLYPD3/Def2QZVP
 --------------------

 --------
 methanol
 --------
 Symbolic Z-matrix:
 Charge =  0 Multiplicity = 1

                         Standard orientation:
 ---------------------------------------------------------------------
 Center     Atomic      Atomic             Coordinates (Angstroms)
 Number     Number       Type             X           Y           Z
 ---------------------------------------------------------------------
      1          6           0        0.660981   -0.017140   -0.006758
      2          8           0       -0.751193    0.096779    0.003801
      3          1           0        1.033111   -0.596559   -0.883395
      4          1           0        1.086383   -0.498134    0.943157
      5          1           0        1.040765    1.056709   -0.054580
      6          1           0       -1.116600   -0.633405    0.004959
 ---------------------------------------------------------------------

 SCF Done:  E(RB2PLYPD3) =  -115.523717499     A.U. after   10 cycles
 E2(B2PLYPD3) =    -0.1453243033D+00 E(B2PLYPD3) =    -0.11566904180187D+03

 The electronic state is 1-A.
 Alpha  occ. eigenvalues --  -19.71298 -10.67275  -1.19997  -0.79576  -0.60749
 Alpha  occ. eigenvalues --   -0.51309  -0.49793  -0.41125  -0.35731
 Alpha virt. eigenvalues --    0.05364   0.08705   0.12030   0.12185   0.14905
 Alpha virt. eigenvalues --    0.16951   0.18018   0.28952   0.33181   0.33323
 Alpha virt. eigenvalues --    0.37243   0.38699   0.39687   0.39922   0.42395

 Mulliken charges:
               1
     1  C    0.057560
     2  O   -0.365710
     3  H    0.051227
     4  H    0.047470
     5  H    0.072877
     6  H    0.136575
 Sum of Mulliken charges =   0.00000

 Dipole moment (field-independent basis, Debye):
    X=              0.8447    Y=             -1.3627    Z=             -0.0342  Tot=              1.6036
 Quadrupole moment (field-independent basis, Debye-Ang):
   XX=            -13.0610   YY=            -12.3979   ZZ=            -13.7532
   XY=              2.0109   XZ=             -0.0070   YZ=              0.0318

 Normal termination of Gaussian 09 at Wed Aug 26 18:55:03 2020.
