 Gaussian 09, Revision D.01,
 Gaussian 09:  ES64L-G09RevD.01 24-Apr-2013

 --------------------
 #p B2PLYPD3/Def2QZVP
 --------------------

 --------
 methanol
 --------
 Symbolic Z-matrix:
 Charge =  0 Multiplicity = 1

                         Standard orientation:
 ---------------------------------------------------------------------
 Center     Atomic      Atomic             Coordinates (Angstroms)
 Number     Number       Type             X           Y           Z
 ---------------------------------------------------------------------
      1          6           0       -0.677155   -0.011674    0.015378
      2          8           0        0.758362    0.094725   -0.027917
      3          1           0       -0.990175   -0.377576    0.977149
      4          1           0       -1.076803   -0.723736   -0.842940
      5          1           0       -1.061955    1.024520   -0.135010
      6          1           0        1.124964   -0.610961    0.131866
 ---------------------------------------------------------------------

 SCF Done:  E(RB2PLYPD3) =  -115.519290158     A.U. after   10 cycles
 E2(B2PLYPD3) =    -0.1453592860D+00 E(B2PLYPD3) =    -0.11566464944351D+03

 The electronic state is 1-A.
 Alpha  occ. eigenvalues --  -19.70923 -10.67234  -1.19335  -0.79847  -0.60227
 Alpha  occ. eigenvalues --   -0.51192  -0.49920  -0.41274  -0.35720
 Alpha virt. eigenvalues --    0.05378   0.08716   0.11957   0.12193   0.14647
 Alpha virt. eigenvalues --    0.16982   0.17883   0.28972   0.32240   0.32997
 Alpha virt. eigenvalues --    0.36993   0.38690   0.39581   0.40499   0.43034

 Mulliken charges:
               1
     1  C    0.064994
     2  O   -0.376068
     3  H    0.057865
     4  H    0.044350
     5  H    0.078882
     6  H    0.129977
 Sum of Mulliken charges =   0.00000

 Dipole moment (field-independent basis, Debye):
    X=             -0.9503    Y=             -1.2853    Z=              0.4060  Tot=              1.6492
 Quadrupole moment (field-independent basis, Debye-Ang):
   XX=            -13.0630   YY=            -12.4436   ZZ=            -13.6012
   XY=             -2.0609   XZ=              0.3792   YZ=             -0.2508

 Normal termination of Gaussian 09 at Wed Aug 26 11:09:17 2020.
