 Gaussian 09, Revision D.01,
 Gaussian 09:  ES64L-G09RevD.01 24-Apr-2013

 --------------------
 #p B2PLYPD3/Def2QZVP
 --------------------

 --------
 methanol
 --------
 Symbolic Z-matrix:
 Charge =  0 Multiplicity = 1

                         Standard orientation:
 ---------------------------------------------------------------------
 Center     Atomic      Atomic             Coordinates (Angstroms)
 Number     Number       Type             X           Y           Z
 ---------------------------------------------------------------------
      1          6           0        0.697236   -0.021282    0.009877
      2          8           0       -0.743322    0.077215   -0.027213
      3          1           0        1.090101   -0.818453   -0.741889
      4          1           0        0.937437   -0.293324    1.010904
      5          1           0        0.982008    1.117530   -0.215351
      6          1           0       -1.246391   -0.495787    0.104774
 ---------------------------------------------------------------------

 SCF Done:  E(RB2PLYPD3) =  -115.483119854     A.U. after   10 cycles
 E2(B2PLYPD3) =    -0.1450629208D+00 E(B2PLYPD3) =    -0.11562818277473D+03

 The electronic state is 1-A.
 Alpha  occ. eigenvalues --  -19.69418 -10.68136  -1.19254  -0.80968  -0.60399
 Alpha  occ. eigenvalues --   -0.51596  -0.49017  -0.39218  -0.35560
 Alpha virt. eigenvalues --    0.05366   0.08878   0.11457   0.12172   0.14589
 Alpha virt. eigenvalues --    0.16290   0.17680   0.29073   0.31616   0.32957
 Alpha virt. eigenvalues --    0.36189   0.37829   0.39599   0.41197   0.42852

 Mulliken charges:
               1
     1  C    0.064016
     2  O   -0.351870
     3  H    0.055328
     4  H    0.065462
     5  H    0.082935
     6  H    0.084130
 Sum of Mulliken charges =   0.00000

 Dipole moment (field-independent basis, Debye):
    X=              0.7838    Y=             -1.2092    Z=              0.3758  Tot=              1.4892
 Quadrupole moment (field-independent basis, Debye-Ang):
   XX=            -12.6234   YY=            -12.5097   ZZ=            -13.6154
   XY=              1.7985   XZ=             -0.4309   YZ=             -0.1380

 Normal termination of Gaussian 09 at Wed Aug 26 19:15:22 2020.
