 Gaussian 09, Revision D.01,
 Gaussian 09:  ES64L-G09RevD.01 24-Apr-2013

 --------------------
 #p B2PLYPD3/Def2QZVP
 --------------------

 --------
 methanol
 --------
 Symbolic Z-matrix:
 Charge =  0 Multiplicity = 1

                         Standard orientation:
 ---------------------------------------------------------------------
 Center     Atomic      Atomic             Coordinates (Angstroms)
 Number     Number       Type             X           Y           Z
 ---------------------------------------------------------------------
      1          6           0       -0.660623    0.026787   -0.003557
      2          8           0        0.740812   -0.147888   -0.003611
      3          1           0       -1.042362    0.566955   -0.811604
      4          1           0       -1.041535    0.516297    0.836948
      5          1           0       -1.092074   -0.947908   -0.001229
      6          1           0        1.213212    0.887037    0.026114
 ---------------------------------------------------------------------

 SCF Done:  E(RB2PLYPD3) =  -115.524903825     A.U. after   11 cycles
 E2(B2PLYPD3) =    -0.1501741671D+00 E(B2PLYPD3) =    -0.11567507799245D+03

 The electronic state is 1-A.
 Alpha  occ. eigenvalues --  -19.73956 -10.63976  -1.13637  -0.78653  -0.57024
 Alpha  occ. eigenvalues --   -0.51796  -0.49498  -0.40667  -0.35092
 Alpha virt. eigenvalues --    0.03286   0.07686   0.12505   0.12876   0.15140
 Alpha virt. eigenvalues --    0.17357   0.18275   0.28128   0.29752   0.33635
 Alpha virt. eigenvalues --    0.34496   0.38936   0.39427   0.42040   0.44271

 Mulliken charges:
               1
     1  C    0.081624
     2  O   -0.487227
     3  H    0.044432
     4  H    0.042995
     5  H    0.064757
     6  H    0.253419
 Sum of Mulliken charges =   0.00000

 Dipole moment (field-independent basis, Debye):
    X=             -0.8281    Y=              1.6640    Z=              0.0552  Tot=              1.8595
 Quadrupole moment (field-independent basis, Debye-Ang):
   XX=            -12.7486   YY=            -11.9503   ZZ=            -14.0134
   XY=              2.4022   XZ=              0.0526   YZ=              0.0105

 Normal termination of Gaussian 09 at Thu Aug 27 00:05:11 2020.
