 Gaussian 09, Revision D.01,
 Gaussian 09:  ES64L-G09RevD.01 24-Apr-2013

 --------------------
 #p B2PLYPD3/Def2QZVP
 --------------------

 --------
 methanol
 --------
 Symbolic Z-matrix:
 Charge =  0 Multiplicity = 1

                         Standard orientation:
 ---------------------------------------------------------------------
 Center     Atomic      Atomic             Coordinates (Angstroms)
 Number     Number       Type             X           Y           Z
 ---------------------------------------------------------------------
      1          6           0        0.672852   -0.026443    0.017245
      2          8           0       -0.747986    0.116761   -0.017907
      3          1           0        0.936057   -0.752811   -0.819650
      4          1           0        1.049761   -0.288091    0.947897
      5          1           0        1.067115    0.969134   -0.231196
      6          1           0       -1.106159   -0.703663    0.142736
 ---------------------------------------------------------------------

 SCF Done:  E(RB2PLYPD3) =  -115.546138245     A.U. after   11 cycles
 E2(B2PLYPD3) =    -0.1465594934D+00 E(B2PLYPD3) =    -0.11569269773855D+03

 The electronic state is 1-A.
 Alpha  occ. eigenvalues --  -19.71874 -10.65759  -1.17031  -0.79136  -0.59080
 Alpha  occ. eigenvalues --   -0.52577  -0.49499  -0.41059  -0.35576
 Alpha virt. eigenvalues --    0.05159   0.08541   0.12087   0.12413   0.14532
 Alpha virt. eigenvalues --    0.17186   0.18163   0.29022   0.32458   0.33573
 Alpha virt. eigenvalues --    0.36413   0.38409   0.39670   0.42120   0.44028

 Mulliken charges:
               1
     1  C    0.068128
     2  O   -0.440525
     3  H    0.045283
     4  H    0.058892
     5  H    0.067983
     6  H    0.200239
 Sum of Mulliken charges =   0.00000

 Dipole moment (field-independent basis, Debye):
    X=              0.9481    Y=             -1.4194    Z=              0.3530  Tot=              1.7431
 Quadrupole moment (field-independent basis, Debye-Ang):
   XX=            -13.2109   YY=            -12.3524   ZZ=            -13.5307
   XY=              2.1995   XZ=             -0.2073   YZ=             -0.2355

 Normal termination of Gaussian 09 at Wed Aug 26 13:27:07 2020.
