 Gaussian 09, Revision D.01,
 Gaussian 09:  ES64L-G09RevD.01 24-Apr-2013

 --------------------
 #p B2PLYPD3/Def2QZVP
 --------------------

 --------
 methanol
 --------
 Symbolic Z-matrix:
 Charge =  0 Multiplicity = 1

                         Standard orientation:
 ---------------------------------------------------------------------
 Center     Atomic      Atomic             Coordinates (Angstroms)
 Number     Number       Type             X           Y           Z
 ---------------------------------------------------------------------
      1          6           0        0.661882   -0.016222    0.001002
      2          8           0       -0.748535    0.099704   -0.009322
      3          1           0        1.054745   -0.687347   -0.837303
      4          1           0        1.042366   -0.437558    0.962513
      5          1           0        1.081024    1.041660   -0.109593
      6          1           0       -1.161148   -0.617056    0.052947
 ---------------------------------------------------------------------

 SCF Done:  E(RB2PLYPD3) =  -115.528516014     A.U. after   10 cycles
 E2(B2PLYPD3) =    -0.1454279888D+00 E(B2PLYPD3) =    -0.11567394400245D+03

 The electronic state is 1-A.
 Alpha  occ. eigenvalues --  -19.71304 -10.67343  -1.19370  -0.79601  -0.60639
 Alpha  occ. eigenvalues --   -0.51147  -0.49987  -0.40676  -0.35554
 Alpha virt. eigenvalues --    0.05360   0.08613   0.12050   0.12275   0.14869
 Alpha virt. eigenvalues --    0.17024   0.17936   0.29052   0.33113   0.33436
 Alpha virt. eigenvalues --    0.37118   0.38708   0.39424   0.39918   0.42330

 Mulliken charges:
               1
     1  C    0.062282
     2  O   -0.382751
     3  H    0.045372
     4  H    0.050521
     5  H    0.074608
     6  H    0.149968
 Sum of Mulliken charges =   0.00000

 Dipole moment (field-independent basis, Debye):
    X=              0.7838    Y=             -1.3500    Z=              0.1442  Tot=              1.5677
 Quadrupole moment (field-independent basis, Debye-Ang):
   XX=            -12.8396   YY=            -12.4682   ZZ=            -13.8065
   XY=              2.0994   XZ=             -0.1574   YZ=             -0.0795

 Normal termination of Gaussian 09 at Wed Aug 26 15:00:28 2020.
