 Gaussian 09, Revision D.01,
 Gaussian 09:  ES64L-G09RevD.01 24-Apr-2013

 --------------------
 #p B2PLYPD3/Def2QZVP
 --------------------

 --------
 methanol
 --------
 Symbolic Z-matrix:
 Charge =  0 Multiplicity = 1

                         Standard orientation:
 ---------------------------------------------------------------------
 Center     Atomic      Atomic             Coordinates (Angstroms)
 Number     Number       Type             X           Y           Z
 ---------------------------------------------------------------------
      1          6           0        0.660283    0.040652    0.001042
      2          8           0       -0.741739   -0.173295   -0.004758
      3          1           0        0.972421    0.487352    0.818747
      4          1           0        0.996000    0.592099   -0.767484
      5          1           0        1.213581   -0.898250   -0.036165
      6          1           0       -1.209790    0.961248    0.016719
 ---------------------------------------------------------------------

 SCF Done:  E(RB2PLYPD3) =  -115.493160711     A.U. after   11 cycles
 E2(B2PLYPD3) =    -0.1517951125D+00 E(B2PLYPD3) =    -0.11564495582344D+03

 The electronic state is 1-A.
 Alpha  occ. eigenvalues --  -19.74464 -10.63018  -1.12683  -0.79339  -0.55410
 Alpha  occ. eigenvalues --   -0.53120  -0.49241  -0.40088  -0.35280
 Alpha virt. eigenvalues --    0.01863   0.07496   0.12634   0.12941   0.14751
 Alpha virt. eigenvalues --    0.18047   0.18243   0.25476   0.29622   0.33504
 Alpha virt. eigenvalues --    0.34082   0.38815   0.40122   0.43262   0.43305

 Mulliken charges:
               1
     1  C    0.099137
     2  O   -0.494244
     3  H    0.045292
     4  H    0.041737
     5  H    0.054373
     6  H    0.253705
 Sum of Mulliken charges =   0.00000

 Dipole moment (field-independent basis, Debye):
    X=              0.9333    Y=              1.7929    Z=              0.0552  Tot=              2.0221
 Quadrupole moment (field-independent basis, Debye-Ang):
   XX=            -12.7788   YY=            -11.8498   ZZ=            -13.9677
   XY=             -2.4903   XZ=             -0.0400   YZ=              0.0174

 Normal termination of Gaussian 09 at Wed Aug 26 15:50:26 2020.
