 Gaussian 09, Revision D.01,
 Gaussian 09:  ES64L-G09RevD.01 24-Apr-2013

 --------------------
 #p B2PLYPD3/Def2QZVP
 --------------------

 --------
 methanol
 --------
 Symbolic Z-matrix:
 Charge =  0 Multiplicity = 1

                         Standard orientation:
 ---------------------------------------------------------------------
 Center     Atomic      Atomic             Coordinates (Angstroms)
 Number     Number       Type             X           Y           Z
 ---------------------------------------------------------------------
      1          6           0        0.650369    0.028786   -0.014359
      2          8           0       -0.711753   -0.166409    0.016453
      3          1           0        0.843273    0.671344    0.863498
      4          1           0        1.076697    0.410272   -0.804576
      5          1           0        1.080850   -0.862374    0.070585
      6          1           0       -1.209007    0.939314   -0.174973
 ---------------------------------------------------------------------

 SCF Done:  E(RB2PLYPD3) =  -115.486061011     A.U. after   11 cycles
 E2(B2PLYPD3) =    -0.1512845105D+00 E(B2PLYPD3) =    -0.11563734552173D+03

 The electronic state is 1-A.
 Alpha  occ. eigenvalues --  -19.74120 -10.62638  -1.14202  -0.78892  -0.56743
 Alpha  occ. eigenvalues --   -0.53432  -0.49801  -0.40008  -0.34340
 Alpha virt. eigenvalues --    0.01810   0.07826   0.12481   0.12906   0.14897
 Alpha virt. eigenvalues --    0.17412   0.18418   0.25671   0.29548   0.32507
 Alpha virt. eigenvalues --    0.35929   0.38813   0.39960   0.42625   0.45847

 Mulliken charges:
               1
     1  C    0.079607
     2  O   -0.471253
     3  H    0.037372
     4  H    0.039224
     5  H    0.061943
     6  H    0.253108
 Sum of Mulliken charges =   0.00000

 Dipole moment (field-independent basis, Debye):
    X=              0.7588    Y=              1.6022    Z=             -0.4015  Tot=              1.8177
 Quadrupole moment (field-independent basis, Debye-Ang):
   XX=            -12.9221   YY=            -11.9250   ZZ=            -13.8262
   XY=             -2.6111   XZ=              0.0292   YZ=             -0.2858

 Normal termination of Gaussian 09 at Wed Aug 26 22:37:19 2020.
