 Gaussian 09, Revision D.01,
 Gaussian 09:  ES64L-G09RevD.01 24-Apr-2013

 --------------------
 #p B2PLYPD3/Def2QZVP
 --------------------

 --------
 methanol
 --------
 Symbolic Z-matrix:
 Charge =  0 Multiplicity = 1

                         Standard orientation:
 ---------------------------------------------------------------------
 Center     Atomic      Atomic             Coordinates (Angstroms)
 Number     Number       Type             X           Y           Z
 ---------------------------------------------------------------------
      1          6           0        0.651147   -0.013249    0.001296
      2          8           0       -0.742234    0.094387   -0.001359
      3          1           0        0.977156   -0.701793   -0.874549
      4          1           0        1.118659   -0.402315    0.985087
      5          1           0        1.064556    1.017340   -0.174062
      6          1           0       -1.129382   -0.588833    0.066619
 ---------------------------------------------------------------------

 SCF Done:  E(RB2PLYPD3) =  -115.506429911     A.U. after   10 cycles
 E2(B2PLYPD3) =    -0.1447944357D+00 E(B2PLYPD3) =    -0.11565122434648D+03

 The electronic state is 1-A.
 Alpha  occ. eigenvalues --  -19.71018 -10.67672  -1.21374  -0.80174  -0.61074
 Alpha  occ. eigenvalues --   -0.51444  -0.50586  -0.40552  -0.35544
 Alpha virt. eigenvalues --    0.05389   0.08789   0.12023   0.12239   0.14708
 Alpha virt. eigenvalues --    0.17021   0.18038   0.28815   0.32707   0.34090
 Alpha virt. eigenvalues --    0.36796   0.38935   0.39311   0.40014   0.42721

 Mulliken charges:
               1
     1  C    0.052950
     2  O   -0.328698
     3  H    0.041222
     4  H    0.046907
     5  H    0.076841
     6  H    0.110779
 Sum of Mulliken charges =   0.00000

 Dipole moment (field-independent basis, Debye):
    X=              0.7351    Y=             -1.2582    Z=              0.1193  Tot=              1.4621
 Quadrupole moment (field-independent basis, Debye-Ang):
   XX=            -12.9628   YY=            -12.5877   ZZ=            -13.7154
   XY=              2.0996   XZ=             -0.0952   YZ=             -0.1137

 Normal termination of Gaussian 09 at Wed Aug 26 14:06:02 2020.
