 Gaussian 09, Revision D.01,
 Gaussian 09:  ES64L-G09RevD.01 24-Apr-2013

 --------------------
 #p B2PLYPD3/Def2QZVP
 --------------------

 --------
 methanol
 --------
 Symbolic Z-matrix:
 Charge =  0 Multiplicity = 1

                         Standard orientation:
 ---------------------------------------------------------------------
 Center     Atomic      Atomic             Coordinates (Angstroms)
 Number     Number       Type             X           Y           Z
 ---------------------------------------------------------------------
      1          6           0       -0.660585    0.017263    0.011505
      2          8           0        0.738076   -0.136285   -0.013020
      3          1           0       -1.038281    0.615064   -0.842102
      4          1           0       -0.970576    0.501867    0.865905
      5          1           0       -1.099750   -0.948670   -0.033232
      6          1           0        1.167513    0.818442    0.044554
 ---------------------------------------------------------------------

 SCF Done:  E(RB2PLYPD3) =  -115.542083875     A.U. after   11 cycles
 E2(B2PLYPD3) =    -0.1484023005D+00 E(B2PLYPD3) =    -0.11569048617504D+03

 The electronic state is 1-A.
 Alpha  occ. eigenvalues --  -19.73143 -10.64556  -1.14938  -0.78572  -0.58033
 Alpha  occ. eigenvalues --   -0.51831  -0.50147  -0.40945  -0.34955
 Alpha virt. eigenvalues --    0.04266   0.08017   0.12545   0.12612   0.14996
 Alpha virt. eigenvalues --    0.17462   0.17981   0.29239   0.31743   0.33209
 Alpha virt. eigenvalues --    0.34377   0.39281   0.39929   0.41277   0.44436

 Mulliken charges:
               1
     1  C    0.079293
     2  O   -0.478345
     3  H    0.037328
     4  H    0.046183
     5  H    0.070178
     6  H    0.245363
 Sum of Mulliken charges =   0.00000

 Dipole moment (field-independent basis, Debye):
    X=             -0.8245    Y=              1.5754    Z=              0.1699  Tot=              1.7862
 Quadrupole moment (field-independent basis, Debye-Ang):
   XX=            -12.9491   YY=            -12.0473   ZZ=            -13.8946
   XY=              2.3916   XZ=              0.0960   YZ=              0.1270

 Normal termination of Gaussian 09 at Thu Aug 27 00:07:13 2020.
