 Gaussian 09, Revision D.01,
 Gaussian 09:  ES64L-G09RevD.01 24-Apr-2013

 --------------------
 #p B2PLYPD3/Def2QZVP
 --------------------

 --------
 methanol
 --------
 Symbolic Z-matrix:
 Charge =  0 Multiplicity = 1

                         Standard orientation:
 ---------------------------------------------------------------------
 Center     Atomic      Atomic             Coordinates (Angstroms)
 Number     Number       Type             X           Y           Z
 ---------------------------------------------------------------------
      1          6           0        0.665190    0.032169    0.000167
      2          8           0       -0.736637   -0.158847    0.002369
      3          1           0        1.101738    0.472071    0.833422
      4          1           0        0.956373    0.603378   -0.811442
      5          1           0        1.121813   -0.899538   -0.076035
      6          1           0       -1.277967    0.901848    0.034101
 ---------------------------------------------------------------------

 SCF Done:  E(RB2PLYPD3) =  -115.510215046     A.U. after   11 cycles
 E2(B2PLYPD3) =    -0.1510360774D+00 E(B2PLYPD3) =    -0.11566125112346D+03

 The electronic state is 1-A.
 Alpha  occ. eigenvalues --  -19.74097 -10.63481  -1.12863  -0.78896  -0.56072
 Alpha  occ. eigenvalues --   -0.52187  -0.49644  -0.40101  -0.34996
 Alpha virt. eigenvalues --    0.02525   0.07556   0.12728   0.12894   0.14973
 Alpha virt. eigenvalues --    0.17427   0.18404   0.26645   0.29553   0.33268
 Alpha virt. eigenvalues --    0.34578   0.39392   0.39601   0.42392   0.43900

 Mulliken charges:
               1
     1  C    0.085082
     2  O   -0.495802
     3  H    0.045303
     4  H    0.043617
     5  H    0.064872
     6  H    0.256928
 Sum of Mulliken charges =   0.00000

 Dipole moment (field-independent basis, Debye):
    X=              0.7888    Y=              1.6643    Z=              0.0359  Tot=              1.8421
 Quadrupole moment (field-independent basis, Debye-Ang):
   XX=            -12.4386   YY=            -12.0357   ZZ=            -13.9903
   XY=             -2.5862   XZ=              0.0221   YZ=              0.0291

 Normal termination of Gaussian 09 at Wed Aug 26 13:43:00 2020.
