 Gaussian 09, Revision D.01,
 Gaussian 09:  ES64L-G09RevD.01 24-Apr-2013

 --------------------
 #p B2PLYPD3/Def2QZVP
 --------------------

 --------
 methanol
 --------
 Symbolic Z-matrix:
 Charge =  0 Multiplicity = 1

                         Standard orientation:
 ---------------------------------------------------------------------
 Center     Atomic      Atomic             Coordinates (Angstroms)
 Number     Number       Type             X           Y           Z
 ---------------------------------------------------------------------
      1          6           0       -0.645001    0.013355    0.009210
      2          8           0        0.736176   -0.146103   -0.004660
      3          1           0       -1.083662    0.549378   -0.829301
      4          1           0       -0.962063    0.548154    0.848012
      5          1           0       -1.108210   -0.911770   -0.009755
      6          1           0        1.134532    0.902937   -0.026936
 ---------------------------------------------------------------------

 SCF Done:  E(RB2PLYPD3) =  -115.526708680     A.U. after   11 cycles
 E2(B2PLYPD3) =    -0.1496917441D+00 E(B2PLYPD3) =    -0.11567640042409D+03

 The electronic state is 1-A.
 Alpha  occ. eigenvalues --  -19.73994 -10.63941  -1.14837  -0.78447  -0.57464
 Alpha  occ. eigenvalues --   -0.52049  -0.50232  -0.40892  -0.34835
 Alpha virt. eigenvalues --    0.03335   0.07831   0.12682   0.12719   0.15063
 Alpha virt. eigenvalues --    0.17744   0.18183   0.28328   0.29795   0.33154
 Alpha virt. eigenvalues --    0.35239   0.39111   0.40143   0.41803   0.43830

 Mulliken charges:
               1
     1  C    0.080530
     2  O   -0.473464
     3  H    0.032223
     4  H    0.040157
     5  H    0.065751
     6  H    0.254804
 Sum of Mulliken charges =   0.00000

 Dipole moment (field-independent basis, Debye):
    X=             -0.8391    Y=              1.6310    Z=              0.0023  Tot=              1.8342
 Quadrupole moment (field-independent basis, Debye-Ang):
   XX=            -13.0758   YY=            -11.8810   ZZ=            -14.0086
   XY=              2.4054   XZ=              0.0094   YZ=              0.0285

 Normal termination of Gaussian 09 at Wed Aug 26 16:34:06 2020.
