 Gaussian 09, Revision D.01,
 Gaussian 09:  ES64L-G09RevD.01 24-Apr-2013

 --------------------
 #p B2PLYPD3/Def2QZVP
 --------------------

 --------
 methanol
 --------
 Symbolic Z-matrix:
 Charge =  0 Multiplicity = 1

                         Standard orientation:
 ---------------------------------------------------------------------
 Center     Atomic      Atomic             Coordinates (Angstroms)
 Number     Number       Type             X           Y           Z
 ---------------------------------------------------------------------
      1          6           0        0.673087   -0.005135   -0.002361
      2          8           0       -0.766602    0.113138   -0.009989
      3          1           0        1.122771   -0.621052   -0.839705
      4          1           0        1.060793   -0.425771    0.957936
      5          1           0        1.028113    0.958445   -0.070886
      6          1           0       -1.117377   -0.785912    0.046736
 ---------------------------------------------------------------------

 SCF Done:  E(RB2PLYPD3) =  -115.547560561     A.U. after   10 cycles
 E2(B2PLYPD3) =    -0.1480004474D+00 E(B2PLYPD3) =    -0.11569556100792D+03

 The electronic state is 1-A.
 Alpha  occ. eigenvalues --  -19.72952 -10.65880  -1.15484  -0.78881  -0.58183
 Alpha  occ. eigenvalues --   -0.50578  -0.49966  -0.41902  -0.35464
 Alpha virt. eigenvalues --    0.04918   0.07993   0.12192   0.12577   0.14875
 Alpha virt. eigenvalues --    0.17126   0.18343   0.28898   0.32463   0.33561
 Alpha virt. eigenvalues --    0.34952   0.37967   0.39668   0.40395   0.44070

 Mulliken charges:
               1
     1  C    0.064945
     2  O   -0.460725
     3  H    0.045547
     4  H    0.047197
     5  H    0.077390
     6  H    0.225647
 Sum of Mulliken charges =   0.00000

 Dipole moment (field-independent basis, Debye):
    X=              0.9910    Y=             -1.4468    Z=              0.1059  Tot=              1.7568
 Quadrupole moment (field-independent basis, Debye-Ang):
   XX=            -13.1015   YY=            -12.1465   ZZ=            -13.8675
   XY=              2.2128   XZ=             -0.1724   YZ=             -0.0650

 Normal termination of Gaussian 09 at Wed Aug 26 13:58:35 2020.
