 Gaussian 09, Revision D.01,
 Gaussian 09:  ES64L-G09RevD.01 24-Apr-2013

 --------------------
 #p B2PLYPD3/Def2QZVP
 --------------------

 --------
 methanol
 --------
 Symbolic Z-matrix:
 Charge =  0 Multiplicity = 1

                         Standard orientation:
 ---------------------------------------------------------------------
 Center     Atomic      Atomic             Coordinates (Angstroms)
 Number     Number       Type             X           Y           Z
 ---------------------------------------------------------------------
      1          6           0        0.677516   -0.012645   -0.000068
      2          8           0       -0.755304    0.097484   -0.001399
      3          1           0        0.995803   -0.629874   -0.894099
      4          1           0        1.080863   -0.464073    0.948459
      5          1           0        1.019186    1.031684   -0.089260
      6          1           0       -1.118515   -0.641741    0.046501
 ---------------------------------------------------------------------

 SCF Done:  E(RB2PLYPD3) =  -115.528356363     A.U. after   10 cycles
 E2(B2PLYPD3) =    -0.1454888876D+00 E(B2PLYPD3) =    -0.11567384525028D+03

 The electronic state is 1-A.
 Alpha  occ. eigenvalues --  -19.71028 -10.66987  -1.18966  -0.79658  -0.59961
 Alpha  occ. eigenvalues --   -0.51369  -0.49808  -0.41366  -0.35680
 Alpha virt. eigenvalues --    0.05378   0.08716   0.12064   0.12192   0.14693
 Alpha virt. eigenvalues --    0.16861   0.17924   0.29002   0.32343   0.33320
 Alpha virt. eigenvalues --    0.37552   0.38998   0.39721   0.40043   0.42767

 Mulliken charges:
               1
     1  C    0.062792
     2  O   -0.387221
     3  H    0.050084
     4  H    0.052660
     5  H    0.079212
     6  H    0.142472
 Sum of Mulliken charges =   0.00000

 Dipole moment (field-independent basis, Debye):
    X=              0.9434    Y=             -1.3481    Z=              0.0887  Tot=              1.6478
 Quadrupole moment (field-independent basis, Debye-Ang):
   XX=            -13.1272   YY=            -12.3268   ZZ=            -13.6523
   XY=              2.0627   XZ=             -0.0483   YZ=             -0.0712

 Normal termination of Gaussian 09 at Wed Aug 26 13:00:54 2020.
