 Gaussian 09, Revision D.01,
 Gaussian 09:  ES64L-G09RevD.01 24-Apr-2013

 --------------------
 #p B2PLYPD3/Def2QZVP
 --------------------

 --------
 methanol
 --------
 Symbolic Z-matrix:
 Charge =  0 Multiplicity = 1

                         Standard orientation:
 ---------------------------------------------------------------------
 Center     Atomic      Atomic             Coordinates (Angstroms)
 Number     Number       Type             X           Y           Z
 ---------------------------------------------------------------------
      1          6           0        0.689261    0.025541    0.014069
      2          8           0       -0.714434   -0.183317   -0.004951
      3          1           0        1.054735    0.373998    0.883443
      4          1           0        0.878243    0.689124   -0.811060
      5          1           0        1.037351   -0.743569   -0.193143
      6          1           0       -1.390424    0.993735    0.075959
 ---------------------------------------------------------------------

 SCF Done:  E(RB2PLYPD3) =  -115.423558184     A.U. after   11 cycles
 E2(B2PLYPD3) =    -0.1541872489D+00 E(B2PLYPD3) =    -0.11557774543333D+03

 The electronic state is 1-A.
 Alpha  occ. eigenvalues --  -19.74237 -10.61604  -1.11564  -0.80236  -0.55907
 Alpha  occ. eigenvalues --   -0.52646  -0.49857  -0.38908  -0.34513
 Alpha virt. eigenvalues --   -0.00424   0.07643   0.12620   0.13209   0.14479
 Alpha virt. eigenvalues --    0.17130   0.18398   0.23062   0.29427   0.32973
 Alpha virt. eigenvalues --    0.34230   0.37732   0.42107   0.43065   0.44152

 Mulliken charges:
               1
     1  C    0.045471
     2  O   -0.502607
     3  H    0.054802
     4  H    0.042825
     5  H    0.111842
     6  H    0.247666
 Sum of Mulliken charges =   0.00000

 Dipole moment (field-independent basis, Debye):
    X=              0.7990    Y=              1.5919    Z=              0.1125  Tot=              1.7847
 Quadrupole moment (field-independent basis, Debye-Ang):
   XX=            -12.2548   YY=            -11.9532   ZZ=            -13.7362
   XY=             -2.9020   XZ=             -0.0415   YZ=              0.1925

 Normal termination of Gaussian 09 at Wed Aug 26 19:56:18 2020.
