 Gaussian 09, Revision D.01,
 Gaussian 09:  ES64L-G09RevD.01 24-Apr-2013

 --------------------
 #p B2PLYPD3/Def2QZVP
 --------------------

 --------
 methanol
 --------
 Symbolic Z-matrix:
 Charge =  0 Multiplicity = 1

                         Standard orientation:
 ---------------------------------------------------------------------
 Center     Atomic      Atomic             Coordinates (Angstroms)
 Number     Number       Type             X           Y           Z
 ---------------------------------------------------------------------
      1          6           0        0.626741    0.006026    0.007625
      2          8           0       -0.725655   -0.175200   -0.008871
      3          1           0        1.116963    0.385400    0.836402
      4          1           0        0.902239    0.688408   -0.807882
      5          1           0        1.174482   -0.755913   -0.124515
      6          1           0       -1.148896    1.047543    0.121209
 ---------------------------------------------------------------------

 SCF Done:  E(RB2PLYPD3) =  -115.461797005     A.U. after   11 cycles
 E2(B2PLYPD3) =    -0.1529855178D+00 E(B2PLYPD3) =    -0.11561478252263D+03

 The electronic state is 1-A.
 Alpha  occ. eigenvalues --  -19.75197 -10.62645  -1.14471  -0.79442  -0.55381
 Alpha  occ. eigenvalues --   -0.52842  -0.51024  -0.39441  -0.34441
 Alpha virt. eigenvalues --    0.00050   0.07503   0.12653   0.13145   0.14775
 Alpha virt. eigenvalues --    0.18329   0.18802   0.23661   0.29514   0.32716
 Alpha virt. eigenvalues --    0.35188   0.39207   0.40280   0.43206   0.43506

 Mulliken charges:
               1
     1  C    0.080960
     2  O   -0.461424
     3  H    0.032435
     4  H    0.023498
     5  H    0.062105
     6  H    0.262427
 Sum of Mulliken charges =   0.00000

 Dipole moment (field-independent basis, Debye):
    X=              0.8232    Y=              1.6512    Z=              0.2261  Tot=              1.8588
 Quadrupole moment (field-independent basis, Debye-Ang):
   XX=            -12.9979   YY=            -11.7502   ZZ=            -14.0868
   XY=             -2.6965   XZ=             -0.0485   YZ=              0.2025

 Normal termination of Gaussian 09 at Wed Aug 26 23:28:45 2020.
