 Gaussian 09, Revision D.01,
 Gaussian 09:  ES64L-G09RevD.01 24-Apr-2013

 --------------------
 #p B2PLYPD3/Def2QZVP
 --------------------

 --------
 methanol
 --------
 Symbolic Z-matrix:
 Charge =  0 Multiplicity = 1

                         Standard orientation:
 ---------------------------------------------------------------------
 Center     Atomic      Atomic             Coordinates (Angstroms)
 Number     Number       Type             X           Y           Z
 ---------------------------------------------------------------------
      1          6           0       -0.674683   -0.005469    0.009027
      2          8           0        0.756221    0.109519   -0.018175
      3          1           0       -1.051211   -0.378008    0.977523
      4          1           0       -1.051402   -0.737989   -0.826518
      5          1           0       -1.104683    0.946507   -0.163237
      6          1           0        1.205623   -0.673848    0.103473
 ---------------------------------------------------------------------

 SCF Done:  E(RB2PLYPD3) =  -115.545751240     A.U. after   11 cycles
 E2(B2PLYPD3) =    -0.1467533016D+00 E(B2PLYPD3) =    -0.11569250454205D+03

 The electronic state is 1-A.
 Alpha  occ. eigenvalues --  -19.72032 -10.66687  -1.16417  -0.79225  -0.58954
 Alpha  occ. eigenvalues --   -0.50808  -0.50499  -0.40671  -0.35250
 Alpha virt. eigenvalues --    0.05199   0.08154   0.12121   0.12591   0.14651
 Alpha virt. eigenvalues --    0.17255   0.18065   0.29111   0.32520   0.33140
 Alpha virt. eigenvalues --    0.35896   0.38314   0.39867   0.40471   0.43386

 Mulliken charges:
               1
     1  C    0.070862
     2  O   -0.451008
     3  H    0.051735
     4  H    0.038319
     5  H    0.082304
     6  H    0.207789
 Sum of Mulliken charges =   0.00000

 Dipole moment (field-independent basis, Debye):
    X=             -0.8267    Y=             -1.3392    Z=              0.2757  Tot=              1.5977
 Quadrupole moment (field-independent basis, Debye-Ang):
   XX=            -12.6466   YY=            -12.4956   ZZ=            -13.8118
   XY=             -2.3634   XZ=              0.2762   YZ=             -0.2116

 Normal termination of Gaussian 09 at Wed Aug 26 16:57:53 2020.
