 Gaussian 09, Revision D.01,
 Gaussian 09:  ES64L-G09RevD.01 24-Apr-2013

 --------------------
 #p B2PLYPD3/Def2QZVP
 --------------------

 --------
 methanol
 --------
 Symbolic Z-matrix:
 Charge =  0 Multiplicity = 1

                         Standard orientation:
 ---------------------------------------------------------------------
 Center     Atomic      Atomic             Coordinates (Angstroms)
 Number     Number       Type             X           Y           Z
 ---------------------------------------------------------------------
      1          6           0        0.673142    0.019072   -0.005648
      2          8           0       -0.741666   -0.147935   -0.003619
      3          1           0        1.001448    0.458700    0.901102
      4          1           0        0.979305    0.621195   -0.809300
      5          1           0        1.095703   -0.893585   -0.062676
      6          1           0       -1.181984    0.882732    0.033708
 ---------------------------------------------------------------------

 SCF Done:  E(RB2PLYPD3) =  -115.526193801     A.U. after   11 cycles
 E2(B2PLYPD3) =    -0.1497683095D+00 E(B2PLYPD3) =    -0.11567596211098D+03

 The electronic state is 1-A.
 Alpha  occ. eigenvalues --  -19.73469 -10.63666  -1.13314  -0.78967  -0.56632
 Alpha  occ. eigenvalues --   -0.52196  -0.50088  -0.40850  -0.34948
 Alpha virt. eigenvalues --    0.03525   0.07889   0.12540   0.12812   0.14766
 Alpha virt. eigenvalues --    0.17474   0.18095   0.28653   0.29903   0.33292
 Alpha virt. eigenvalues --    0.33748   0.39315   0.41051   0.41842   0.43731

 Mulliken charges:
               1
     1  C    0.086755
     2  O   -0.496412
     3  H    0.044345
     4  H    0.043626
     5  H    0.070131
     6  H    0.251555
 Sum of Mulliken charges =   0.00000

 Dipole moment (field-independent basis, Debye):
    X=              0.9319    Y=              1.6125    Z=              0.0490  Tot=              1.8631
 Quadrupole moment (field-independent basis, Debye-Ang):
   XX=            -12.9434   YY=            -11.9216   ZZ=            -13.8276
   XY=             -2.4969   XZ=             -0.0863   YZ=              0.0140

 Normal termination of Gaussian 09 at Wed Aug 26 10:15:53 2020.
