 Gaussian 09, Revision D.01,
 Gaussian 09:  ES64L-G09RevD.01 24-Apr-2013

 --------------------
 #p B2PLYPD3/Def2QZVP
 --------------------

 --------
 methanol
 --------
 Symbolic Z-matrix:
 Charge =  0 Multiplicity = 1

                         Standard orientation:
 ---------------------------------------------------------------------
 Center     Atomic      Atomic             Coordinates (Angstroms)
 Number     Number       Type             X           Y           Z
 ---------------------------------------------------------------------
      1          6           0        0.660417   -0.023176   -0.002438
      2          8           0       -0.751613    0.094725    0.001199
      3          1           0        1.036376   -0.577644   -0.907501
      4          1           0        1.089428   -0.500474    0.937672
      5          1           0        1.047087    1.069769   -0.042569
      6          1           0       -1.122483   -0.610390    0.017434
 ---------------------------------------------------------------------

 SCF Done:  E(RB2PLYPD3) =  -115.512493606     A.U. after   10 cycles
 E2(B2PLYPD3) =    -0.1451272466D+00 E(B2PLYPD3) =    -0.11565762085292D+03

 The electronic state is 1-A.
 Alpha  occ. eigenvalues --  -19.71099 -10.67565  -1.20607  -0.79775  -0.60935
 Alpha  occ. eigenvalues --   -0.51488  -0.49620  -0.40780  -0.35930
 Alpha virt. eigenvalues --    0.05383   0.08748   0.11964   0.12139   0.14819
 Alpha virt. eigenvalues --    0.16926   0.18115   0.28875   0.33102   0.33420
 Alpha virt. eigenvalues --    0.36828   0.38719   0.39712   0.39972   0.42261

 Mulliken charges:
               1
     1  C    0.053387
     2  O   -0.345100
     3  H    0.052837
     4  H    0.051704
     5  H    0.070238
     6  H    0.116935
 Sum of Mulliken charges =   0.00000

 Dipole moment (field-independent basis, Debye):
    X=              0.8330    Y=             -1.3484    Z=              0.0173  Tot=              1.5850
 Quadrupole moment (field-independent basis, Debye-Ang):
   XX=            -13.0111   YY=            -12.5010   ZZ=            -13.6964
   XY=              1.9800   XZ=             -0.0148   YZ=             -0.0045

 Normal termination of Gaussian 09 at Wed Aug 26 10:28:30 2020.
