 Gaussian 09, Revision D.01,
 Gaussian 09:  ES64L-G09RevD.01 24-Apr-2013

 --------------------
 #p B2PLYPD3/Def2QZVP
 --------------------

 --------
 methanol
 --------
 Symbolic Z-matrix:
 Charge =  0 Multiplicity = 1

                         Standard orientation:
 ---------------------------------------------------------------------
 Center     Atomic      Atomic             Coordinates (Angstroms)
 Number     Number       Type             X           Y           Z
 ---------------------------------------------------------------------
      1          6           0       -0.702044   -0.007245    0.005474
      2          8           0        0.765954   -0.009152    0.051849
      3          1           0       -1.004222   -0.905555   -0.771856
      4          1           0       -0.982175    1.174377   -0.401932
      5          1           0       -1.070066   -0.200449    1.037079
      6          1           0        1.141096    0.048315   -0.310924
 ---------------------------------------------------------------------

 SCF Done:  E(RB2PLYPD3) =  -114.892834435     A.U. after   12 cycles
 E2(B2PLYPD3) =    -0.1439337928D+00 E(B2PLYPD3) =    -0.11503676822745D+03

 The electronic state is 1-A.
 Alpha  occ. eigenvalues --  -19.67266 -10.71533  -1.30170  -0.84502  -0.61160
 Alpha  occ. eigenvalues --   -0.51527  -0.50074  -0.39158  -0.35941
 Alpha virt. eigenvalues --    0.04720   0.09728   0.10586   0.11836   0.13073
 Alpha virt. eigenvalues --    0.16557   0.17254   0.28166   0.28999   0.31776
 Alpha virt. eigenvalues --    0.33876   0.36026   0.37620   0.41774   0.42681

 Mulliken charges:
               1
     1  C    0.063029
     2  O   -0.114664
     3  H    0.061474
     4  H    0.055063
     5  H    0.111609
     6  H   -0.176511
 Sum of Mulliken charges =   0.00000

 Dipole moment (field-independent basis, Debye):
    X=             -1.1423    Y=              0.0678    Z=             -0.8178  Tot=              1.4065
 Quadrupole moment (field-independent basis, Debye-Ang):
   XX=            -12.9140   YY=            -13.1741   ZZ=            -12.7114
   XY=              0.4118   XZ=             -1.8544   YZ=             -0.0719

 Normal termination of Gaussian 09 at Wed Aug 26 23:51:32 2020.
