 Gaussian 09, Revision D.01,
 Gaussian 09:  ES64L-G09RevD.01 24-Apr-2013

 --------------------
 #p B2PLYPD3/Def2QZVP
 --------------------

 --------
 methanol
 --------
 Symbolic Z-matrix:
 Charge =  0 Multiplicity = 1

                         Standard orientation:
 ---------------------------------------------------------------------
 Center     Atomic      Atomic             Coordinates (Angstroms)
 Number     Number       Type             X           Y           Z
 ---------------------------------------------------------------------
      1          6           0        0.686066    0.027476    0.029623
      2          8           0       -0.739923   -0.164507   -0.022677
      3          1           0        0.886548    0.386395    0.874095
      4          1           0        1.120550    0.629088   -0.785187
      5          1           0        1.052356   -0.850579   -0.111894
      6          1           0       -1.256467    0.986295    0.026669
 ---------------------------------------------------------------------

 SCF Done:  E(RB2PLYPD3) =  -115.468178088     A.U. after   11 cycles
 E2(B2PLYPD3) =    -0.1527676967D+00 E(B2PLYPD3) =    -0.11562094578463D+03

 The electronic state is 1-A.
 Alpha  occ. eigenvalues --  -19.74230 -10.62353  -1.11605  -0.79867  -0.56462
 Alpha  occ. eigenvalues --   -0.52643  -0.48684  -0.40113  -0.35106
 Alpha virt. eigenvalues --    0.01521   0.07595   0.12658   0.12784   0.14692
 Alpha virt. eigenvalues --    0.17164   0.18416   0.25051   0.29396   0.32625
 Alpha virt. eigenvalues --    0.34063   0.38287   0.40252   0.42426   0.45039

 Mulliken charges:
               1
     1  C    0.083580
     2  O   -0.505655
     3  H    0.060768
     4  H    0.041129
     5  H    0.071224
     6  H    0.248954
 Sum of Mulliken charges =   0.00000

 Dipole moment (field-independent basis, Debye):
    X=              0.9835    Y=              1.6246    Z=              0.1723  Tot=              1.9069
 Quadrupole moment (field-independent basis, Debye-Ang):
   XX=            -12.7604   YY=            -11.8159   ZZ=            -13.7698
   XY=             -2.5996   XZ=             -0.1870   YZ=              0.1675

 Normal termination of Gaussian 09 at Wed Aug 26 22:01:48 2020.
