 Gaussian 09, Revision D.01,
 Gaussian 09:  ES64L-G09RevD.01 24-Apr-2013

 --------------------
 #p B2PLYPD3/Def2QZVP
 --------------------

 --------
 methanol
 --------
 Symbolic Z-matrix:
 Charge =  0 Multiplicity = 1

                         Standard orientation:
 ---------------------------------------------------------------------
 Center     Atomic      Atomic             Coordinates (Angstroms)
 Number     Number       Type             X           Y           Z
 ---------------------------------------------------------------------
      1          6           0        0.652068   -0.027137    0.012615
      2          8           0       -0.759593    0.088748   -0.002553
      3          1           0        0.996461   -0.730381   -0.856927
      4          1           0        1.094215   -0.346024    0.998930
      5          1           0        1.107672    1.073517   -0.237193
      6          1           0       -1.034010   -0.544275    0.039928
 ---------------------------------------------------------------------

 SCF Done:  E(RB2PLYPD3) =  -115.405617715     A.U. after   11 cycles
 E2(B2PLYPD3) =    -0.1442091451D+00 E(B2PLYPD3) =    -0.11554982685996D+03

 The electronic state is 1-A.
 Alpha  occ. eigenvalues --  -19.70219 -10.68685  -1.25409  -0.80475  -0.61997
 Alpha  occ. eigenvalues --   -0.51983  -0.49717  -0.40816  -0.36532
 Alpha virt. eigenvalues --    0.05254   0.09121   0.11540   0.11914   0.14486
 Alpha virt. eigenvalues --    0.17187   0.18012   0.28416   0.32505   0.33161
 Alpha virt. eigenvalues --    0.35177   0.37751   0.39402   0.40384   0.43129

 Mulliken charges:
               1
     1  C    0.046016
     2  O   -0.236070
     3  H    0.047222
     4  H    0.061895
     5  H    0.063544
     6  H    0.017393
 Sum of Mulliken charges =   0.00000

 Dipole moment (field-independent basis, Debye):
    X=              0.9665    Y=             -1.2836    Z=              0.1187  Tot=              1.6111
 Quadrupole moment (field-independent basis, Debye-Ang):
   XX=            -13.3017   YY=            -12.6149   ZZ=            -13.5320
   XY=              1.8401   XZ=             -0.0180   YZ=             -0.0855

 Normal termination of Gaussian 09 at Wed Aug 26 12:07:09 2020.
