 Gaussian 09, Revision D.01,
 Gaussian 09:  ES64L-G09RevD.01 24-Apr-2013

 --------------------
 #p B2PLYPD3/Def2QZVP
 --------------------

 --------
 methanol
 --------
 Symbolic Z-matrix:
 Charge =  0 Multiplicity = 1

                         Standard orientation:
 ---------------------------------------------------------------------
 Center     Atomic      Atomic             Coordinates (Angstroms)
 Number     Number       Type             X           Y           Z
 ---------------------------------------------------------------------
      1          6           0        0.675227    0.014777   -0.003908
      2          8           0       -0.752313   -0.135335    0.004655
      3          1           0        1.076335    0.516946    0.869417
      4          1           0        0.999442    0.546043   -0.861877
      5          1           0        1.047925   -0.932781   -0.025046
      6          1           0       -1.156558    0.863809    0.003710
 ---------------------------------------------------------------------

 SCF Done:  E(RB2PLYPD3) =  -115.536228161     A.U. after   11 cycles
 E2(B2PLYPD3) =    -0.1493904513D+00 E(B2PLYPD3) =    -0.11568561861178D+03

 The electronic state is 1-A.
 Alpha  occ. eigenvalues --  -19.73429 -10.64332  -1.13650  -0.78898  -0.57129
 Alpha  occ. eigenvalues --   -0.51633  -0.49635  -0.41374  -0.35191
 Alpha virt. eigenvalues --    0.04052   0.07892   0.12528   0.12621   0.14891
 Alpha virt. eigenvalues --    0.17231   0.18214   0.28974   0.31010   0.33240
 Alpha virt. eigenvalues --    0.33686   0.38911   0.40305   0.41310   0.43905

 Mulliken charges:
               1
     1  C    0.078148
     2  O   -0.489488
     3  H    0.045426
     4  H    0.046761
     5  H    0.072521
     6  H    0.246633
 Sum of Mulliken charges =   0.00000

 Dipole moment (field-independent basis, Debye):
    X=              0.9709    Y=              1.5769    Z=             -0.0289  Tot=              1.8521
 Quadrupole moment (field-independent basis, Debye-Ang):
   XX=            -13.0332   YY=            -11.9416   ZZ=            -13.8579
   XY=             -2.3526   XZ=              0.0315   YZ=             -0.0143

 Normal termination of Gaussian 09 at Thu Aug 27 01:15:27 2020.
