 Gaussian 09, Revision D.01,
 Gaussian 09:  ES64L-G09RevD.01 24-Apr-2013

 --------------------
 #p B2PLYPD3/Def2QZVP
 --------------------

 --------
 methanol
 --------
 Symbolic Z-matrix:
 Charge =  0 Multiplicity = 1

                         Standard orientation:
 ---------------------------------------------------------------------
 Center     Atomic      Atomic             Coordinates (Angstroms)
 Number     Number       Type             X           Y           Z
 ---------------------------------------------------------------------
      1          6           0       -0.650343   -0.014920    0.000489
      2          8           0        0.734553   -0.000782    0.074735
      3          1           0       -1.048177   -0.952301   -0.603054
      4          1           0       -0.930179    1.109787   -0.515137
      5          1           0       -1.038075   -0.021540    1.003628
      6          1           0        1.042066   -0.040171   -0.486249
 ---------------------------------------------------------------------

 SCF Done:  E(RB2PLYPD3) =  -115.309924432     A.U. after   11 cycles
 E2(B2PLYPD3) =    -0.1432541178D+00 E(B2PLYPD3) =    -0.11545317855006D+03

 The electronic state is 1-A.
 Alpha  occ. eigenvalues --  -19.69230 -10.68775  -1.27807  -0.82973  -0.61727
 Alpha  occ. eigenvalues --   -0.52403  -0.51428  -0.41039  -0.35281
 Alpha virt. eigenvalues --    0.05203   0.09498   0.11102   0.12367   0.13991
 Alpha virt. eigenvalues --    0.16886   0.17817   0.28127   0.31606   0.33454
 Alpha virt. eigenvalues --    0.35572   0.37682   0.40500   0.41513   0.43209

 Mulliken charges:
               1
     1  C    0.041592
     2  O   -0.181163
     3  H    0.046604
     4  H    0.029525
     5  H    0.092824
     6  H   -0.029382
 Sum of Mulliken charges =   0.00000

 Dipole moment (field-independent basis, Debye):
    X=             -0.7964    Y=             -0.2105    Z=             -1.0019  Tot=              1.2971
 Quadrupole moment (field-independent basis, Debye-Ang):
   XX=            -13.4064   YY=            -13.4240   ZZ=            -12.6323
   XY=              0.1867   XZ=             -2.0367   YZ=              0.1848

 Normal termination of Gaussian 09 at Wed Aug 26 21:27:17 2020.
