 Gaussian 09, Revision D.01,
 Gaussian 09:  ES64L-G09RevD.01 24-Apr-2013

 --------------------
 #p B2PLYPD3/Def2QZVP
 --------------------

 --------
 methanol
 --------
 Symbolic Z-matrix:
 Charge =  0 Multiplicity = 1

                         Standard orientation:
 ---------------------------------------------------------------------
 Center     Atomic      Atomic             Coordinates (Angstroms)
 Number     Number       Type             X           Y           Z
 ---------------------------------------------------------------------
      1          6           0        0.661556    0.021553    0.014476
      2          8           0       -0.746353   -0.130146   -0.020992
      3          1           0        1.029416    0.367807    0.919070
      4          1           0        1.080685    0.665751   -0.825578
      5          1           0        1.062835   -0.941372   -0.112455
      6          1           0       -1.171451    0.819666    0.100040
 ---------------------------------------------------------------------

 SCF Done:  E(RB2PLYPD3) =  -115.540721713     A.U. after   11 cycles
 E2(B2PLYPD3) =    -0.1487884996D+00 E(B2PLYPD3) =    -0.11568951021253D+03

 The electronic state is 1-A.
 Alpha  occ. eigenvalues --  -19.73422 -10.64891  -1.14754  -0.78617  -0.57699
 Alpha  occ. eigenvalues --   -0.51597  -0.49885  -0.40834  -0.35302
 Alpha virt. eigenvalues --    0.04336   0.07873   0.12404   0.12671   0.14947
 Alpha virt. eigenvalues --    0.17218   0.18481   0.28946   0.31815   0.33503
 Alpha virt. eigenvalues --    0.34166   0.38272   0.39957   0.41194   0.44262

 Mulliken charges:
               1
     1  C    0.069543
     2  O   -0.475107
     3  H    0.052711
     4  H    0.039338
     5  H    0.068015
     6  H    0.245499
 Sum of Mulliken charges =   0.00000

 Dipole moment (field-independent basis, Debye):
    X=              0.8368    Y=              1.5119    Z=              0.2894  Tot=              1.7521
 Quadrupole moment (field-independent basis, Debye-Ang):
   XX=            -12.9106   YY=            -12.2034   ZZ=            -13.8209
   XY=             -2.3629   XZ=             -0.2088   YZ=              0.1955

 Normal termination of Gaussian 09 at Wed Aug 26 09:50:06 2020.
