 Gaussian 09, Revision D.01,
 Gaussian 09:  ES64L-G09RevD.01 24-Apr-2013

 --------------------
 #p B2PLYPD3/Def2QZVP
 --------------------

 --------
 methanol
 --------
 Symbolic Z-matrix:
 Charge =  0 Multiplicity = 1

                         Standard orientation:
 ---------------------------------------------------------------------
 Center     Atomic      Atomic             Coordinates (Angstroms)
 Number     Number       Type             X           Y           Z
 ---------------------------------------------------------------------
      1          6           0        0.670956   -0.028843    0.018926
      2          8           0       -0.752536    0.091683   -0.019480
      3          1           0        0.968084   -0.868322   -0.739129
      4          1           0        1.022920   -0.207529    0.993801
      5          1           0        1.083378    1.052862   -0.334618
      6          1           0       -1.079835   -0.537414    0.122232
 ---------------------------------------------------------------------

 SCF Done:  E(RB2PLYPD3) =  -115.445772679     A.U. after   11 cycles
 E2(B2PLYPD3) =    -0.1442276992D+00 E(B2PLYPD3) =    -0.11559000037822D+03

 The electronic state is 1-A.
 Alpha  occ. eigenvalues --  -19.69860 -10.67844  -1.23023  -0.80745  -0.61507
 Alpha  occ. eigenvalues --   -0.52516  -0.49112  -0.40755  -0.36295
 Alpha virt. eigenvalues --    0.05287   0.09198   0.11502   0.12081   0.14524
 Alpha virt. eigenvalues --    0.16905   0.17800   0.28778   0.32048   0.33134
 Alpha virt. eigenvalues --    0.35545   0.37672   0.40393   0.42068   0.42631

 Mulliken charges:
               1
     1  C    0.057766
     2  O   -0.277883
     3  H    0.047387
     4  H    0.067015
     5  H    0.067363
     6  H    0.038352
 Sum of Mulliken charges =   0.00000

 Dipole moment (field-independent basis, Debye):
    X=              0.9625    Y=             -1.2818    Z=              0.3879  Tot=              1.6492
 Quadrupole moment (field-independent basis, Debye-Ang):
   XX=            -13.2387   YY=            -12.4889   ZZ=            -13.4614
   XY=              1.8954   XZ=             -0.2473   YZ=             -0.1779

 Normal termination of Gaussian 09 at Wed Aug 26 12:44:15 2020.
