 Gaussian 09, Revision D.01,
 Gaussian 09:  ES64L-G09RevD.01 24-Apr-2013

 --------------------
 #p B2PLYPD3/Def2QZVP
 --------------------

 --------
 methanol
 --------
 Symbolic Z-matrix:
 Charge =  0 Multiplicity = 1

                         Standard orientation:
 ---------------------------------------------------------------------
 Center     Atomic      Atomic             Coordinates (Angstroms)
 Number     Number       Type             X           Y           Z
 ---------------------------------------------------------------------
      1          6           0       -0.671364   -0.029877    0.007081
      2          8           0        0.744073    0.132591    0.001171
      3          1           0       -1.002428   -0.512182    0.847616
      4          1           0       -1.059075   -0.549823   -0.818518
      5          1           0       -1.011112    1.024687   -0.045063
      6          1           0        1.148216   -0.844151   -0.035889
 ---------------------------------------------------------------------

 SCF Done:  E(RB2PLYPD3) =  -115.537700309     A.U. after   10 cycles
 E2(B2PLYPD3) =    -0.1490115880D+00 E(B2PLYPD3) =    -0.11568671189703D+03

 The electronic state is 1-A.
 Alpha  occ. eigenvalues --  -19.73251 -10.64449  -1.14322  -0.78658  -0.58044
 Alpha  occ. eigenvalues --   -0.52505  -0.48397  -0.41110  -0.35399
 Alpha virt. eigenvalues --    0.04232   0.08045   0.12074   0.12734   0.15212
 Alpha virt. eigenvalues --    0.16969   0.18100   0.29069   0.31647   0.33694
 Alpha virt. eigenvalues --    0.34079   0.37838   0.39658   0.42349   0.44677

 Mulliken charges:
               1
     1  C    0.075916
     2  O   -0.479541
     3  H    0.052400
     4  H    0.046179
     5  H    0.065224
     6  H    0.239821
 Sum of Mulliken charges =   0.00000

 Dipole moment (field-independent basis, Debye):
    X=             -0.9189    Y=             -1.6486    Z=             -0.0495  Tot=              1.8880
 Quadrupole moment (field-independent basis, Debye-Ang):
   XX=            -13.1440   YY=            -11.8935   ZZ=            -13.8699
   XY=             -2.1219   XZ=             -0.0433   YZ=              0.0008

 Normal termination of Gaussian 09 at Wed Aug 26 14:17:34 2020.
