 Gaussian 09, Revision D.01,
 Gaussian 09:  ES64L-G09RevD.01 24-Apr-2013

 --------------------
 #p B2PLYPD3/Def2QZVP
 --------------------

 --------
 methanol
 --------
 Symbolic Z-matrix:
 Charge =  0 Multiplicity = 1

                         Standard orientation:
 ---------------------------------------------------------------------
 Center     Atomic      Atomic             Coordinates (Angstroms)
 Number     Number       Type             X           Y           Z
 ---------------------------------------------------------------------
      1          6           0       -0.711490   -0.003173    0.018464
      2          8           0        0.764111   -0.085536   -0.051087
      3          1           0       -1.083409    0.995173   -0.570256
      4          1           0       -0.996632   -0.037764    1.043352
      5          1           0       -0.976234   -0.848912   -0.468576
      6          1           0        1.212329    0.594832    0.293390
 ---------------------------------------------------------------------

 SCF Done:  E(RB2PLYPD3) =  -115.530290264     A.U. after   10 cycles
 E2(B2PLYPD3) =    -0.1467806085D+00 E(B2PLYPD3) =    -0.11567707087302D+03

 The electronic state is 1-A.
 Alpha  occ. eigenvalues --  -19.71054 -10.66573  -1.15538  -0.80166  -0.58136
 Alpha  occ. eigenvalues --   -0.51299  -0.50084  -0.40631  -0.35383
 Alpha virt. eigenvalues --    0.05302   0.08257   0.11705   0.12634   0.14254
 Alpha virt. eigenvalues --    0.16549   0.18116   0.28626   0.31032   0.32911
 Alpha virt. eigenvalues --    0.35791   0.38921   0.40119   0.40767   0.44497

 Mulliken charges:
               1
     1  C    0.073005
     2  O   -0.461580
     3  H    0.044634
     4  H    0.067031
     5  H    0.089438
     6  H    0.187472
 Sum of Mulliken charges =   0.00000

 Dipole moment (field-independent basis, Debye):
    X=             -0.9918    Y=              1.1105    Z=              0.7015  Tot=              1.6459
 Quadrupole moment (field-independent basis, Debye-Ang):
   XX=            -12.8305   YY=            -12.6013   ZZ=            -13.3409
   XY=              2.0666   XZ=              0.9450   YZ=              0.4394

 Normal termination of Gaussian 09 at Wed Aug 26 20:44:10 2020.
