 Gaussian 09, Revision D.01,
 Gaussian 09:  ES64L-G09RevD.01 24-Apr-2013

 --------------------
 #p B2PLYPD3/Def2QZVP
 --------------------

 --------
 methanol
 --------
 Symbolic Z-matrix:
 Charge =  0 Multiplicity = 1

                         Standard orientation:
 ---------------------------------------------------------------------
 Center     Atomic      Atomic             Coordinates (Angstroms)
 Number     Number       Type             X           Y           Z
 ---------------------------------------------------------------------
      1          6           0        0.699980   -0.006683    0.018867
      2          8           0       -0.755673   -0.152426   -0.006967
      3          1           0        1.058426    0.422925    0.853695
      4          1           0        0.920164    0.699670   -0.832070
      5          1           0        1.026367   -0.835434   -0.160577
      6          1           0       -1.159454    0.972343    0.081487
 ---------------------------------------------------------------------

 SCF Done:  E(RB2PLYPD3) =  -115.478591264     A.U. after   11 cycles
 E2(B2PLYPD3) =    -0.1520482072D+00 E(B2PLYPD3) =    -0.11563063947083D+03

 The electronic state is 1-A.
 Alpha  occ. eigenvalues --  -19.73887 -10.63161  -1.11430  -0.80037  -0.57092
 Alpha  occ. eigenvalues --   -0.51171  -0.49405  -0.41216  -0.34635
 Alpha virt. eigenvalues --    0.02407   0.07750   0.12335   0.12792   0.14429
 Alpha virt. eigenvalues --    0.17333   0.17937   0.26646   0.29495   0.31865
 Alpha virt. eigenvalues --    0.33726   0.37184   0.41469   0.42071   0.44164

 Mulliken charges:
               1
     1  C    0.076097
     2  O   -0.507056
     3  H    0.052962
     4  H    0.035388
     5  H    0.092211
     6  H    0.250398
 Sum of Mulliken charges =   0.00000

 Dipole moment (field-independent basis, Debye):
    X=              1.1252    Y=              1.6078    Z=              0.1951  Tot=              1.9721
 Quadrupole moment (field-independent basis, Debye-Ang):
   XX=            -13.2209   YY=            -11.5945   ZZ=            -13.8623
   XY=             -2.5081   XZ=              0.0251   YZ=              0.2738

 Normal termination of Gaussian 09 at Wed Aug 26 19:14:46 2020.
