 Gaussian 09, Revision D.01,
 Gaussian 09:  ES64L-G09RevD.01 24-Apr-2013

 --------------------
 #p B2PLYPD3/Def2QZVP
 --------------------

 --------
 methanol
 --------
 Symbolic Z-matrix:
 Charge =  0 Multiplicity = 1

                         Standard orientation:
 ---------------------------------------------------------------------
 Center     Atomic      Atomic             Coordinates (Angstroms)
 Number     Number       Type             X           Y           Z
 ---------------------------------------------------------------------
      1          6           0       -0.684302   -0.008559   -0.007818
      2          8           0        0.759472    0.085579    0.002735
      3          1           0       -1.076034   -0.538309    0.934139
      4          1           0       -0.992381   -0.610670   -0.901856
      5          1           0       -1.013990    1.088231   -0.032702
      6          1           0        1.112440   -0.572525    0.025445
 ---------------------------------------------------------------------

 SCF Done:  E(RB2PLYPD3) =  -115.475485994     A.U. after   10 cycles
 E2(B2PLYPD3) =    -0.1446447141D+00 E(B2PLYPD3) =    -0.11562013070856D+03

 The electronic state is 1-A.
 Alpha  occ. eigenvalues --  -19.69961 -10.67904  -1.21300  -0.80445  -0.60784
 Alpha  occ. eigenvalues --   -0.51177  -0.49508  -0.41401  -0.35832
 Alpha virt. eigenvalues --    0.05373   0.08990   0.11797   0.12011   0.14702
 Alpha virt. eigenvalues --    0.16707   0.17566   0.28959   0.31689   0.33115
 Alpha virt. eigenvalues --    0.37442   0.38506   0.39271   0.40326   0.42043

 Mulliken charges:
               1
     1  C    0.061583
     2  O   -0.311993
     3  H    0.050311
     4  H    0.055694
     5  H    0.083723
     6  H    0.060683
 Sum of Mulliken charges =   0.00000

 Dipole moment (field-independent basis, Debye):
    X=             -0.9955    Y=             -1.2950    Z=              0.0173  Tot=              1.6335
 Quadrupole moment (field-independent basis, Debye-Ang):
   XX=            -13.1534   YY=            -12.2729   ZZ=            -13.6652
   XY=             -1.9215   XZ=              0.0181   YZ=              0.0066

 Normal termination of Gaussian 09 at Wed Aug 26 12:39:33 2020.
