 Gaussian 09, Revision D.01,
 Gaussian 09:  ES64L-G09RevD.01 24-Apr-2013

 --------------------
 #p B2PLYPD3/Def2QZVP
 --------------------

 --------
 methanol
 --------
 Symbolic Z-matrix:
 Charge =  0 Multiplicity = 1

                         Standard orientation:
 ---------------------------------------------------------------------
 Center     Atomic      Atomic             Coordinates (Angstroms)
 Number     Number       Type             X           Y           Z
 ---------------------------------------------------------------------
      1          6           0        0.683307    0.015560   -0.013009
      2          8           0       -0.748505   -0.155760    0.014813
      3          1           0        1.097939    0.523686    0.868101
      4          1           0        0.988458    0.536431   -0.818850
      5          1           0        1.043901   -0.869068   -0.049476
      6          1           0       -1.242094    0.961669   -0.040222
 ---------------------------------------------------------------------

 SCF Done:  E(RB2PLYPD3) =  -115.490984821     A.U. after   11 cycles
 E2(B2PLYPD3) =    -0.1520989998D+00 E(B2PLYPD3) =    -0.11564308382096D+03

 The electronic state is 1-A.
 Alpha  occ. eigenvalues --  -19.74249 -10.63109  -1.11787  -0.79580  -0.56098
 Alpha  occ. eigenvalues --   -0.51356  -0.49536  -0.40793  -0.34979
 Alpha virt. eigenvalues --    0.02108   0.07569   0.12692   0.12814   0.14827
 Alpha virt. eigenvalues --    0.17200   0.18329   0.25976   0.29440   0.33267
 Alpha virt. eigenvalues --    0.33519   0.38666   0.40645   0.41226   0.44209

 Mulliken charges:
               1
     1  C    0.085352
     2  O   -0.504117
     3  H    0.044008
     4  H    0.046259
     5  H    0.075761
     6  H    0.252738
 Sum of Mulliken charges =   0.00000

 Dipole moment (field-independent basis, Debye):
    X=              0.9613    Y=              1.6294    Z=             -0.1773  Tot=              1.9002
 Quadrupole moment (field-independent basis, Debye-Ang):
   XX=            -12.7520   YY=            -11.7809   ZZ=            -13.9339
   XY=             -2.5485   XZ=              0.0727   YZ=             -0.1031

 Normal termination of Gaussian 09 at Wed Aug 26 11:23:14 2020.
