 Gaussian 09, Revision D.01,
 Gaussian 09:  ES64L-G09RevD.01 24-Apr-2013

 --------------------
 #p B2PLYPD3/Def2QZVP
 --------------------

 --------
 methanol
 --------
 Symbolic Z-matrix:
 Charge =  0 Multiplicity = 1

                         Standard orientation:
 ---------------------------------------------------------------------
 Center     Atomic      Atomic             Coordinates (Angstroms)
 Number     Number       Type             X           Y           Z
 ---------------------------------------------------------------------
      1          6           0       -0.673060   -0.019062   -0.009156
      2          8           0        0.752932    0.125840    0.003893
      3          1           0       -1.031474   -0.553225    0.890357
      4          1           0       -1.044497   -0.537993   -0.856111
      5          1           0       -1.077041    0.979888    0.010709
      6          1           0        1.167919   -0.781014   -0.021160
 ---------------------------------------------------------------------

 SCF Done:  E(RB2PLYPD3) =  -115.549911872     A.U. after   10 cycles
 E2(B2PLYPD3) =    -0.1480219769D+00 E(B2PLYPD3) =    -0.11569793384929D+03

 The electronic state is 1-A.
 Alpha  occ. eigenvalues --  -19.72833 -10.65368  -1.14912  -0.78709  -0.58154
 Alpha  occ. eigenvalues --   -0.51442  -0.49592  -0.41204  -0.35303
 Alpha virt. eigenvalues --    0.04748   0.08040   0.12402   0.12489   0.14910
 Alpha virt. eigenvalues --    0.17222   0.18114   0.29159   0.33026   0.33484
 Alpha virt. eigenvalues --    0.33989   0.38907   0.39625   0.41000   0.43973

 Mulliken charges:
               1
     1  C    0.073678
     2  O   -0.475622
     3  H    0.045217
     4  H    0.050980
     5  H    0.071890
     6  H    0.233857
 Sum of Mulliken charges =   0.00000

 Dipole moment (field-independent basis, Debye):
    X=             -0.9033    Y=             -1.5373    Z=             -0.0810  Tot=              1.7848
 Quadrupole moment (field-independent basis, Debye-Ang):
   XX=            -12.9193   YY=            -12.1462   ZZ=            -13.8594
   XY=             -2.2966   XZ=              0.0038   YZ=              0.0789

 Normal termination of Gaussian 09 at Wed Aug 26 23:33:54 2020.
