 Gaussian 09, Revision D.01,
 Gaussian 09:  ES64L-G09RevD.01 24-Apr-2013

 --------------------
 #p B2PLYPD3/Def2QZVP
 --------------------

 --------
 methanol
 --------
 Symbolic Z-matrix:
 Charge =  0 Multiplicity = 1

                         Standard orientation:
 ---------------------------------------------------------------------
 Center     Atomic      Atomic             Coordinates (Angstroms)
 Number     Number       Type             X           Y           Z
 ---------------------------------------------------------------------
      1          6           0        0.665192    0.022449   -0.000967
      2          8           0       -0.738103   -0.146049   -0.002818
      3          1           0        1.033873    0.451084    0.867073
      4          1           0        0.949435    0.629907   -0.809573
      5          1           0        1.079897   -0.928841   -0.078090
      6          1           0       -1.149529    0.881541    0.048935
 ---------------------------------------------------------------------

 SCF Done:  E(RB2PLYPD3) =  -115.530040761     A.U. after   11 cycles
 E2(B2PLYPD3) =    -0.1494709224D+00 E(B2PLYPD3) =    -0.11567951168313D+03

 The electronic state is 1-A.
 Alpha  occ. eigenvalues --  -19.73481 -10.63677  -1.13984  -0.78770  -0.57224
 Alpha  occ. eigenvalues --   -0.52543  -0.49631  -0.41015  -0.35025
 Alpha virt. eigenvalues --    0.03651   0.07979   0.12556   0.12700   0.14944
 Alpha virt. eigenvalues --    0.17411   0.18061   0.28828   0.30091   0.33207
 Alpha virt. eigenvalues --    0.34400   0.39444   0.40064   0.42339   0.44206

 Mulliken charges:
               1
     1  C    0.085647
     2  O   -0.487203
     3  H    0.044022
     4  H    0.041597
     5  H    0.067169
     6  H    0.248767
 Sum of Mulliken charges =   0.00000

 Dipole moment (field-independent basis, Debye):
    X=              0.9259    Y=              1.6356    Z=              0.0918  Tot=              1.8817
 Quadrupole moment (field-independent basis, Debye-Ang):
   XX=            -13.0933   YY=            -11.8606   ZZ=            -13.8489
   XY=             -2.3764   XZ=             -0.0296   YZ=              0.0576

 Normal termination of Gaussian 09 at Wed Aug 26 11:02:07 2020.
