 Gaussian 09, Revision D.01,
 Gaussian 09:  ES64L-G09RevD.01 24-Apr-2013

 --------------------
 #p B2PLYPD3/Def2QZVP
 --------------------

 --------
 methanol
 --------
 Symbolic Z-matrix:
 Charge =  0 Multiplicity = 1

                         Standard orientation:
 ---------------------------------------------------------------------
 Center     Atomic      Atomic             Coordinates (Angstroms)
 Number     Number       Type             X           Y           Z
 ---------------------------------------------------------------------
      1          6           0        0.669226   -0.014603    0.016908
      2          8           0       -0.760466    0.098093   -0.020509
      3          1           0        1.123536   -0.678721   -0.857057
      4          1           0        1.013266   -0.434925    0.952215
      5          1           0        1.096998    1.036097   -0.102765
      6          1           0       -1.165428   -0.619577    0.070225
 ---------------------------------------------------------------------

 SCF Done:  E(RB2PLYPD3) =  -115.525007000     A.U. after   10 cycles
 E2(B2PLYPD3) =    -0.1457706520D+00 E(B2PLYPD3) =    -0.11567077765164D+03

 The electronic state is 1-A.
 Alpha  occ. eigenvalues --  -19.71413 -10.67592  -1.18920  -0.79566  -0.60418
 Alpha  occ. eigenvalues --   -0.50931  -0.49616  -0.40854  -0.35713
 Alpha virt. eigenvalues --    0.05358   0.08448   0.12004   0.12212   0.14773
 Alpha virt. eigenvalues --    0.17096   0.18028   0.28971   0.32537   0.33059
 Alpha virt. eigenvalues --    0.36580   0.38185   0.39152   0.40399   0.42546

 Mulliken charges:
               1
     1  C    0.062485
     2  O   -0.388002
     3  H    0.041351
     4  H    0.058808
     5  H    0.075836
     6  H    0.149522
 Sum of Mulliken charges =   0.00000

 Dipole moment (field-independent basis, Debye):
    X=              0.8589    Y=             -1.3268    Z=              0.2775  Tot=              1.6047
 Quadrupole moment (field-independent basis, Debye-Ang):
   XX=            -12.7913   YY=            -12.5345   ZZ=            -13.7848
   XY=              2.1196   XZ=             -0.2180   YZ=             -0.1930

 Normal termination of Gaussian 09 at Wed Aug 26 11:58:49 2020.
