 Gaussian 09, Revision D.01,
 Gaussian 09:  ES64L-G09RevD.01 24-Apr-2013

 --------------------
 #p B2PLYPD3/Def2QZVP
 --------------------

 --------
 methanol
 --------
 Symbolic Z-matrix:
 Charge =  0 Multiplicity = 1

                         Standard orientation:
 ---------------------------------------------------------------------
 Center     Atomic      Atomic             Coordinates (Angstroms)
 Number     Number       Type             X           Y           Z
 ---------------------------------------------------------------------
      1          6           0       -0.640896   -0.005337    0.019991
      2          8           0        0.732564   -0.057675   -0.033516
      3          1           0       -1.053965    0.954320   -0.652933
      4          1           0       -0.960368    0.038791    1.112999
      5          1           0       -0.955869   -0.961722   -0.498125
      6          1           0        0.955062    0.462034    0.186243
 ---------------------------------------------------------------------

 SCF Done:  E(RB2PLYPD3) =  -115.231791696     A.U. after   11 cycles
 E2(B2PLYPD3) =    -0.1427621324D+00 E(B2PLYPD3) =    -0.11537455382874D+03

 The electronic state is 1-A.
 Alpha  occ. eigenvalues --  -19.69049 -10.68400  -1.30516  -0.82786  -0.62316
 Alpha  occ. eigenvalues --   -0.52607  -0.51261  -0.41673  -0.35991
 Alpha virt. eigenvalues --    0.05297   0.09649   0.11438   0.11955   0.14428
 Alpha virt. eigenvalues --    0.16739   0.17654   0.27948   0.32187   0.33739
 Alpha virt. eigenvalues --    0.35316   0.38893   0.39332   0.42482   0.43223

 Mulliken charges:
               1
     1  C    0.042055
     2  O   -0.145481
     3  H    0.028372
     4  H    0.053113
     5  H    0.081267
     6  H   -0.059328
 Sum of Mulliken charges =   0.00000

 Dipole moment (field-independent basis, Debye):
    X=             -0.8743    Y=              0.9476    Z=              0.5134  Tot=              1.3877
 Quadrupole moment (field-independent basis, Debye-Ang):
   XX=            -13.7677   YY=            -12.6037   ZZ=            -13.1250
   XY=              1.5944   XZ=              0.6492   YZ=              0.4109

 Normal termination of Gaussian 09 at Wed Aug 26 19:54:58 2020.
