 Gaussian 09, Revision D.01,
 Gaussian 09:  ES64L-G09RevD.01 24-Apr-2013

 --------------------
 #p B2PLYPD3/Def2QZVP
 --------------------

 --------
 methanol
 --------
 Symbolic Z-matrix:
 Charge =  0 Multiplicity = 1

                         Standard orientation:
 ---------------------------------------------------------------------
 Center     Atomic      Atomic             Coordinates (Angstroms)
 Number     Number       Type             X           Y           Z
 ---------------------------------------------------------------------
      1          6           0        0.684782    0.039820   -0.032350
      2          8           0       -0.725320   -0.207707    0.037047
      3          1           0        1.088600    0.657284    0.735186
      4          1           0        0.838388    0.407913   -0.705943
      5          1           0        1.085089   -0.813478   -0.014132
      6          1           0       -1.318212    1.171018   -0.117394
 ---------------------------------------------------------------------

 SCF Done:  E(RB2PLYPD3) =  -115.313980571     A.U. after   13 cycles
 E2(B2PLYPD3) =    -0.1578931940D+00 E(B2PLYPD3) =    -0.11547187376539D+03

 The electronic state is 1-A.
 Alpha  occ. eigenvalues --  -19.75490 -10.60002  -1.11203  -0.82664  -0.57743
 Alpha  occ. eigenvalues --   -0.52847  -0.48326  -0.38963  -0.35288
 Alpha virt. eigenvalues --   -0.03301   0.07416   0.12533   0.13092   0.14836
 Alpha virt. eigenvalues --    0.17269   0.18275   0.21202   0.29568   0.32651
 Alpha virt. eigenvalues --    0.34031   0.39061   0.39685   0.41809   0.46471

 Mulliken charges:
               1
     1  C   -0.052358
     2  O   -0.480012
     3  H    0.051924
     4  H    0.195345
     5  H    0.070151
     6  H    0.214950
 Sum of Mulliken charges =   0.00000

 Dipole moment (field-independent basis, Debye):
    X=              1.1264    Y=              1.7125    Z=             -0.3732  Tot=              2.0834
 Quadrupole moment (field-independent basis, Debye-Ang):
   XX=            -12.7128   YY=            -11.2536   ZZ=            -13.9175
   XY=             -2.5767   XZ=              0.1908   YZ=             -0.2381

 Normal termination of Gaussian 09 at Wed Aug 26 21:08:01 2020.
