 Gaussian 09, Revision D.01,
 Gaussian 09:  ES64L-G09RevD.01 24-Apr-2013

 --------------------
 #p B2PLYPD3/Def2QZVP
 --------------------

 --------
 methanol
 --------
 Symbolic Z-matrix:
 Charge =  0 Multiplicity = 1

                         Standard orientation:
 ---------------------------------------------------------------------
 Center     Atomic      Atomic             Coordinates (Angstroms)
 Number     Number       Type             X           Y           Z
 ---------------------------------------------------------------------
      1          6           0        0.671388   -0.024011    0.015917
      2          8           0       -0.757374    0.080220   -0.003863
      3          1           0        0.978511   -0.732524   -0.861864
      4          1           0        1.052046   -0.382245    0.968171
      5          1           0        1.047486    1.120840   -0.210871
      6          1           0       -1.047378   -0.503763    0.039965
 ---------------------------------------------------------------------

 SCF Done:  E(RB2PLYPD3) =  -115.341727886     A.U. after   11 cycles
 E2(B2PLYPD3) =    -0.1436648669D+00 E(B2PLYPD3) =    -0.11548539275286D+03

 The electronic state is 1-A.
 Alpha  occ. eigenvalues --  -19.69133 -10.68558  -1.26173  -0.81447  -0.62117
 Alpha  occ. eigenvalues --   -0.52178  -0.49122  -0.41107  -0.36540
 Alpha virt. eigenvalues --    0.05222   0.09390   0.11324   0.11941   0.14573
 Alpha virt. eigenvalues --    0.16786   0.17626   0.28607   0.31692   0.33129
 Alpha virt. eigenvalues --    0.35130   0.37742   0.40444   0.40945   0.42532

 Mulliken charges:
               1
     1  C    0.052320
     2  O   -0.218026
     3  H    0.048441
     4  H    0.067091
     5  H    0.071036
     6  H   -0.020861
 Sum of Mulliken charges =   0.00000

 Dipole moment (field-independent basis, Debye):
    X=              1.0285    Y=             -1.2626    Z=              0.1615  Tot=              1.6364
 Quadrupole moment (field-independent basis, Debye-Ang):
   XX=            -13.3413   YY=            -12.4160   ZZ=            -13.4425
   XY=              1.7518   XZ=              0.0159   YZ=             -0.1299

 Normal termination of Gaussian 09 at Wed Aug 26 16:32:06 2020.
