 Gaussian 09, Revision D.01,
 Gaussian 09:  ES64L-G09RevD.01 24-Apr-2013

 --------------------
 #p B2PLYPD3/Def2QZVP
 --------------------

 --------
 methanol
 --------
 Symbolic Z-matrix:
 Charge =  0 Multiplicity = 1

                         Standard orientation:
 ---------------------------------------------------------------------
 Center     Atomic      Atomic             Coordinates (Angstroms)
 Number     Number       Type             X           Y           Z
 ---------------------------------------------------------------------
      1          6           0       -0.665245   -0.031432    0.009696
      2          8           0        0.753392    0.084801   -0.014006
      3          1           0       -0.939130   -0.509317    0.964450
      4          1           0       -1.025488   -0.582475   -0.938224
      5          1           0       -1.081988    1.108860   -0.018528
      6          1           0        1.010947   -0.506883    0.046175
 ---------------------------------------------------------------------

 SCF Done:  E(RB2PLYPD3) =  -115.333591501     A.U. after   11 cycles
 E2(B2PLYPD3) =    -0.1434675971D+00 E(B2PLYPD3) =    -0.11547705909844D+03

 The electronic state is 1-A.
 Alpha  occ. eigenvalues --  -19.69084 -10.68318  -1.26940  -0.81284  -0.61928
 Alpha  occ. eigenvalues --   -0.52758  -0.49475  -0.41228  -0.36568
 Alpha virt. eigenvalues --    0.05281   0.09495   0.11569   0.11770   0.14299
 Alpha virt. eigenvalues --    0.17014   0.17645   0.28343   0.32174   0.33020
 Alpha virt. eigenvalues --    0.35330   0.38100   0.40088   0.40943   0.43440

 Mulliken charges:
               1
     1  C    0.054585
     2  O   -0.214162
     3  H    0.060510
     4  H    0.054706
     5  H    0.067596
     6  H   -0.023236
 Sum of Mulliken charges =   0.00000

 Dipole moment (field-independent basis, Debye):
    X=             -1.0510    Y=             -1.2615    Z=              0.1752  Tot=              1.6512
 Quadrupole moment (field-independent basis, Debye-Ang):
   XX=            -13.4966   YY=            -12.4655   ZZ=            -13.3104
   XY=             -1.7821   XZ=              0.1923   YZ=             -0.1042

 Normal termination of Gaussian 09 at Wed Aug 26 12:55:39 2020.
