 Gaussian 09, Revision D.01,
 Gaussian 09:  ES64L-G09RevD.01 24-Apr-2013

 --------------------
 #p B2PLYPD3/Def2QZVP
 --------------------

 --------
 methanol
 --------
 Symbolic Z-matrix:
 Charge =  0 Multiplicity = 1

                         Standard orientation:
 ---------------------------------------------------------------------
 Center     Atomic      Atomic             Coordinates (Angstroms)
 Number     Number       Type             X           Y           Z
 ---------------------------------------------------------------------
      1          6           0        0.663887   -0.018185   -0.031674
      2          8           0       -0.747060    0.056516    0.016020
      3          1           0        1.054075   -0.527939   -0.940047
      4          1           0        1.091409   -0.675100    0.953811
      5          1           0        1.079299    1.195505    0.099984
      6          1           0       -1.231628   -0.335486   -0.051866
 ---------------------------------------------------------------------

 SCF Done:  E(RB2PLYPD3) =  -115.253036490     A.U. after   11 cycles
 E2(B2PLYPD3) =    -0.1444556700D+00 E(B2PLYPD3) =    -0.11539749216012D+03

 The electronic state is 1-A.
 Alpha  occ. eigenvalues --  -19.68618 -10.71171  -1.26196  -0.84069  -0.62530
 Alpha  occ. eigenvalues --   -0.50693  -0.49229  -0.38559  -0.35543
 Alpha virt. eigenvalues --    0.04808   0.09233   0.10840   0.11704   0.14433
 Alpha virt. eigenvalues --    0.16575   0.17670   0.28977   0.31587   0.32470
 Alpha virt. eigenvalues --    0.33213   0.35713   0.39352   0.39920   0.42179

 Mulliken charges:
               1
     1  C    0.052505
     2  O   -0.179391
     3  H    0.070029
     4  H    0.041631
     5  H    0.077802
     6  H   -0.062577
 Sum of Mulliken charges =   0.00000

 Dipole moment (field-independent basis, Debye):
    X=              0.6467    Y=             -0.9770    Z=             -0.3283  Tot=              1.2168
 Quadrupole moment (field-independent basis, Debye-Ang):
   XX=            -12.4116   YY=            -12.9269   ZZ=            -13.6854
   XY=              1.5190   XZ=              0.0985   YZ=              0.2568

 Normal termination of Gaussian 09 at Wed Aug 26 19:21:17 2020.
