 Gaussian 09, Revision D.01,
 Gaussian 09:  ES64L-G09RevD.01 24-Apr-2013

 --------------------
 #p B2PLYPD3/Def2QZVP
 --------------------

 --------
 methanol
 --------
 Symbolic Z-matrix:
 Charge =  0 Multiplicity = 1

                         Standard orientation:
 ---------------------------------------------------------------------
 Center     Atomic      Atomic             Coordinates (Angstroms)
 Number     Number       Type             X           Y           Z
 ---------------------------------------------------------------------
      1          6           0       -0.671486   -0.019318    0.000804
      2          8           0        0.746948    0.095672   -0.008669
      3          1           0       -1.051850   -0.413674    0.973123
      4          1           0       -0.987404   -0.694967   -0.857693
      5          1           0       -1.048216    1.048276   -0.132389
      6          1           0        1.140797   -0.589101    0.081486
 ---------------------------------------------------------------------

 SCF Done:  E(RB2PLYPD3) =  -115.512469048     A.U. after   10 cycles
 E2(B2PLYPD3) =    -0.1449042556D+00 E(B2PLYPD3) =    -0.11565737330328D+03

 The electronic state is 1-A.
 Alpha  occ. eigenvalues --  -19.70588 -10.67340  -1.20117  -0.80079  -0.60563
 Alpha  occ. eigenvalues --   -0.51698  -0.49821  -0.40715  -0.35695
 Alpha virt. eigenvalues --    0.05404   0.08883   0.12024   0.12124   0.14665
 Alpha virt. eigenvalues --    0.16855   0.17843   0.29007   0.32677   0.33322
 Alpha virt. eigenvalues --    0.37478   0.38716   0.39951   0.40053   0.42522

 Mulliken charges:
               1
     1  C    0.061513
     2  O   -0.354947
     3  H    0.053328
     4  H    0.050122
     5  H    0.076608
     6  H    0.113376
 Sum of Mulliken charges =   0.00000

 Dipole moment (field-independent basis, Debye):
    X=             -0.8512    Y=             -1.3139    Z=              0.1924  Tot=              1.5773
 Quadrupole moment (field-independent basis, Debye-Ang):
   XX=            -13.0025   YY=            -12.4515   ZZ=            -13.6234
   XY=             -2.0445   XZ=              0.1733   YZ=             -0.1056

 Normal termination of Gaussian 09 at Wed Aug 26 22:51:38 2020.
