 Gaussian 09, Revision D.01,
 Gaussian 09:  ES64L-G09RevD.01 24-Apr-2013

 --------------------
 #p B2PLYPD3/Def2QZVP
 --------------------

 --------
 methanol
 --------
 Symbolic Z-matrix:
 Charge =  0 Multiplicity = 1

                         Standard orientation:
 ---------------------------------------------------------------------
 Center     Atomic      Atomic             Coordinates (Angstroms)
 Number     Number       Type             X           Y           Z
 ---------------------------------------------------------------------
      1          6           0        0.656375    0.028118    0.004613
      2          8           0       -0.739639   -0.148743   -0.006511
      3          1           0        0.984465    0.484671    0.879474
      4          1           0        1.035335    0.581825   -0.830776
      5          1           0        1.143814   -0.912157   -0.039143
      6          1           0       -1.184751    0.866897    0.014858
 ---------------------------------------------------------------------

 SCF Done:  E(RB2PLYPD3) =  -115.531729466     A.U. after   11 cycles
 E2(B2PLYPD3) =    -0.1495152710D+00 E(B2PLYPD3) =    -0.11568124473682D+03

 The electronic state is 1-A.
 Alpha  occ. eigenvalues --  -19.73719 -10.64139  -1.14179  -0.78543  -0.56877
 Alpha  occ. eigenvalues --   -0.52329  -0.50014  -0.40407  -0.35155
 Alpha virt. eigenvalues --    0.03631   0.07772   0.12607   0.12777   0.14826
 Alpha virt. eigenvalues --    0.17718   0.18292   0.28667   0.29914   0.33393
 Alpha virt. eigenvalues --    0.34459   0.39416   0.40165   0.41994   0.43593

 Mulliken charges:
               1
     1  C    0.079087
     2  O   -0.484484
     3  H    0.046664
     4  H    0.041910
     5  H    0.063020
     6  H    0.253804
 Sum of Mulliken charges =   0.00000

 Dipole moment (field-independent basis, Debye):
    X=              0.8376    Y=              1.6298    Z=              0.0608  Tot=              1.8334
 Quadrupole moment (field-independent basis, Debye-Ang):
   XX=            -12.8350   YY=            -12.1048   ZZ=            -13.8714
   XY=             -2.4786   XZ=             -0.0657   YZ=              0.0410

 Normal termination of Gaussian 09 at Thu Aug 27 00:12:00 2020.
