 Gaussian 09, Revision D.01,
 Gaussian 09:  ES64L-G09RevD.01 24-Apr-2013

 --------------------
 #p B2PLYPD3/Def2QZVP
 --------------------

 --------
 methanol
 --------
 Symbolic Z-matrix:
 Charge =  0 Multiplicity = 1

                         Standard orientation:
 ---------------------------------------------------------------------
 Center     Atomic      Atomic             Coordinates (Angstroms)
 Number     Number       Type             X           Y           Z
 ---------------------------------------------------------------------
      1          6           0        0.656512    0.017311    0.001010
      2          8           0       -0.740489   -0.138463   -0.007023
      3          1           0        1.035842    0.443403    0.902327
      4          1           0        0.987970    0.615136   -0.847696
      5          1           0        1.090849   -0.908402   -0.066576
      6          1           0       -1.129822    0.853703    0.062072
 ---------------------------------------------------------------------

 SCF Done:  E(RB2PLYPD3) =  -115.538545918     A.U. after   11 cycles
 E2(B2PLYPD3) =    -0.1488123186D+00 E(B2PLYPD3) =    -0.11568735823655D+03

 The electronic state is 1-A.
 Alpha  occ. eigenvalues --  -19.73434 -10.64280  -1.14879  -0.78636  -0.57432
 Alpha  occ. eigenvalues --   -0.52133  -0.50369  -0.40954  -0.35092
 Alpha virt. eigenvalues --    0.04065   0.08005   0.12440   0.12795   0.14825
 Alpha virt. eigenvalues --    0.17564   0.18261   0.29013   0.30980   0.33230
 Alpha virt. eigenvalues --    0.34519   0.39126   0.40737   0.41612   0.43733

 Mulliken charges:
               1
     1  C    0.075270
     2  O   -0.475731
     3  H    0.043503
     4  H    0.040773
     5  H    0.067855
     6  H    0.248329
 Sum of Mulliken charges =   0.00000

 Dipole moment (field-independent basis, Debye):
    X=              0.8880    Y=              1.5579    Z=              0.1286  Tot=              1.7978
 Quadrupole moment (field-independent basis, Debye-Ang):
   XX=            -13.1054   YY=            -12.0441   ZZ=            -13.8089
   XY=             -2.4039   XZ=             -0.0919   YZ=              0.0854

 Normal termination of Gaussian 09 at Wed Aug 26 23:58:39 2020.
