 Gaussian 09, Revision D.01,
 Gaussian 09:  ES64L-G09RevD.01 24-Apr-2013

 --------------------
 #p B2PLYPD3/Def2QZVP
 --------------------

 --------
 methanol
 --------
 Symbolic Z-matrix:
 Charge =  0 Multiplicity = 1

                         Standard orientation:
 ---------------------------------------------------------------------
 Center     Atomic      Atomic             Coordinates (Angstroms)
 Number     Number       Type             X           Y           Z
 ---------------------------------------------------------------------
      1          6           0        0.671759    0.013350    0.001550
      2          8           0       -0.746478   -0.137320   -0.006571
      3          1           0        1.028816    0.443086    0.905787
      4          1           0        0.984487    0.638403   -0.834507
      5          1           0        1.081094   -0.908995   -0.084196
      6          1           0       -1.153124    0.845968    0.056188
 ---------------------------------------------------------------------

 SCF Done:  E(RB2PLYPD3) =  -115.538059788     A.U. after   11 cycles
 E2(B2PLYPD3) =    -0.1489257772D+00 E(B2PLYPD3) =    -0.11568698556503D+03

 The electronic state is 1-A.
 Alpha  occ. eigenvalues --  -19.73216 -10.64306  -1.14059  -0.78889  -0.57166
 Alpha  occ. eigenvalues --   -0.51843  -0.50240  -0.41143  -0.35049
 Alpha virt. eigenvalues --    0.04132   0.07995   0.12441   0.12742   0.14776
 Alpha virt. eigenvalues --    0.17428   0.18096   0.29128   0.31247   0.33192
 Alpha virt. eigenvalues --    0.33711   0.39035   0.40890   0.41446   0.43771

 Mulliken charges:
               1
     1  C    0.080390
     2  O   -0.487552
     3  H    0.046173
     4  H    0.041824
     5  H    0.072487
     6  H    0.246677
 Sum of Mulliken charges =   0.00000

 Dipole moment (field-independent basis, Debye):
    X=              0.9404    Y=              1.5576    Z=              0.1181  Tot=              1.8233
 Quadrupole moment (field-independent basis, Debye-Ang):
   XX=            -13.0380   YY=            -11.9977   ZZ=            -13.8112
   XY=             -2.4271   XZ=             -0.0887   YZ=              0.0899

 Normal termination of Gaussian 09 at Wed Aug 26 22:27:23 2020.
