 Gaussian 09, Revision D.01,
 Gaussian 09:  ES64L-G09RevD.01 24-Apr-2013

 --------------------
 #p B2PLYPD3/Def2QZVP
 --------------------

 --------
 methanol
 --------
 Symbolic Z-matrix:
 Charge =  0 Multiplicity = 1

                         Standard orientation:
 ---------------------------------------------------------------------
 Center     Atomic      Atomic             Coordinates (Angstroms)
 Number     Number       Type             X           Y           Z
 ---------------------------------------------------------------------
      1          6           0        0.653221   -0.021744    0.006138
      2          8           0       -0.734794    0.074489   -0.016361
      3          1           0        1.060673   -0.695912   -0.825989
      4          1           0        0.844042   -0.431806    1.025161
      5          1           0        1.020575    1.140312   -0.106184
      6          1           0       -0.966265   -0.478040    0.001073
 ---------------------------------------------------------------------

 SCF Done:  E(RB2PLYPD3) =  -115.210508481     A.U. after   11 cycles
 E2(B2PLYPD3) =    -0.1427293229D+00 E(B2PLYPD3) =    -0.11535323780420D+03

 The electronic state is 1-A.
 Alpha  occ. eigenvalues --  -19.68541 -10.68209  -1.30242  -0.82495  -0.62677
 Alpha  occ. eigenvalues --   -0.53234  -0.49919  -0.41486  -0.36223
 Alpha virt. eigenvalues --    0.05221   0.09770   0.11340   0.11917   0.14569
 Alpha virt. eigenvalues --    0.16618   0.17416   0.28239   0.32278   0.33182
 Alpha virt. eigenvalues --    0.35757   0.38191   0.39449   0.42194   0.43546

 Mulliken charges:
               1
     1  C    0.050797
     2  O   -0.154683
     3  H    0.047866
     4  H    0.055054
     5  H    0.068575
     6  H   -0.067608
 Sum of Mulliken charges =   0.00000

 Dipole moment (field-independent basis, Debye):
    X=              0.9584    Y=             -1.2214    Z=              0.0654  Tot=              1.5539
 Quadrupole moment (field-independent basis, Debye-Ang):
   XX=            -13.7082   YY=            -12.2388   ZZ=            -13.3622
   XY=              1.6254   XZ=             -0.2656   YZ=              0.0013

 Normal termination of Gaussian 09 at Wed Aug 26 22:26:25 2020.
