 Gaussian 09, Revision D.01,
 Gaussian 09:  ES64L-G09RevD.01 24-Apr-2013

 --------------------
 #p B2PLYPD3/Def2QZVP
 --------------------

 --------
 methanol
 --------
 Symbolic Z-matrix:
 Charge =  0 Multiplicity = 1

                         Standard orientation:
 ---------------------------------------------------------------------
 Center     Atomic      Atomic             Coordinates (Angstroms)
 Number     Number       Type             X           Y           Z
 ---------------------------------------------------------------------
      1          6           0       -0.654139   -0.012595    0.021998
      2          8           0        0.750862    0.075110   -0.024216
      3          1           0       -1.005099   -0.375096    1.001816
      4          1           0       -1.131340   -0.735001   -0.851909
      5          1           0       -1.044206    1.097446   -0.173507
      6          1           0        1.098586   -0.512657    0.085338
 ---------------------------------------------------------------------

 SCF Done:  E(RB2PLYPD3) =  -115.403820669     A.U. after   11 cycles
 E2(B2PLYPD3) =    -0.1440694617D+00 E(B2PLYPD3) =    -0.11554789013096D+03

 The electronic state is 1-A.
 Alpha  occ. eigenvalues --  -19.70003 -10.68827  -1.24926  -0.81441  -0.62136
 Alpha  occ. eigenvalues --   -0.51281  -0.49955  -0.40699  -0.36006
 Alpha virt. eigenvalues --    0.05279   0.09085   0.11577   0.11936   0.14755
 Alpha virt. eigenvalues --    0.16809   0.17881   0.28638   0.32538   0.33179
 Alpha virt. eigenvalues --    0.35769   0.36910   0.40277   0.40600   0.42035

 Mulliken charges:
               1
     1  C    0.045719
     2  O   -0.231266
     3  H    0.060918
     4  H    0.037406
     5  H    0.075373
     6  H    0.011850
 Sum of Mulliken charges =   0.00000

 Dipole moment (field-independent basis, Debye):
    X=             -0.8109    Y=             -1.1667    Z=              0.3583  Tot=              1.4653
 Quadrupole moment (field-independent basis, Debye-Ang):
   XX=            -13.0848   YY=            -12.6214   ZZ=            -13.6124
   XY=             -1.8298   XZ=              0.2742   YZ=             -0.2476

 Normal termination of Gaussian 09 at Wed Aug 26 12:55:27 2020.
