 Gaussian 09, Revision D.01,
 Gaussian 09:  ES64L-G09RevD.01 24-Apr-2013

 --------------------
 #p B2PLYPD3/Def2QZVP
 --------------------

 --------
 methanol
 --------
 Symbolic Z-matrix:
 Charge =  0 Multiplicity = 1

                         Standard orientation:
 ---------------------------------------------------------------------
 Center     Atomic      Atomic             Coordinates (Angstroms)
 Number     Number       Type             X           Y           Z
 ---------------------------------------------------------------------
      1          6           0       -0.662391   -0.036944    0.039779
      2          8           0        0.753708    0.047155   -0.024484
      3          1           0       -0.954353   -0.317792    1.023465
      4          1           0       -1.151197   -0.831732   -0.824112
      5          1           0       -1.121773    1.245474   -0.269236
      6          1           0        1.172008   -0.251526    0.027078
 ---------------------------------------------------------------------

 SCF Done:  E(RB2PLYPD3) =  -114.824587826     A.U. after   12 cycles
 E2(B2PLYPD3) =    -0.1444560462D+00 E(B2PLYPD3) =    -0.11496904387250D+03

 The electronic state is 1-A.
 Alpha  occ. eigenvalues --  -19.68281 -10.72176  -1.31656  -0.86390  -0.63430
 Alpha  occ. eigenvalues --   -0.51822  -0.48442  -0.37740  -0.36571
 Alpha virt. eigenvalues --    0.04124   0.09578   0.09833   0.11675   0.14173
 Alpha virt. eigenvalues --    0.16621   0.17630   0.28199   0.30320   0.31331
 Alpha virt. eigenvalues --    0.31815   0.34631   0.40185   0.41230   0.42173

 Mulliken charges:
               1
     1  C    0.051723
     2  O   -0.083385
     3  H    0.088307
     4  H    0.051385
     5  H    0.061283
     6  H   -0.169312
 Sum of Mulliken charges =   0.00000

 Dipole moment (field-independent basis, Debye):
    X=             -0.7767    Y=             -0.9693    Z=              0.3688  Tot=              1.2957
 Quadrupole moment (field-independent basis, Debye-Ang):
   XX=            -12.5603   YY=            -13.0240   ZZ=            -13.3426
   XY=             -1.2124   XZ=              0.1675   YZ=             -0.1395

 Normal termination of Gaussian 09 at Wed Aug 26 18:32:50 2020.
