 Gaussian 09, Revision D.01,
 Gaussian 09:  ES64L-G09RevD.01 24-Apr-2013

 --------------------
 #p B2PLYPD3/Def2QZVP
 --------------------

 --------
 methanol
 --------
 Symbolic Z-matrix:
 Charge =  0 Multiplicity = 1

                         Standard orientation:
 ---------------------------------------------------------------------
 Center     Atomic      Atomic             Coordinates (Angstroms)
 Number     Number       Type             X           Y           Z
 ---------------------------------------------------------------------
      1          6           0        0.661407   -0.008809    0.012169
      2          8           0       -0.753142    0.101718   -0.019195
      3          1           0        1.044914   -0.762805   -0.811268
      4          1           0        1.024619   -0.327688    1.008306
      5          1           0        1.104292    0.967328   -0.215853
      6          1           0       -1.117137   -0.637727    0.099362
 ---------------------------------------------------------------------

 SCF Done:  E(RB2PLYPD3) =  -115.529889694     A.U. after   10 cycles
 E2(B2PLYPD3) =    -0.1454907963D+00 E(B2PLYPD3) =    -0.11567538049017D+03

 The electronic state is 1-A.
 Alpha  occ. eigenvalues --  -19.71459 -10.67117  -1.19429  -0.79550  -0.60201
 Alpha  occ. eigenvalues --   -0.51326  -0.50553  -0.40987  -0.35598
 Alpha virt. eigenvalues --    0.05343   0.08635   0.11963   0.12444   0.14586
 Alpha virt. eigenvalues --    0.17316   0.18001   0.28910   0.32911   0.33152
 Alpha virt. eigenvalues --    0.36535   0.38996   0.39728   0.40276   0.43255

 Mulliken charges:
               1
     1  C    0.062916
     2  O   -0.384587
     3  H    0.037097
     4  H    0.053421
     5  H    0.077634
     6  H    0.153519
 Sum of Mulliken charges =   0.00000

 Dipole moment (field-independent basis, Debye):
    X=              0.8765    Y=             -1.2943    Z=              0.2741  Tot=              1.5870
 Quadrupole moment (field-independent basis, Debye-Ang):
   XX=            -13.0267   YY=            -12.5204   ZZ=            -13.6703
   XY=              2.1880   XZ=             -0.2951   YZ=             -0.2164

 Normal termination of Gaussian 09 at Thu Aug 27 00:00:56 2020.
