 Gaussian 09, Revision D.01,
 Gaussian 09:  ES64L-G09RevD.01 24-Apr-2013

 --------------------
 #p B2PLYPD3/Def2QZVP
 --------------------

 --------
 methanol
 --------
 Symbolic Z-matrix:
 Charge =  0 Multiplicity = 1

                         Standard orientation:
 ---------------------------------------------------------------------
 Center     Atomic      Atomic             Coordinates (Angstroms)
 Number     Number       Type             X           Y           Z
 ---------------------------------------------------------------------
      1          6           0       -0.689119   -0.057567    0.009828
      2          8           0        0.732710    0.143922   -0.015472
      3          1           0       -0.977960   -0.324366    0.868496
      4          1           0       -0.954982   -0.718677   -0.735949
      5          1           0       -1.071094    1.016942   -0.155171
      6          1           0        1.277070   -0.779870    0.087437
 ---------------------------------------------------------------------

 SCF Done:  E(RB2PLYPD3) =  -115.516948466     A.U. after   11 cycles
 E2(B2PLYPD3) =    -0.1490742481D+00 E(B2PLYPD3) =    -0.11566602271388D+03

 The electronic state is 1-A.
 Alpha  occ. eigenvalues --  -19.72675 -10.63888  -1.13119  -0.79440  -0.57151
 Alpha  occ. eigenvalues --   -0.54355  -0.47886  -0.39774  -0.35361
 Alpha virt. eigenvalues --    0.04210   0.07866   0.11976   0.12814   0.15054
 Alpha virt. eigenvalues --    0.16812   0.18114   0.29142   0.31285   0.33153
 Alpha virt. eigenvalues --    0.33708   0.36812   0.39764   0.43573   0.44888

 Mulliken charges:
               1
     1  C    0.082702
     2  O   -0.504940
     3  H    0.062430
     4  H    0.054519
     5  H    0.062109
     6  H    0.243180
 Sum of Mulliken charges =   0.00000

 Dipole moment (field-independent basis, Debye):
    X=             -0.8097    Y=             -1.6569    Z=              0.2510  Tot=              1.8612
 Quadrupole moment (field-independent basis, Debye-Ang):
   XX=            -12.5805   YY=            -12.1362   ZZ=            -13.7251
   XY=             -2.3070   XZ=              0.1308   YZ=             -0.0643

 Normal termination of Gaussian 09 at Wed Aug 26 23:42:04 2020.
