 Gaussian 09, Revision D.01,
 Gaussian 09:  ES64L-G09RevD.01 24-Apr-2013

 --------------------
 #p B2PLYPD3/Def2QZVP
 --------------------

 --------
 methanol
 --------
 Symbolic Z-matrix:
 Charge =  0 Multiplicity = 1

                         Standard orientation:
 ---------------------------------------------------------------------
 Center     Atomic      Atomic             Coordinates (Angstroms)
 Number     Number       Type             X           Y           Z
 ---------------------------------------------------------------------
      1          6           0        0.686129   -0.012635   -0.009561
      2          8           0       -0.764471    0.077394   -0.001850
      3          1           0        1.084416   -0.541003   -0.938770
      4          1           0        0.985094   -0.565205    0.995029
      5          1           0        1.018971    1.082321    0.039458
      6          1           0       -1.089484   -0.519454   -0.023549
 ---------------------------------------------------------------------

 SCF Done:  E(RB2PLYPD3) =  -115.390633805     A.U. after   11 cycles
 E2(B2PLYPD3) =    -0.1441259890D+00 E(B2PLYPD3) =    -0.11553475979410D+03

 The electronic state is 1-A.
 Alpha  occ. eigenvalues --  -19.69200 -10.68694  -1.24076  -0.81151  -0.60970
 Alpha  occ. eigenvalues --   -0.51159  -0.49754  -0.41270  -0.36151
 Alpha virt. eigenvalues --    0.05330   0.09149   0.11636   0.11882   0.14263
 Alpha virt. eigenvalues --    0.16656   0.17794   0.28711   0.31024   0.33145
 Alpha virt. eigenvalues --    0.36378   0.38237   0.38653   0.40747   0.42410

 Mulliken charges:
               1
     1  C    0.052896
     2  O   -0.248717
     3  H    0.061356
     4  H    0.051424
     5  H    0.085444
     6  H   -0.002402
 Sum of Mulliken charges =   0.00000

 Dipole moment (field-independent basis, Debye):
    X=              1.0606    Y=             -1.1946    Z=             -0.0818  Tot=              1.5996
 Quadrupole moment (field-independent basis, Debye-Ang):
   XX=            -13.2127   YY=            -12.4605   ZZ=            -13.4453
   XY=              1.8873   XZ=             -0.0882   YZ=              0.1071

 Normal termination of Gaussian 09 at Wed Aug 26 14:04:09 2020.
