 Gaussian 09, Revision D.01,
 Gaussian 09:  ES64L-G09RevD.01 24-Apr-2013

 --------------------
 #p B2PLYPD3/Def2QZVP
 --------------------

 --------
 methanol
 --------
 Symbolic Z-matrix:
 Charge =  0 Multiplicity = 1

                         Standard orientation:
 ---------------------------------------------------------------------
 Center     Atomic      Atomic             Coordinates (Angstroms)
 Number     Number       Type             X           Y           Z
 ---------------------------------------------------------------------
      1          6           0       -0.638899    0.021860   -0.010141
      2          8           0        0.736124   -0.174043   -0.004878
      3          1           0       -0.946281    0.632768   -0.747394
      4          1           0       -1.117471    0.374511    0.798756
      5          1           0       -1.066694   -0.865313   -0.057459
      6          1           0        1.074848    1.119219    0.105969
 ---------------------------------------------------------------------

 SCF Done:  E(RB2PLYPD3) =  -115.453857701     A.U. after   12 cycles
 E2(B2PLYPD3) =    -0.1543077994D+00 E(B2PLYPD3) =    -0.11560816550062D+03

 The electronic state is 1-A.
 Alpha  occ. eigenvalues --  -19.75425 -10.61874  -1.13495  -0.79879  -0.56303
 Alpha  occ. eigenvalues --   -0.52912  -0.49440  -0.39989  -0.35044
 Alpha virt. eigenvalues --   -0.00453   0.07573   0.12539   0.13016   0.14999
 Alpha virt. eigenvalues --    0.17601   0.18665   0.23087   0.29519   0.33015
 Alpha virt. eigenvalues --    0.35621   0.38592   0.39865   0.43410   0.44496

 Mulliken charges:
               1
     1  C    0.105847
     2  O   -0.466469
     3  H    0.032145
     4  H    0.031569
     5  H    0.054894
     6  H    0.242014
 Sum of Mulliken charges =   0.00000

 Dipole moment (field-independent basis, Debye):
    X=             -1.1062    Y=              1.7297    Z=              0.1666  Tot=              2.0600
 Quadrupole moment (field-independent basis, Debye-Ang):
   XX=            -13.4592   YY=            -11.3030   ZZ=            -14.0680
   XY=              2.2259   XZ=              0.0110   YZ=              0.0576

 Normal termination of Gaussian 09 at Wed Aug 26 21:19:54 2020.
