 Gaussian 09, Revision D.01,
 Gaussian 09:  ES64L-G09RevD.01 24-Apr-2013

 --------------------
 #p B2PLYPD3/Def2QZVP
 --------------------

 --------
 methanol
 --------
 Symbolic Z-matrix:
 Charge =  0 Multiplicity = 1

                         Standard orientation:
 ---------------------------------------------------------------------
 Center     Atomic      Atomic             Coordinates (Angstroms)
 Number     Number       Type             X           Y           Z
 ---------------------------------------------------------------------
      1          6           0       -0.667475   -0.017385    0.001350
      2          8           0        0.749860    0.107212   -0.007616
      3          1           0       -1.010774   -0.500777    0.941586
      4          1           0       -1.061664   -0.565416   -0.902864
      5          1           0       -1.038155    1.006395   -0.013243
      6          1           0        1.116565   -0.693590    0.027350
 ---------------------------------------------------------------------

 SCF Done:  E(RB2PLYPD3) =  -115.546034944     A.U. after   10 cycles
 E2(B2PLYPD3) =    -0.1461571859D+00 E(B2PLYPD3) =    -0.11569219213032D+03

 The electronic state is 1-A.
 Alpha  occ. eigenvalues --  -19.71787 -10.66377  -1.17894  -0.79111  -0.59491
 Alpha  occ. eigenvalues --   -0.51621  -0.49975  -0.41205  -0.35579
 Alpha virt. eigenvalues --    0.05272   0.08539   0.12136   0.12376   0.14722
 Alpha virt. eigenvalues --    0.17044   0.18130   0.28993   0.33150   0.33355
 Alpha virt. eigenvalues --    0.37015   0.38713   0.40082   0.40209   0.43380

 Mulliken charges:
               1
     1  C    0.063008
     2  O   -0.422581
     3  H    0.049889
     4  H    0.049064
     5  H    0.074100
     6  H    0.186520
 Sum of Mulliken charges =   0.00000

 Dipole moment (field-independent basis, Debye):
    X=             -0.8918    Y=             -1.4000    Z=              0.0819  Tot=              1.6619
 Quadrupole moment (field-independent basis, Debye-Ang):
   XX=            -13.1357   YY=            -12.3313   ZZ=            -13.6719
   XY=             -2.1474   XZ=              0.1100   YZ=             -0.0370

 Normal termination of Gaussian 09 at Thu Aug 27 01:06:32 2020.
