 Gaussian 09, Revision D.01,
 Gaussian 09:  ES64L-G09RevD.01 24-Apr-2013

 --------------------
 #p B2PLYPD3/Def2QZVP
 --------------------

 --------
 methanol
 --------
 Symbolic Z-matrix:
 Charge =  0 Multiplicity = 1

                         Standard orientation:
 ---------------------------------------------------------------------
 Center     Atomic      Atomic             Coordinates (Angstroms)
 Number     Number       Type             X           Y           Z
 ---------------------------------------------------------------------
      1          6           0        0.671749    0.012271    0.000470
      2          8           0       -0.752789   -0.129020   -0.005340
      3          1           0        1.072262    0.448277    0.920326
      4          1           0        1.019810    0.628472   -0.852747
      5          1           0        1.082794   -0.921468   -0.081203
      6          1           0       -1.183050    0.803256    0.053525
 ---------------------------------------------------------------------

 SCF Done:  E(RB2PLYPD3) =  -115.544451697     A.U. after   10 cycles
 E2(B2PLYPD3) =    -0.1485064208D+00 E(B2PLYPD3) =    -0.11569295811791D+03

 The electronic state is 1-A.
 Alpha  occ. eigenvalues --  -19.73120 -10.65118  -1.14422  -0.78826  -0.57449
 Alpha  occ. eigenvalues --   -0.51204  -0.50324  -0.41033  -0.35171
 Alpha virt. eigenvalues --    0.04509   0.07898   0.12383   0.12730   0.14796
 Alpha virt. eigenvalues --    0.17328   0.18264   0.29102   0.32522   0.33147
 Alpha virt. eigenvalues --    0.33561   0.38703   0.40322   0.40894   0.43695

 Mulliken charges:
               1
     1  C    0.073494
     2  O   -0.481937
     3  H    0.046895
     4  H    0.043427
     5  H    0.075010
     6  H    0.243111
 Sum of Mulliken charges =   0.00000

 Dipole moment (field-independent basis, Debye):
    X=              0.8841    Y=              1.5023    Z=              0.1030  Tot=              1.7462
 Quadrupole moment (field-independent basis, Debye-Ang):
   XX=            -12.8295   YY=            -12.1845   ZZ=            -13.8590
   XY=             -2.4339   XZ=             -0.0957   YZ=              0.0798

 Normal termination of Gaussian 09 at Wed Aug 26 10:17:39 2020.
