 Gaussian 09, Revision D.01,
 Gaussian 09:  ES64L-G09RevD.01 24-Apr-2013

 --------------------
 #p B2PLYPD3/Def2QZVP
 --------------------

 --------
 methanol
 --------
 Symbolic Z-matrix:
 Charge =  0 Multiplicity = 1

                         Standard orientation:
 ---------------------------------------------------------------------
 Center     Atomic      Atomic             Coordinates (Angstroms)
 Number     Number       Type             X           Y           Z
 ---------------------------------------------------------------------
      1          6           0       -0.657795    0.006737    0.000515
      2          8           0        0.741877   -0.072500   -0.038134
      3          1           0       -1.020675    0.985635   -0.577724
      4          1           0       -1.018393   -0.020463    1.103251
      5          1           0       -1.008055   -0.915707   -0.483294
      6          1           0        1.058879    0.490109    0.259751
 ---------------------------------------------------------------------

 SCF Done:  E(RB2PLYPD3) =  -115.436558347     A.U. after   10 cycles
 E2(B2PLYPD3) =    -0.1438188493D+00 E(B2PLYPD3) =    -0.11558037719611D+03

 The electronic state is 1-A.
 Alpha  occ. eigenvalues --  -19.69888 -10.67897  -1.24261  -0.81280  -0.61190
 Alpha  occ. eigenvalues --   -0.51677  -0.51027  -0.41184  -0.35737
 Alpha virt. eigenvalues --    0.05385   0.09264   0.11633   0.12271   0.14410
 Alpha virt. eigenvalues --    0.16806   0.17884   0.28571   0.32652   0.33400
 Alpha virt. eigenvalues --    0.36257   0.38692   0.39964   0.40948   0.43027

 Mulliken charges:
               1
     1  C    0.050312
     2  O   -0.252367
     3  H    0.042329
     4  H    0.046107
     5  H    0.084155
     6  H    0.029463
 Sum of Mulliken charges =   0.00000

 Dipole moment (field-independent basis, Debye):
    X=             -0.8605    Y=              1.0213    Z=              0.5729  Tot=              1.4532
 Quadrupole moment (field-independent basis, Debye-Ang):
   XX=            -13.3559   YY=            -12.6173   ZZ=            -13.3458
   XY=              1.7643   XZ=              0.8898   YZ=              0.3716

 Normal termination of Gaussian 09 at Wed Aug 26 14:59:50 2020.
