 Gaussian 09, Revision D.01,
 Gaussian 09:  ES64L-G09RevD.01 24-Apr-2013

 --------------------
 #p B2PLYPD3/Def2QZVP
 --------------------

 --------
 methanol
 --------
 Symbolic Z-matrix:
 Charge =  0 Multiplicity = 1

                         Standard orientation:
 ---------------------------------------------------------------------
 Center     Atomic      Atomic             Coordinates (Angstroms)
 Number     Number       Type             X           Y           Z
 ---------------------------------------------------------------------
      1          6           0       -0.677967   -0.023176   -0.000351
      2          8           0        0.754555    0.101829   -0.009876
      3          1           0       -1.032407   -0.414191    0.969936
      4          1           0       -0.996209   -0.691174   -0.843513
      5          1           0       -1.083407    1.040304   -0.121723
      6          1           0        1.143384   -0.610519    0.076410
 ---------------------------------------------------------------------

 SCF Done:  E(RB2PLYPD3) =  -115.523687858     A.U. after   10 cycles
 E2(B2PLYPD3) =    -0.1453242389D+00 E(B2PLYPD3) =    -0.11566901209650D+03

 The electronic state is 1-A.
 Alpha  occ. eigenvalues --  -19.70816 -10.67178  -1.19068  -0.79740  -0.60118
 Alpha  occ. eigenvalues --   -0.51775  -0.49499  -0.40838  -0.35780
 Alpha virt. eigenvalues --    0.05389   0.08747   0.12022   0.12168   0.14601
 Alpha virt. eigenvalues --    0.16982   0.17853   0.29032   0.32312   0.33244
 Alpha virt. eigenvalues --    0.37316   0.38710   0.39756   0.40277   0.42714

 Mulliken charges:
               1
     1  C    0.066604
     2  O   -0.383881
     3  H    0.055162
     4  H    0.053231
     5  H    0.074730
     6  H    0.134155
 Sum of Mulliken charges =   0.00000

 Dipole moment (field-independent basis, Debye):
    X=             -0.9263    Y=             -1.3636    Z=              0.1818  Tot=              1.6584
 Quadrupole moment (field-independent basis, Debye-Ang):
   XX=            -12.9803   YY=            -12.4260   ZZ=            -13.6322
   XY=             -2.0914   XZ=              0.1887   YZ=             -0.0813

 Normal termination of Gaussian 09 at Thu Aug 27 00:10:15 2020.
