 Gaussian 09, Revision D.01,
 Gaussian 09:  ES64L-G09RevD.01 24-Apr-2013

 --------------------
 #p B2PLYPD3/Def2QZVP
 --------------------

 --------
 methanol
 --------
 Symbolic Z-matrix:
 Charge =  0 Multiplicity = 1

                         Standard orientation:
 ---------------------------------------------------------------------
 Center     Atomic      Atomic             Coordinates (Angstroms)
 Number     Number       Type             X           Y           Z
 ---------------------------------------------------------------------
      1          6           0        0.660985   -0.033643   -0.003694
      2          8           0       -0.748207    0.100189    0.008280
      3          1           0        0.925992   -0.602060   -0.937721
      4          1           0        1.054989   -0.484735    0.985877
      5          1           0        1.170080    1.022480   -0.092072
      6          1           0       -1.131313   -0.535339   -0.000158
 ---------------------------------------------------------------------

 SCF Done:  E(RB2PLYPD3) =  -115.468214920     A.U. after   11 cycles
 E2(B2PLYPD3) =    -0.1443957031D+00 E(B2PLYPD3) =    -0.11561261062305D+03

 The electronic state is 1-A.
 Alpha  occ. eigenvalues --  -19.70170 -10.68136  -1.22386  -0.80629  -0.61066
 Alpha  occ. eigenvalues --   -0.52296  -0.50017  -0.39842  -0.36063
 Alpha virt. eigenvalues --    0.05396   0.08968   0.11846   0.12187   0.14058
 Alpha virt. eigenvalues --    0.17297   0.18011   0.28625   0.32721   0.33065
 Alpha virt. eigenvalues --    0.35884   0.38330   0.39666   0.40244   0.43453

 Mulliken charges:
               1
     1  C    0.055415
     2  O   -0.293061
     3  H    0.054814
     4  H    0.053794
     5  H    0.070126
     6  H    0.058911
 Sum of Mulliken charges =   0.00000

 Dipole moment (field-independent basis, Debye):
    X=              0.8488    Y=             -1.2699    Z=             -0.0554  Tot=              1.5285
 Quadrupole moment (field-independent basis, Debye-Ang):
   XX=            -12.9076   YY=            -12.8108   ZZ=            -13.4622
   XY=              2.1241   XZ=              0.0820   YZ=              0.0271

 Normal termination of Gaussian 09 at Wed Aug 26 12:39:24 2020.
