 Gaussian 09, Revision D.01,
 Gaussian 09:  ES64L-G09RevD.01 24-Apr-2013

 --------------------
 #p B2PLYPD3/Def2QZVP
 --------------------

 --------
 methanol
 --------
 Symbolic Z-matrix:
 Charge =  0 Multiplicity = 1

                         Standard orientation:
 ---------------------------------------------------------------------
 Center     Atomic      Atomic             Coordinates (Angstroms)
 Number     Number       Type             X           Y           Z
 ---------------------------------------------------------------------
      1          6           0        0.665242    0.033307    0.022111
      2          8           0       -0.746642   -0.156115   -0.015439
      3          1           0        1.051056    0.393798    0.814952
      4          1           0        1.055314    0.663108   -0.782228
      5          1           0        1.096094   -0.944671   -0.113369
      6          1           0       -1.220779    0.936847    0.071492
 ---------------------------------------------------------------------

 SCF Done:  E(RB2PLYPD3) =  -115.499494683     A.U. after   11 cycles
 E2(B2PLYPD3) =    -0.1515991818D+00 E(B2PLYPD3) =    -0.11565109386491D+03

 The electronic state is 1-A.
 Alpha  occ. eigenvalues --  -19.74488 -10.63682  -1.12765  -0.79237  -0.56430
 Alpha  occ. eigenvalues --   -0.51876  -0.48910  -0.40484  -0.35312
 Alpha virt. eigenvalues --    0.02471   0.07517   0.12394   0.12907   0.15094
 Alpha virt. eigenvalues --    0.17342   0.18467   0.26435   0.29508   0.33586
 Alpha virt. eigenvalues --    0.34254   0.38209   0.38810   0.41933   0.45015

 Mulliken charges:
               1
     1  C    0.083240
     2  O   -0.488252
     3  H    0.054354
     4  H    0.037911
     5  H    0.059770
     6  H    0.252978
 Sum of Mulliken charges =   0.00000

 Dipole moment (field-independent basis, Debye):
    X=              0.8889    Y=              1.6917    Z=              0.2413  Tot=              1.9262
 Quadrupole moment (field-independent basis, Debye-Ang):
   XX=            -12.7707   YY=            -11.8895   ZZ=            -14.0207
   XY=             -2.4040   XZ=             -0.0445   YZ=              0.1843

 Normal termination of Gaussian 09 at Wed Aug 26 15:36:03 2020.
