 Gaussian 09, Revision D.01,
 Gaussian 09:  ES64L-G09RevD.01 24-Apr-2013

 --------------------
 #p B2PLYPD3/Def2QZVP
 --------------------

 --------
 methanol
 --------
 Symbolic Z-matrix:
 Charge =  0 Multiplicity = 1

                         Standard orientation:
 ---------------------------------------------------------------------
 Center     Atomic      Atomic             Coordinates (Angstroms)
 Number     Number       Type             X           Y           Z
 ---------------------------------------------------------------------
      1          6           0        0.651464   -0.035223   -0.003921
      2          8           0       -0.752883    0.114996   -0.002597
      3          1           0        1.019073   -0.645967   -0.813988
      4          1           0        1.062028   -0.400580    0.939726
      5          1           0        1.108401    1.042925   -0.117410
      6          1           0       -1.075223   -0.705012    0.035976
 ---------------------------------------------------------------------

 SCF Done:  E(RB2PLYPD3) =  -115.542013227     A.U. after   11 cycles
 E2(B2PLYPD3) =    -0.1463125726D+00 E(B2PLYPD3) =    -0.11568832579934D+03

 The electronic state is 1-A.
 Alpha  occ. eigenvalues --  -19.72265 -10.66445  -1.18697  -0.78786  -0.60224
 Alpha  occ. eigenvalues --   -0.52341  -0.49293  -0.40941  -0.35952
 Alpha virt. eigenvalues --    0.05184   0.08498   0.11972   0.12379   0.14872
 Alpha virt. eigenvalues --    0.17380   0.18256   0.28912   0.33316   0.33464
 Alpha virt. eigenvalues --    0.36531   0.37536   0.40228   0.41041   0.43449

 Mulliken charges:
               1
     1  C    0.061264
     2  O   -0.409219
     3  H    0.052725
     4  H    0.053143
     5  H    0.055961
     6  H    0.186125
 Sum of Mulliken charges =   0.00000

 Dipole moment (field-independent basis, Debye):
    X=              0.9024    Y=             -1.5225    Z=              0.0640  Tot=              1.7710
 Quadrupole moment (field-independent basis, Debye-Ang):
   XX=            -13.2146   YY=            -12.3431   ZZ=            -13.7556
   XY=              2.0040   XZ=             -0.0718   YZ=              0.0115

 Normal termination of Gaussian 09 at Wed Aug 26 12:41:33 2020.
