 Gaussian 09, Revision D.01,
 Gaussian 09:  ES64L-G09RevD.01 24-Apr-2013

 --------------------
 #p B2PLYPD3/Def2QZVP
 --------------------

 --------
 methanol
 --------
 Symbolic Z-matrix:
 Charge =  0 Multiplicity = 1

                         Standard orientation:
 ---------------------------------------------------------------------
 Center     Atomic      Atomic             Coordinates (Angstroms)
 Number     Number       Type             X           Y           Z
 ---------------------------------------------------------------------
      1          6           0       -0.661917   -0.032760   -0.001081
      2          8           0        0.748742    0.141003   -0.006651
      3          1           0       -1.026968   -0.444480    0.893630
      4          1           0       -1.009242   -0.615165   -0.818109
      5          1           0       -1.149284    0.950472   -0.063063
      6          1           0        1.167057   -0.822293    0.047236
 ---------------------------------------------------------------------

 SCF Done:  E(RB2PLYPD3) =  -115.542303899     A.U. after   11 cycles
 E2(B2PLYPD3) =    -0.1487883238D+00 E(B2PLYPD3) =    -0.11569109222237D+03

 The electronic state is 1-A.
 Alpha  occ. eigenvalues --  -19.73390 -10.64787  -1.14528  -0.78584  -0.57427
 Alpha  occ. eigenvalues --   -0.52354  -0.49456  -0.40631  -0.35432
 Alpha virt. eigenvalues --    0.04295   0.07847   0.12481   0.12643   0.14793
 Alpha virt. eigenvalues --    0.17610   0.18308   0.29069   0.31450   0.33515
 Alpha virt. eigenvalues --    0.33864   0.38715   0.40016   0.41915   0.43959

 Mulliken charges:
               1
     1  C    0.076612
     2  O   -0.480694
     3  H    0.049330
     4  H    0.047593
     5  H    0.061426
     6  H    0.245732
 Sum of Mulliken charges =   0.00000

 Dipole moment (field-independent basis, Debye):
    X=             -0.8877    Y=             -1.6193    Z=              0.1041  Tot=              1.8496
 Quadrupole moment (field-independent basis, Debye-Ang):
   XX=            -12.8798   YY=            -12.1837   ZZ=            -13.8422
   XY=             -2.3685   XZ=              0.0949   YZ=             -0.0348

 Normal termination of Gaussian 09 at Wed Aug 26 21:35:11 2020.
