 Gaussian 09, Revision D.01,
 Gaussian 09:  ES64L-G09RevD.01 24-Apr-2013

 --------------------
 #p B2PLYPD3/Def2QZVP
 --------------------

 --------
 methanol
 --------
 Symbolic Z-matrix:
 Charge =  0 Multiplicity = 1

                         Standard orientation:
 ---------------------------------------------------------------------
 Center     Atomic      Atomic             Coordinates (Angstroms)
 Number     Number       Type             X           Y           Z
 ---------------------------------------------------------------------
      1          6           0        0.681079    0.018400    0.034914
      2          8           0       -0.728905   -0.185392   -0.023538
      3          1           0        0.952153    0.293658    0.836769
      4          1           0        1.099880    0.705627   -0.729230
      5          1           0        0.963494   -0.777622   -0.196113
      6          1           0       -1.270758    1.151071    0.067394
 ---------------------------------------------------------------------

 SCF Done:  E(RB2PLYPD3) =  -115.376187375     A.U. after   12 cycles
 E2(B2PLYPD3) =    -0.1566807961D+00 E(B2PLYPD3) =    -0.11553286817106D+03

 The electronic state is 1-A.
 Alpha  occ. eigenvalues --  -19.75312 -10.60811  -1.11650  -0.81185  -0.58184
 Alpha  occ. eigenvalues --   -0.52045  -0.48415  -0.39234  -0.35245
 Alpha virt. eigenvalues --   -0.02028   0.07496   0.12774   0.12886   0.14738
 Alpha virt. eigenvalues --    0.16946   0.18494   0.21872   0.29358   0.33259
 Alpha virt. eigenvalues --    0.34304   0.37049   0.40004   0.42674   0.46692

 Mulliken charges:
               1
     1  C    0.031628
     2  O   -0.483356
     3  H    0.074826
     4  H    0.037558
     5  H    0.112266
     6  H    0.227077
 Sum of Mulliken charges =   0.00000

 Dipole moment (field-independent basis, Debye):
    X=              1.0851    Y=              1.6167    Z=              0.2229  Tot=              1.9598
 Quadrupole moment (field-independent basis, Debye-Ang):
   XX=            -12.9509   YY=            -11.4071   ZZ=            -13.8185
   XY=             -2.5296   XZ=             -0.1163   YZ=              0.2502

 Normal termination of Gaussian 09 at Wed Aug 26 19:21:58 2020.
