 Gaussian 09, Revision D.01,
 Gaussian 09:  ES64L-G09RevD.01 24-Apr-2013

 --------------------
 #p B2PLYPD3/Def2QZVP
 --------------------

 --------
 methanol
 --------
 Symbolic Z-matrix:
 Charge =  0 Multiplicity = 1

                         Standard orientation:
 ---------------------------------------------------------------------
 Center     Atomic      Atomic             Coordinates (Angstroms)
 Number     Number       Type             X           Y           Z
 ---------------------------------------------------------------------
      1          6           0        0.669111    0.019868   -0.015414
      2          8           0       -0.731680   -0.182675   -0.003003
      3          1           0        0.969243    0.493331    0.863243
      4          1           0        0.890984    0.583002   -0.822954
      5          1           0        1.220673   -0.737540    0.014426
      6          1           0       -1.242122    1.003404    0.061797
 ---------------------------------------------------------------------

 SCF Done:  E(RB2PLYPD3) =  -115.462211206     A.U. after   11 cycles
 E2(B2PLYPD3) =    -0.1527476619D+00 E(B2PLYPD3) =    -0.11561495886837D+03

 The electronic state is 1-A.
 Alpha  occ. eigenvalues --  -19.74331 -10.61962  -1.12128  -0.80091  -0.54989
 Alpha  occ. eigenvalues --   -0.52925  -0.50689  -0.39328  -0.34709
 Alpha virt. eigenvalues --    0.00598   0.07614   0.12587   0.13148   0.14371
 Alpha virt. eigenvalues --    0.17945   0.18865   0.24208   0.29624   0.32880
 Alpha virt. eigenvalues --    0.33636   0.39692   0.41176   0.42314   0.44810

 Mulliken charges:
               1
     1  C    0.093897
     2  O   -0.497052
     3  H    0.036640
     4  H    0.044029
     5  H    0.065195
     6  H    0.257291
 Sum of Mulliken charges =   0.00000

 Dipole moment (field-independent basis, Debye):
    X=              0.9364    Y=              1.6915    Z=              0.0880  Tot=              1.9354
 Quadrupole moment (field-independent basis, Debye-Ang):
   XX=            -12.6397   YY=            -11.8751   ZZ=            -13.8088
   XY=             -2.8442   XZ=             -0.0523   YZ=             -0.0152

 Normal termination of Gaussian 09 at Wed Aug 26 23:39:18 2020.
