 Gaussian 09, Revision D.01,
 Gaussian 09:  ES64L-G09RevD.01 24-Apr-2013

 --------------------
 #p B2PLYPD3/Def2QZVP
 --------------------

 --------
 methanol
 --------
 Symbolic Z-matrix:
 Charge =  0 Multiplicity = 1

                         Standard orientation:
 ---------------------------------------------------------------------
 Center     Atomic      Atomic             Coordinates (Angstroms)
 Number     Number       Type             X           Y           Z
 ---------------------------------------------------------------------
      1          6           0        0.664127    0.017801    0.007600
      2          8           0       -0.744672   -0.136713   -0.008355
      3          1           0        1.028786    0.468783    0.894066
      4          1           0        1.061315    0.611219   -0.841206
      5          1           0        1.088856   -0.927445   -0.063273
      6          1           0       -1.206347    0.834340    0.031649
 ---------------------------------------------------------------------

 SCF Done:  E(RB2PLYPD3) =  -115.538205188     A.U. after   11 cycles
 E2(B2PLYPD3) =    -0.1491414909D+00 E(B2PLYPD3) =    -0.11568734667940D+03

 The electronic state is 1-A.
 Alpha  occ. eigenvalues --  -19.73496 -10.64708  -1.14168  -0.78563  -0.57285
 Alpha  occ. eigenvalues --   -0.51396  -0.50146  -0.40729  -0.35071
 Alpha virt. eigenvalues --    0.04044   0.07784   0.12557   0.12703   0.14948
 Alpha virt. eigenvalues --    0.17349   0.18299   0.29040   0.30880   0.33448
 Alpha virt. eigenvalues --    0.34076   0.38792   0.40198   0.41152   0.43728

 Mulliken charges:
               1
     1  C    0.074675
     2  O   -0.484742
     3  H    0.048265
     4  H    0.039808
     5  H    0.071005
     6  H    0.250988
 Sum of Mulliken charges =   0.00000

 Dipole moment (field-independent basis, Debye):
    X=              0.8106    Y=              1.5560    Z=              0.1074  Tot=              1.7577
 Quadrupole moment (field-independent basis, Debye-Ang):
   XX=            -12.7456   YY=            -12.1412   ZZ=            -13.9232
   XY=             -2.4628   XZ=             -0.0733   YZ=              0.0896

 Normal termination of Gaussian 09 at Thu Aug 27 00:06:37 2020.
