 Gaussian 09, Revision D.01,
 Gaussian 09:  ES64L-G09RevD.01 24-Apr-2013

 --------------------
 #p B2PLYPD3/Def2QZVP
 --------------------

 --------
 methanol
 --------
 Symbolic Z-matrix:
 Charge =  0 Multiplicity = 1

                         Standard orientation:
 ---------------------------------------------------------------------
 Center     Atomic      Atomic             Coordinates (Angstroms)
 Number     Number       Type             X           Y           Z
 ---------------------------------------------------------------------
      1          6           0        0.702928   -0.011480   -0.012396
      2          8           0       -0.751210   -0.185262    0.013695
      3          1           0        1.111629    0.546220    0.800895
      4          1           0        1.009866    0.522199   -0.762510
      5          1           0        0.892969   -0.760945   -0.035746
      6          1           0       -1.222352    1.243499   -0.037828
 ---------------------------------------------------------------------

 SCF Done:  E(RB2PLYPD3) =  -115.306704819     A.U. after   12 cycles
 E2(B2PLYPD3) =    -0.1591650633D+00 E(B2PLYPD3) =    -0.11546586988185D+03

 The electronic state is 1-A.
 Alpha  occ. eigenvalues --  -19.75713 -10.60747  -1.10511  -0.82330  -0.59554
 Alpha  occ. eigenvalues --   -0.51052  -0.47329  -0.39845  -0.35056
 Alpha virt. eigenvalues --   -0.03206   0.07290   0.12822   0.12899   0.14202
 Alpha virt. eigenvalues --    0.17043   0.18165   0.21506   0.29113   0.32590
 Alpha virt. eigenvalues --    0.33456   0.36746   0.40548   0.41592   0.45048

 Mulliken charges:
               1
     1  C   -0.086721
     2  O   -0.485997
     3  H    0.055726
     4  H    0.054130
     5  H    0.247055
     6  H    0.215806
 Sum of Mulliken charges =   0.00000

 Dipole moment (field-independent basis, Debye):
    X=              1.3027    Y=              1.7088    Z=             -0.1558  Tot=              2.1543
 Quadrupole moment (field-independent basis, Debye-Ang):
   XX=            -13.1827   YY=            -10.8874   ZZ=            -14.0712
   XY=             -2.2762   XZ=              0.0297   YZ=             -0.0799

 Normal termination of Gaussian 09 at Wed Aug 26 21:34:33 2020.
