 Gaussian 09, Revision D.01,
 Gaussian 09:  ES64L-G09RevD.01 24-Apr-2013

 --------------------
 #p B2PLYPD3/Def2QZVP
 --------------------

 --------
 methanol
 --------
 Symbolic Z-matrix:
 Charge =  0 Multiplicity = 1

                         Standard orientation:
 ---------------------------------------------------------------------
 Center     Atomic      Atomic             Coordinates (Angstroms)
 Number     Number       Type             X           Y           Z
 ---------------------------------------------------------------------
      1          6           0       -0.678971   -0.030813    0.013301
      2          8           0        0.751987   -0.082887   -0.046934
      3          1           0       -1.038720    1.043703   -0.600808
      4          1           0       -0.948915    0.085275    1.033270
      5          1           0       -1.023476   -0.878630   -0.401045
      6          1           0        1.069041    0.597631    0.264244
 ---------------------------------------------------------------------

 SCF Done:  E(RB2PLYPD3) =  -115.502531283     A.U. after   10 cycles
 E2(B2PLYPD3) =    -0.1453863103D+00 E(B2PLYPD3) =    -0.11564791759338D+03

 The electronic state is 1-A.
 Alpha  occ. eigenvalues --  -19.70883 -10.66921  -1.19677  -0.80610  -0.60109
 Alpha  occ. eigenvalues --   -0.52613  -0.50177  -0.41870  -0.34900
 Alpha virt. eigenvalues --    0.05097   0.08878   0.11328   0.12476   0.14626
 Alpha virt. eigenvalues --    0.16903   0.17600   0.28920   0.31140   0.32434
 Alpha virt. eigenvalues --    0.35346   0.39337   0.40403   0.41705   0.44591

 Mulliken charges:
               1
     1  C    0.070539
     2  O   -0.371690
     3  H    0.017845
     4  H    0.056588
     5  H    0.092957
     6  H    0.133760
 Sum of Mulliken charges =   0.00000

 Dipole moment (field-independent basis, Debye):
    X=             -0.9631    Y=              1.0190    Z=              0.7291  Tot=              1.5804
 Quadrupole moment (field-independent basis, Debye-Ang):
   XX=            -13.4697   YY=            -12.4244   ZZ=            -13.4648
   XY=              2.1285   XZ=              0.7123   YZ=              0.6124

 Normal termination of Gaussian 09 at Wed Aug 26 22:36:21 2020.
