 Gaussian 09, Revision D.01,
 Gaussian 09:  ES64L-G09RevD.01 24-Apr-2013

 --------------------
 #p B2PLYPD3/Def2QZVP
 --------------------

 --------
 methanol
 --------
 Symbolic Z-matrix:
 Charge =  0 Multiplicity = 1

                         Standard orientation:
 ---------------------------------------------------------------------
 Center     Atomic      Atomic             Coordinates (Angstroms)
 Number     Number       Type             X           Y           Z
 ---------------------------------------------------------------------
      1          6           0       -0.665943   -0.019966    0.003371
      2          8           0        0.751482    0.106399   -0.006509
      3          1           0       -0.988286   -0.506516    0.945467
      4          1           0       -1.013684   -0.570469   -0.920497
      5          1           0       -1.088018    1.003501   -0.021520
      6          1           0        1.073794   -0.657910    0.028394
 ---------------------------------------------------------------------

 SCF Done:  E(RB2PLYPD3) =  -115.531546992     A.U. after   10 cycles
 E2(B2PLYPD3) =    -0.1453652229D+00 E(B2PLYPD3) =    -0.11567691221466D+03

 The electronic state is 1-A.
 Alpha  occ. eigenvalues --  -19.71218 -10.66660  -1.19508  -0.79436  -0.59970
 Alpha  occ. eigenvalues --   -0.52099  -0.50125  -0.41278  -0.35763
 Alpha virt. eigenvalues --    0.05363   0.08816   0.11994   0.12355   0.14464
 Alpha virt. eigenvalues --    0.17295   0.17950   0.28882   0.32895   0.33128
 Alpha virt. eigenvalues --    0.37245   0.39021   0.40029   0.40370   0.43707

 Mulliken charges:
               1
     1  C    0.064327
     2  O   -0.384882
     3  H    0.051444
     4  H    0.049010
     5  H    0.072629
     6  H    0.147472
 Sum of Mulliken charges =   0.00000

 Dipole moment (field-independent basis, Debye):
    X=             -0.9678    Y=             -1.3706    Z=              0.0855  Tot=              1.6801
 Quadrupole moment (field-independent basis, Debye-Ang):
   XX=            -13.2799   YY=            -12.3846   ZZ=            -13.5569
   XY=             -2.1229   XZ=              0.0858   YZ=             -0.0515

 Normal termination of Gaussian 09 at Wed Aug 26 10:35:42 2020.
