 Gaussian 09, Revision D.01,
 Gaussian 09:  ES64L-G09RevD.01 24-Apr-2013

 --------------------
 #p B2PLYPD3/Def2QZVP
 --------------------

 --------
 methanol
 --------
 Symbolic Z-matrix:
 Charge =  0 Multiplicity = 1

                         Standard orientation:
 ---------------------------------------------------------------------
 Center     Atomic      Atomic             Coordinates (Angstroms)
 Number     Number       Type             X           Y           Z
 ---------------------------------------------------------------------
      1          6           0        0.668057   -0.029158    0.002078
      2          8           0       -0.755536    0.127175   -0.004076
      3          1           0        1.050754   -0.562828   -0.863277
      4          1           0        1.059290   -0.498913    0.878263
      5          1           0        1.098343    0.996373   -0.022095
      6          1           0       -1.172439   -0.777087    0.027247
 ---------------------------------------------------------------------

 SCF Done:  E(RB2PLYPD3) =  -115.549625853     A.U. after   10 cycles
 E2(B2PLYPD3) =    -0.1481421976D+00 E(B2PLYPD3) =    -0.11569776805063D+03

 The electronic state is 1-A.
 Alpha  occ. eigenvalues --  -19.73032 -10.65601  -1.15075  -0.78568  -0.58192
 Alpha  occ. eigenvalues --   -0.51678  -0.49162  -0.40896  -0.35574
 Alpha virt. eigenvalues --    0.04771   0.07936   0.12330   0.12513   0.14919
 Alpha virt. eigenvalues --    0.17268   0.18316   0.29041   0.33021   0.33667
 Alpha virt. eigenvalues --    0.34035   0.38131   0.39739   0.41193   0.43847

 Mulliken charges:
               1
     1  C    0.069114
     2  O   -0.471068
     3  H    0.050429
     4  H    0.052362
     5  H    0.065164
     6  H    0.233999
 Sum of Mulliken charges =   0.00000

 Dipole moment (field-independent basis, Debye):
    X=              0.8835    Y=             -1.5615    Z=              0.0711  Tot=              1.7955
 Quadrupole moment (field-independent basis, Debye-Ang):
   XX=            -12.8484   YY=            -12.2528   ZZ=            -13.8612
   XY=              2.2625   XZ=             -0.0439   YZ=             -0.0399

 Normal termination of Gaussian 09 at Wed Aug 26 19:04:28 2020.
