 Gaussian 09, Revision D.01,
 Gaussian 09:  ES64L-G09RevD.01 24-Apr-2013

 --------------------
 #p B2PLYPD3/Def2QZVP
 --------------------

 --------
 methanol
 --------
 Symbolic Z-matrix:
 Charge =  0 Multiplicity = 1

                         Standard orientation:
 ---------------------------------------------------------------------
 Center     Atomic      Atomic             Coordinates (Angstroms)
 Number     Number       Type             X           Y           Z
 ---------------------------------------------------------------------
      1          6           0        0.676256    0.013978    0.009783
      2          8           0       -0.736843   -0.154793   -0.009325
      3          1           0        1.072621    0.416014    0.831735
      4          1           0        0.988268    0.653940   -0.802271
      5          1           0        0.984604   -0.893592   -0.095911
      6          1           0       -1.208283    0.978114    0.082353
 ---------------------------------------------------------------------

 SCF Done:  E(RB2PLYPD3) =  -115.488383953     A.U. after   11 cycles
 E2(B2PLYPD3) =    -0.1520474126D+00 E(B2PLYPD3) =    -0.11564043136520D+03

 The electronic state is 1-A.
 Alpha  occ. eigenvalues --  -19.74232 -10.62710  -1.12475  -0.79364  -0.56970
 Alpha  occ. eigenvalues --   -0.51897  -0.49053  -0.40892  -0.34853
 Alpha virt. eigenvalues --    0.01955   0.07740   0.12641   0.12805   0.15018
 Alpha virt. eigenvalues --    0.16984   0.18252   0.25825   0.29535   0.33182
 Alpha virt. eigenvalues --    0.34493   0.38173   0.40259   0.42082   0.44857

 Mulliken charges:
               1
     1  C    0.085338
     2  O   -0.493470
     3  H    0.045990
     4  H    0.038462
     5  H    0.075579
     6  H    0.248102
 Sum of Mulliken charges =   0.00000

 Dipole moment (field-independent basis, Debye):
    X=              0.9548    Y=              1.6375    Z=              0.1929  Tot=              1.9054
 Quadrupole moment (field-independent basis, Debye-Ang):
   XX=            -12.9844   YY=            -11.6181   ZZ=            -13.9459
   XY=             -2.4121   XZ=             -0.0295   YZ=              0.1690

 Normal termination of Gaussian 09 at Wed Aug 26 18:32:43 2020.
