 Gaussian 09, Revision D.01,
 Gaussian 09:  ES64L-G09RevD.01 24-Apr-2013

 --------------------
 #p B2PLYPD3/Def2QZVP
 --------------------

 --------
 methanol
 --------
 Symbolic Z-matrix:
 Charge =  0 Multiplicity = 1

                         Standard orientation:
 ---------------------------------------------------------------------
 Center     Atomic      Atomic             Coordinates (Angstroms)
 Number     Number       Type             X           Y           Z
 ---------------------------------------------------------------------
      1          6           0        0.674385   -0.020127    0.002603
      2          8           0       -0.752341    0.103455   -0.009480
      3          1           0        0.994825   -0.649831   -0.890885
      4          1           0        1.074380   -0.424177    0.961120
      5          1           0        1.052873    1.011736   -0.102355
      6          1           0       -1.149654   -0.644608    0.092339
 ---------------------------------------------------------------------

 SCF Done:  E(RB2PLYPD3) =  -115.537891352     A.U. after   10 cycles
 E2(B2PLYPD3) =    -0.1458516646D+00 E(B2PLYPD3) =    -0.11568374301658D+03

 The electronic state is 1-A.
 Alpha  occ. eigenvalues --  -19.71348 -10.66887  -1.18170  -0.79411  -0.59621
 Alpha  occ. eigenvalues --   -0.51572  -0.49801  -0.40846  -0.35641
 Alpha virt. eigenvalues --    0.05357   0.08567   0.12063   0.12318   0.14585
 Alpha virt. eigenvalues --    0.16962   0.18118   0.28984   0.32518   0.33497
 Alpha virt. eigenvalues --    0.37163   0.38918   0.39596   0.40284   0.42855

 Mulliken charges:
               1
     1  C    0.062699
     2  O   -0.410532
     3  H    0.050755
     4  H    0.053740
     5  H    0.075952
     6  H    0.167386
 Sum of Mulliken charges =   0.00000

 Dipole moment (field-independent basis, Debye):
    X=              0.8805    Y=             -1.3490    Z=              0.2079  Tot=              1.6243
 Quadrupole moment (field-independent basis, Debye-Ang):
   XX=            -12.9701   YY=            -12.4693   ZZ=            -13.6252
   XY=              2.1583   XZ=             -0.1713   YZ=             -0.1247

 Normal termination of Gaussian 09 at Thu Aug 27 00:14:51 2020.
