 Gaussian 09, Revision D.01,
 Gaussian 09:  ES64L-G09RevD.01 24-Apr-2013

 --------------------
 #p B2PLYPD3/Def2QZVP
 --------------------

 --------
 methanol
 --------
 Symbolic Z-matrix:
 Charge =  0 Multiplicity = 1

                         Standard orientation:
 ---------------------------------------------------------------------
 Center     Atomic      Atomic             Coordinates (Angstroms)
 Number     Number       Type             X           Y           Z
 ---------------------------------------------------------------------
      1          6           0       -0.668670    0.011705    0.030460
      2          8           0        0.750705   -0.185941   -0.036119
      3          1           0       -1.136961    0.717881   -0.738233
      4          1           0       -0.938404    0.409651    0.750244
      5          1           0       -1.198542   -0.804128   -0.033576
      6          1           0        1.280287    1.093891    0.127762
 ---------------------------------------------------------------------

 SCF Done:  E(RB2PLYPD3) =  -115.402486714     A.U. after   11 cycles
 E2(B2PLYPD3) =    -0.1558182024D+00 E(B2PLYPD3) =    -0.11555830491609D+03

 The electronic state is 1-A.
 Alpha  occ. eigenvalues --  -19.75649 -10.62091  -1.11322  -0.81505  -0.55674
 Alpha  occ. eigenvalues --   -0.50305  -0.49921  -0.39987  -0.34910
 Alpha virt. eigenvalues --   -0.01488   0.07138   0.12653   0.13123   0.14697
 Alpha virt. eigenvalues --    0.18084   0.18595   0.22168   0.29807   0.32803
 Alpha virt. eigenvalues --    0.33546   0.37768   0.40022   0.40512   0.45040

 Mulliken charges:
               1
     1  C    0.060048
     2  O   -0.487305
     3  H    0.027046
     4  H    0.089725
     5  H    0.061820
     6  H    0.248666
 Sum of Mulliken charges =   0.00000

 Dipole moment (field-independent basis, Debye):
    X=             -0.9556    Y=              1.7193    Z=              0.4687  Tot=              2.0222
 Quadrupole moment (field-independent basis, Debye-Ang):
   XX=            -12.5342   YY=            -11.5517   ZZ=            -14.2129
   XY=              2.7338   XZ=              0.1202   YZ=              0.3464

 Normal termination of Gaussian 09 at Wed Aug 26 21:38:16 2020.
