 Gaussian 09, Revision D.01,
 Gaussian 09:  ES64L-G09RevD.01 24-Apr-2013

 --------------------
 #p B2PLYPD3/Def2QZVP
 --------------------

 --------
 methanol
 --------
 Symbolic Z-matrix:
 Charge =  0 Multiplicity = 1

                         Standard orientation:
 ---------------------------------------------------------------------
 Center     Atomic      Atomic             Coordinates (Angstroms)
 Number     Number       Type             X           Y           Z
 ---------------------------------------------------------------------
      1          6           0        0.645579   -0.001623   -0.004186
      2          8           0       -0.732551   -0.021361    0.069297
      3          1           0        1.030777    1.155836   -0.168817
      4          1           0        0.877993   -0.764700   -0.895063
      5          1           0        1.048550   -0.417637    0.941576
      6          1           0       -0.970389    0.207128   -0.406956
 ---------------------------------------------------------------------

 SCF Done:  E(RB2PLYPD3) =  -115.145390728     A.U. after   11 cycles
 E2(B2PLYPD3) =    -0.1426472579D+00 E(B2PLYPD3) =    -0.11528803798634D+03

 The electronic state is 1-A.
 Alpha  occ. eigenvalues --  -19.68693 -10.68846  -1.31490  -0.83447  -0.61969
 Alpha  occ. eigenvalues --   -0.52537  -0.52072  -0.41284  -0.35807
 Alpha virt. eigenvalues --    0.05217   0.09771   0.11201   0.12173   0.13863
 Alpha virt. eigenvalues --    0.16878   0.17601   0.27629   0.32094   0.33109
 Alpha virt. eigenvalues --    0.35641   0.37738   0.39675   0.41836   0.44037

 Mulliken charges:
               1
     1  C    0.044812
     2  O   -0.122973
     3  H    0.037086
     4  H    0.042397
     5  H    0.088340
     6  H   -0.089662
 Sum of Mulliken charges =   0.00000

 Dipole moment (field-independent basis, Debye):
    X=              0.9067    Y=              0.4110    Z=             -0.9052  Tot=              1.3455
 Quadrupole moment (field-independent basis, Debye-Ang):
   XX=            -13.6644   YY=            -13.0620   ZZ=            -12.7199
   XY=             -0.6922   XZ=              1.7990   YZ=             -0.3553

 Normal termination of Gaussian 09 at Wed Aug 26 23:49:10 2020.
