 Gaussian 09, Revision D.01,
 Gaussian 09:  ES64L-G09RevD.01 24-Apr-2013

 --------------------
 #p B2PLYPD3/Def2QZVP
 --------------------

 --------
 methanol
 --------
 Symbolic Z-matrix:
 Charge =  0 Multiplicity = 1

                         Standard orientation:
 ---------------------------------------------------------------------
 Center     Atomic      Atomic             Coordinates (Angstroms)
 Number     Number       Type             X           Y           Z
 ---------------------------------------------------------------------
      1          6           0        0.660946   -0.015376   -0.009986
      2          8           0       -0.756400    0.059031   -0.006096
      3          1           0        1.157992   -0.702038   -0.854269
      4          1           0        0.991568   -0.412114    1.116494
      5          1           0        1.076209    1.117505   -0.130933
      6          1           0       -1.140248   -0.383344   -0.022612
 ---------------------------------------------------------------------

 SCF Done:  E(RB2PLYPD3) =  -115.153220065     A.U. after   11 cycles
 E2(B2PLYPD3) =    -0.1438804335D+00 E(B2PLYPD3) =    -0.11529710049805D+03

 The electronic state is 1-A.
 Alpha  occ. eigenvalues --  -19.68724 -10.70864  -1.28973  -0.83841  -0.62105
 Alpha  occ. eigenvalues --   -0.50649  -0.50155  -0.39724  -0.35992
 Alpha virt. eigenvalues --    0.04986   0.09316   0.11362   0.11504   0.14190
 Alpha virt. eigenvalues --    0.16596   0.17923   0.28668   0.31397   0.33239
 Alpha virt. eigenvalues --    0.34812   0.35687   0.37020   0.41088   0.42273

 Mulliken charges:
               1
     1  C    0.045043
     2  O   -0.136751
     3  H    0.056414
     4  H    0.048481
     5  H    0.084016
     6  H   -0.097205
 Sum of Mulliken charges =   0.00000

 Dipole moment (field-independent basis, Debye):
    X=              0.8352    Y=             -1.0035    Z=             -0.1058  Tot=              1.3099
 Quadrupole moment (field-independent basis, Debye-Ang):
   XX=            -12.7669   YY=            -12.8226   ZZ=            -13.5462
   XY=              1.7184   XZ=             -0.1984   YZ=              0.0938

 Normal termination of Gaussian 09 at Wed Aug 26 20:58:32 2020.
