 Gaussian 09, Revision D.01,
 Gaussian 09:  ES64L-G09RevD.01 24-Apr-2013

 --------------------
 #p B2PLYPD3/Def2QZVP
 --------------------

 --------
 methanol
 --------
 Symbolic Z-matrix:
 Charge =  0 Multiplicity = 1

                         Standard orientation:
 ---------------------------------------------------------------------
 Center     Atomic      Atomic             Coordinates (Angstroms)
 Number     Number       Type             X           Y           Z
 ---------------------------------------------------------------------
      1          6           0        0.673805   -0.023246   -0.010626
      2          8           0       -0.760253    0.088228    0.007634
      3          1           0        0.999940   -0.536678   -0.923746
      4          1           0        1.058207   -0.573767    0.924419
      5          1           0        1.057930    1.105636    0.017340
      6          1           0       -1.076879   -0.561538   -0.015327
 ---------------------------------------------------------------------

 SCF Done:  E(RB2PLYPD3) =  -115.450085847     A.U. after   11 cycles
 E2(B2PLYPD3) =    -0.1443791180D+00 E(B2PLYPD3) =    -0.11559446496466D+03

 The electronic state is 1-A.
 Alpha  occ. eigenvalues --  -19.69971 -10.68050  -1.22858  -0.80459  -0.61329
 Alpha  occ. eigenvalues --   -0.51803  -0.49126  -0.41285  -0.36255
 Alpha virt. eigenvalues --    0.05334   0.09097   0.11641   0.11994   0.14640
 Alpha virt. eigenvalues --    0.16891   0.17741   0.28798   0.31926   0.33190
 Alpha virt. eigenvalues --    0.36097   0.38323   0.40084   0.40472   0.42357

 Mulliken charges:
               1
     1  C    0.056138
     2  O   -0.280533
     3  H    0.060931
     4  H    0.052346
     5  H    0.072593
     6  H    0.038525
 Sum of Mulliken charges =   0.00000

 Dipole moment (field-independent basis, Debye):
    X=              1.0084    Y=             -1.3234    Z=             -0.0946  Tot=              1.6665
 Quadrupole moment (field-independent basis, Debye-Ang):
   XX=            -13.2396   YY=            -12.3932   ZZ=            -13.5600
   XY=              1.8600   XZ=              0.0583   YZ=              0.0809

 Normal termination of Gaussian 09 at Wed Aug 26 11:31:38 2020.
