 Gaussian 09, Revision D.01,
 Gaussian 09:  ES64L-G09RevD.01 24-Apr-2013

 --------------------
 #p B2PLYPD3/Def2QZVP
 --------------------

 --------
 methanol
 --------
 Symbolic Z-matrix:
 Charge =  0 Multiplicity = 1

                         Standard orientation:
 ---------------------------------------------------------------------
 Center     Atomic      Atomic             Coordinates (Angstroms)
 Number     Number       Type             X           Y           Z
 ---------------------------------------------------------------------
      1          6           0       -0.653161    0.033226    0.005834
      2          8           0        0.736757   -0.149638   -0.008021
      3          1           0       -1.012002    0.585661   -0.829912
      4          1           0       -1.033902    0.467913    0.843690
      5          1           0       -1.112419   -0.938603   -0.036746
      6          1           0        1.183230    0.882780    0.052129
 ---------------------------------------------------------------------

 SCF Done:  E(RB2PLYPD3) =  -115.526370585     A.U. after   11 cycles
 E2(B2PLYPD3) =    -0.1498236051D+00 E(B2PLYPD3) =    -0.11567619418980D+03

 The electronic state is 1-A.
 Alpha  occ. eigenvalues --  -19.73910 -10.63900  -1.14218  -0.78594  -0.57076
 Alpha  occ. eigenvalues --   -0.52470  -0.49635  -0.40413  -0.35220
 Alpha virt. eigenvalues --    0.03414   0.07763   0.12607   0.12746   0.15027
 Alpha virt. eigenvalues --    0.17512   0.18376   0.28295   0.29740   0.33535
 Alpha virt. eigenvalues --    0.34886   0.38883   0.39767   0.42297   0.44331

 Mulliken charges:
               1
     1  C    0.079814
     2  O   -0.481161
     3  H    0.042666
     4  H    0.046149
     5  H    0.059656
     6  H    0.252877
 Sum of Mulliken charges =   0.00000

 Dipole moment (field-independent basis, Debye):
    X=             -0.8270    Y=              1.6596    Z=              0.1387  Tot=              1.8594
 Quadrupole moment (field-independent basis, Debye-Ang):
   XX=            -12.8739   YY=            -12.0290   ZZ=            -13.9008
   XY=              2.3947   XZ=              0.0553   YZ=              0.0849

 Normal termination of Gaussian 09 at Thu Aug 27 00:10:15 2020.
