 Gaussian 09, Revision D.01,
 Gaussian 09:  ES64L-G09RevD.01 24-Apr-2013

 --------------------
 #p B2PLYPD3/Def2QZVP
 --------------------

 --------
 methanol
 --------
 Symbolic Z-matrix:
 Charge =  0 Multiplicity = 1

                         Standard orientation:
 ---------------------------------------------------------------------
 Center     Atomic      Atomic             Coordinates (Angstroms)
 Number     Number       Type             X           Y           Z
 ---------------------------------------------------------------------
      1          6           0       -0.657189    0.041064   -0.003171
      2          8           0        0.722637   -0.170756   -0.002728
      3          1           0       -1.007593    0.496467   -0.792861
      4          1           0       -0.899336    0.543558    0.814669
      5          1           0       -1.098663   -0.902428    0.037589
      6          1           0        1.167629    0.982069   -0.018547
 ---------------------------------------------------------------------

 SCF Done:  E(RB2PLYPD3) =  -115.487116817     A.U. after   11 cycles
 E2(B2PLYPD3) =    -0.1514795180D+00 E(B2PLYPD3) =    -0.11563859633536D+03

 The electronic state is 1-A.
 Alpha  occ. eigenvalues --  -19.74143 -10.62000  -1.13449  -0.79289  -0.56285
 Alpha  occ. eigenvalues --   -0.54252  -0.49250  -0.40112  -0.35088
 Alpha virt. eigenvalues --    0.01788   0.07845   0.12652   0.12841   0.14918
 Alpha virt. eigenvalues --    0.17607   0.18131   0.25478   0.29514   0.33245
 Alpha virt. eigenvalues --    0.35237   0.39389   0.40022   0.43789   0.44876

 Mulliken charges:
               1
     1  C    0.100723
     2  O   -0.486033
     3  H    0.040543
     4  H    0.041656
     5  H    0.056458
     6  H    0.246652
 Sum of Mulliken charges =   0.00000

 Dipole moment (field-independent basis, Debye):
    X=             -0.9505    Y=              1.7409    Z=             -0.0255  Tot=              1.9836
 Quadrupole moment (field-independent basis, Debye-Ang):
   XX=            -13.1119   YY=            -11.6732   ZZ=            -13.7897
   XY=              2.3954   XZ=              0.0680   YZ=             -0.0331

 Normal termination of Gaussian 09 at Wed Aug 26 15:47:09 2020.
