 Gaussian 09, Revision D.01,
 Gaussian 09:  ES64L-G09RevD.01 24-Apr-2013

 --------------------
 #p B2PLYPD3/Def2QZVP
 --------------------

 --------
 methanol
 --------
 Symbolic Z-matrix:
 Charge =  0 Multiplicity = 1

                         Standard orientation:
 ---------------------------------------------------------------------
 Center     Atomic      Atomic             Coordinates (Angstroms)
 Number     Number       Type             X           Y           Z
 ---------------------------------------------------------------------
      1          6           0       -0.659066    0.002858    0.009040
      2          8           0        0.767885   -0.133579   -0.009040
      3          1           0       -1.221658    0.537275   -0.843390
      4          1           0       -1.079438    0.470123    0.893740
      5          1           0       -1.015519   -0.907883   -0.028963
      6          1           0        1.127930    0.951965   -0.003304
 ---------------------------------------------------------------------

 SCF Done:  E(RB2PLYPD3) =  -115.511158481     A.U. after   11 cycles
 E2(B2PLYPD3) =    -0.1515700321D+00 E(B2PLYPD3) =    -0.11566272851348D+03

 The electronic state is 1-A.
 Alpha  occ. eigenvalues --  -19.74825 -10.64849  -1.13455  -0.78724  -0.56501
 Alpha  occ. eigenvalues --   -0.50484  -0.49375  -0.41599  -0.35214
 Alpha virt. eigenvalues --    0.03150   0.07317   0.12464   0.12665   0.15097
 Alpha virt. eigenvalues --    0.17236   0.18704   0.27377   0.29618   0.33012
 Alpha virt. eigenvalues --    0.34104   0.37061   0.39446   0.40747   0.43350

 Mulliken charges:
               1
     1  C    0.063211
     2  O   -0.474322
     3  H    0.034270
     4  H    0.046230
     5  H    0.074398
     6  H    0.256214
 Sum of Mulliken charges =   0.00000

 Dipole moment (field-independent basis, Debye):
    X=             -0.9616    Y=              1.5469    Z=              0.0776  Tot=              1.8231
 Quadrupole moment (field-independent basis, Debye-Ang):
   XX=            -13.0964   YY=            -11.8794   ZZ=            -14.1464
   XY=              2.3378   XZ=              0.0226   YZ=              0.0745

 Normal termination of Gaussian 09 at Wed Aug 26 23:09:44 2020.
