 Gaussian 09, Revision D.01,
 Gaussian 09:  ES64L-G09RevD.01 24-Apr-2013

 --------------------
 #p B2PLYPD3/Def2QZVP
 --------------------

 --------
 methanol
 --------
 Symbolic Z-matrix:
 Charge =  0 Multiplicity = 1

                         Standard orientation:
 ---------------------------------------------------------------------
 Center     Atomic      Atomic             Coordinates (Angstroms)
 Number     Number       Type             X           Y           Z
 ---------------------------------------------------------------------
      1          6           0        0.671685   -0.021503   -0.013445
      2          8           0       -0.769361    0.094612    0.000288
      3          1           0        1.053762   -0.633994   -0.839759
      4          1           0        1.112263   -0.459109    0.949110
      5          1           0        1.062341    1.090125   -0.068787
      6          1           0       -1.103585   -0.624899    0.037803
 ---------------------------------------------------------------------

 SCF Done:  E(RB2PLYPD3) =  -115.508164183     A.U. after   10 cycles
 E2(B2PLYPD3) =    -0.1455603755D+00 E(B2PLYPD3) =    -0.11565372455824D+03

 The electronic state is 1-A.
 Alpha  occ. eigenvalues --  -19.71204 -10.67785  -1.20141  -0.79528  -0.60848
 Alpha  occ. eigenvalues --   -0.51108  -0.48848  -0.41519  -0.36091
 Alpha virt. eigenvalues --    0.05325   0.08614   0.11708   0.12193   0.14909
 Alpha virt. eigenvalues --    0.16958   0.18046   0.28866   0.31894   0.33392
 Alpha virt. eigenvalues --    0.36365   0.38616   0.39488   0.40059   0.41891

 Mulliken charges:
               1
     1  C    0.057367
     2  O   -0.350466
     3  H    0.059408
     4  H    0.050434
     5  H    0.069884
     6  H    0.113372
 Sum of Mulliken charges =   0.00000

 Dipole moment (field-independent basis, Debye):
    X=              0.9880    Y=             -1.3958    Z=              0.0327  Tot=              1.7104
 Quadrupole moment (field-independent basis, Debye-Ang):
   XX=            -13.0657   YY=            -12.3548   ZZ=            -13.8042
   XY=              1.9110   XZ=             -0.0952   YZ=              0.0366

 Normal termination of Gaussian 09 at Wed Aug 26 14:00:25 2020.
