 Gaussian 09, Revision D.01,
 Gaussian 09:  ES64L-G09RevD.01 24-Apr-2013

 --------------------
 #p B2PLYPD3/Def2QZVP
 --------------------

 --------
 methanol
 --------
 Symbolic Z-matrix:
 Charge =  0 Multiplicity = 1

                         Standard orientation:
 ---------------------------------------------------------------------
 Center     Atomic      Atomic             Coordinates (Angstroms)
 Number     Number       Type             X           Y           Z
 ---------------------------------------------------------------------
      1          6           0        0.689026    0.049773    0.008825
      2          8           0       -0.742259   -0.172193   -0.014418
      3          1           0        0.987853    0.364556    0.788362
      4          1           0        0.997065    0.701551   -0.691037
      5          1           0        1.094404   -0.958543   -0.108207
      6          1           0       -1.275404    0.971340    0.073277
 ---------------------------------------------------------------------

 SCF Done:  E(RB2PLYPD3) =  -115.457801254     A.U. after   11 cycles
 E2(B2PLYPD3) =    -0.1528887211D+00 E(B2PLYPD3) =    -0.11561068997505D+03

 The electronic state is 1-A.
 Alpha  occ. eigenvalues --  -19.74340 -10.62290  -1.11241  -0.80605  -0.55621
 Alpha  occ. eigenvalues --   -0.53770  -0.47671  -0.40231  -0.35370
 Alpha virt. eigenvalues --    0.01498   0.07527   0.12097   0.13174   0.15078
 Alpha virt. eigenvalues --    0.17050   0.18188   0.24958   0.29436   0.33239
 Alpha virt. eigenvalues --    0.33795   0.37577   0.39400   0.43656   0.44651

 Mulliken charges:
               1
     1  C    0.080179
     2  O   -0.505150
     3  H    0.072529
     4  H    0.045942
     5  H    0.063297
     6  H    0.243203
 Sum of Mulliken charges =   0.00000

 Dipole moment (field-independent basis, Debye):
    X=              1.0054    Y=              1.7763    Z=              0.2247  Tot=              2.0535
 Quadrupole moment (field-independent basis, Debye-Ang):
   XX=            -12.6767   YY=            -11.6175   ZZ=            -13.9765
   XY=             -2.3897   XZ=             -0.0512   YZ=              0.0924

 Normal termination of Gaussian 09 at Wed Aug 26 20:14:21 2020.
