 Gaussian 09, Revision D.01,
 Gaussian 09:  ES64L-G09RevD.01 24-Apr-2013

 --------------------
 #p B2PLYPD3/Def2QZVP
 --------------------

 --------
 methanol
 --------
 Symbolic Z-matrix:
 Charge =  0 Multiplicity = 1

                         Standard orientation:
 ---------------------------------------------------------------------
 Center     Atomic      Atomic             Coordinates (Angstroms)
 Number     Number       Type             X           Y           Z
 ---------------------------------------------------------------------
      1          6           0       -0.644433    0.003037    0.000840
      2          8           0        0.735107   -0.156818   -0.014483
      3          1           0       -1.047008    0.631693   -0.795899
      4          1           0       -1.015574    0.436802    0.858001
      5          1           0       -1.073971   -0.842616   -0.032687
      6          1           0        1.122291    1.010444    0.081410
 ---------------------------------------------------------------------

 SCF Done:  E(RB2PLYPD3) =  -115.486515897     A.U. after   11 cycles
 E2(B2PLYPD3) =    -0.1517753817D+00 E(B2PLYPD3) =    -0.11563829127874D+03

 The electronic state is 1-A.
 Alpha  occ. eigenvalues --  -19.74679 -10.62731  -1.13923  -0.79321  -0.56562
 Alpha  occ. eigenvalues --   -0.51700  -0.50708  -0.40793  -0.34702
 Alpha virt. eigenvalues --    0.01585   0.07703   0.12685   0.12953   0.15029
 Alpha virt. eigenvalues --    0.17761   0.18377   0.25360   0.29603   0.33234
 Alpha virt. eigenvalues --    0.35340   0.38587   0.41237   0.41604   0.43735

 Mulliken charges:
               1
     1  C    0.087140
     2  O   -0.476560
     3  H    0.030609
     4  H    0.034417
     5  H    0.068035
     6  H    0.256359
 Sum of Mulliken charges =   0.00000

 Dipole moment (field-independent basis, Debye):
    X=             -0.9293    Y=              1.6390    Z=              0.2082  Tot=              1.8956
 Quadrupole moment (field-independent basis, Debye-Ang):
   XX=            -13.1999   YY=            -11.5931   ZZ=            -14.0198
   XY=              2.4493   XZ=              0.1113   YZ=              0.1304

 Normal termination of Gaussian 09 at Wed Aug 26 14:02:45 2020.
