 Gaussian 09, Revision D.01,
 Gaussian 09:  ES64L-G09RevD.01 24-Apr-2013

 --------------------
 #p B2PLYPD3/Def2QZVP
 --------------------

 --------
 methanol
 --------
 Symbolic Z-matrix:
 Charge =  0 Multiplicity = 1

                         Standard orientation:
 ---------------------------------------------------------------------
 Center     Atomic      Atomic             Coordinates (Angstroms)
 Number     Number       Type             X           Y           Z
 ---------------------------------------------------------------------
      1          6           0       -0.664130    0.017591    0.000903
      2          8           0        0.737088   -0.133250   -0.004890
      3          1           0       -0.986404    0.592797   -0.862351
      4          1           0       -0.988513    0.507708    0.895475
      5          1           0       -1.095946   -0.933419   -0.029414
      6          1           0        1.158938    0.793372    0.029993
 ---------------------------------------------------------------------

 SCF Done:  E(RB2PLYPD3) =  -115.547634483     A.U. after   10 cycles
 E2(B2PLYPD3) =    -0.1478104371D+00 E(B2PLYPD3) =    -0.11569544492063D+03

 The electronic state is 1-A.
 Alpha  occ. eigenvalues --  -19.72754 -10.64625  -1.15258  -0.78713  -0.57998
 Alpha  occ. eigenvalues --   -0.52116  -0.50497  -0.40854  -0.35003
 Alpha virt. eigenvalues --    0.04547   0.08176   0.12445   0.12689   0.14817
 Alpha virt. eigenvalues --    0.17439   0.17980   0.29229   0.32827   0.33175
 Alpha virt. eigenvalues --    0.34130   0.39467   0.40608   0.41387   0.44021

 Mulliken charges:
               1
     1  C    0.077231
     2  O   -0.476137
     3  H    0.042785
     4  H    0.044342
     5  H    0.071845
     6  H    0.239933
 Sum of Mulliken charges =   0.00000

 Dipole moment (field-independent basis, Debye):
    X=             -0.8439    Y=              1.5348    Z=              0.0734  Tot=              1.7531
 Quadrupole moment (field-independent basis, Debye-Ang):
   XX=            -12.9822   YY=            -12.1240   ZZ=            -13.7792
   XY=              2.4108   XZ=              0.0641   YZ=              0.0436

 Normal termination of Gaussian 09 at Thu Aug 27 00:08:05 2020.
