 Gaussian 09, Revision D.01,
 Gaussian 09:  ES64L-G09RevD.01 24-Apr-2013

 --------------------
 #p B2PLYPD3/Def2QZVP
 --------------------

 --------
 methanol
 --------
 Symbolic Z-matrix:
 Charge =  0 Multiplicity = 1

                         Standard orientation:
 ---------------------------------------------------------------------
 Center     Atomic      Atomic             Coordinates (Angstroms)
 Number     Number       Type             X           Y           Z
 ---------------------------------------------------------------------
      1          6           0        0.675487   -0.047696   -0.009947
      2          8           0       -0.764689    0.081509    0.008863
      3          1           0        0.886060   -0.640411   -0.895821
      4          1           0        1.018212   -0.432669    1.009473
      5          1           0        1.104767    1.155480   -0.125661
      6          1           0       -0.944455   -0.448299    0.000788
 ---------------------------------------------------------------------

 SCF Done:  E(RB2PLYPD3) =  -115.067536903     A.U. after   11 cycles
 E2(B2PLYPD3) =    -0.1433711977D+00 E(B2PLYPD3) =    -0.11521090810023D+03

 The electronic state is 1-A.
 Alpha  occ. eigenvalues --  -19.68335 -10.69023  -1.31568  -0.81618  -0.62343
 Alpha  occ. eigenvalues --   -0.53646  -0.48653  -0.41584  -0.37191
 Alpha virt. eigenvalues --    0.05000   0.09621   0.10946   0.11596   0.14103
 Alpha virt. eigenvalues --    0.17044   0.17482   0.27658   0.30562   0.32940
 Alpha virt. eigenvalues --    0.33315   0.38047   0.40197   0.40929   0.44324

 Mulliken charges:
               1
     1  C    0.056337
     2  O   -0.131221
     3  H    0.070824
     4  H    0.063772
     5  H    0.059019
     6  H   -0.118731
 Sum of Mulliken charges =   0.00000

 Dipole moment (field-independent basis, Debye):
    X=              1.2549    Y=             -1.2747    Z=             -0.0498  Tot=              1.7895
 Quadrupole moment (field-independent basis, Debye-Ang):
   XX=            -13.7620   YY=            -12.3799   ZZ=            -13.1137
   XY=              1.6230   XZ=              0.1026   YZ=              0.1040

 Normal termination of Gaussian 09 at Wed Aug 26 23:53:24 2020.
