 Gaussian 09, Revision D.01,
 Gaussian 09:  ES64L-G09RevD.01 24-Apr-2013

 --------------------
 #p B2PLYPD3/Def2QZVP
 --------------------

 --------
 methanol
 --------
 Symbolic Z-matrix:
 Charge =  0 Multiplicity = 1

                         Standard orientation:
 ---------------------------------------------------------------------
 Center     Atomic      Atomic             Coordinates (Angstroms)
 Number     Number       Type             X           Y           Z
 ---------------------------------------------------------------------
      1          6           0        0.656877   -0.015377    0.006122
      2          8           0       -0.748029    0.100965   -0.003125
      3          1           0        1.038671   -0.602632   -0.885738
      4          1           0        1.011025   -0.519789    0.920974
      5          1           0        1.073549    1.047387   -0.048615
      6          1           0       -1.080271   -0.640428    0.001646
 ---------------------------------------------------------------------

 SCF Done:  E(RB2PLYPD3) =  -115.523023156     A.U. after   10 cycles
 E2(B2PLYPD3) =    -0.1450539260D+00 E(B2PLYPD3) =    -0.11566807708185D+03

 The electronic state is 1-A.
 Alpha  occ. eigenvalues --  -19.71209 -10.66963  -1.20485  -0.79566  -0.60919
 Alpha  occ. eigenvalues --   -0.51730  -0.49995  -0.41346  -0.35690
 Alpha virt. eigenvalues --    0.05345   0.08863   0.12041   0.12209   0.14880
 Alpha virt. eigenvalues --    0.17170   0.17795   0.28965   0.33064   0.33526
 Alpha virt. eigenvalues --    0.37434   0.38588   0.39776   0.40417   0.42898

 Mulliken charges:
               1
     1  C    0.062661
     2  O   -0.360572
     3  H    0.043418
     4  H    0.050731
     5  H    0.071431
     6  H    0.132330
 Sum of Mulliken charges =   0.00000

 Dipole moment (field-independent basis, Debye):
    X=              0.8858    Y=             -1.3831    Z=              0.0354  Tot=              1.6428
 Quadrupole moment (field-independent basis, Debye-Ang):
   XX=            -13.2180   YY=            -12.3162   ZZ=            -13.7264
   XY=              2.0187   XZ=             -0.0121   YZ=             -0.0438

 Normal termination of Gaussian 09 at Wed Aug 26 23:59:44 2020.
