 Gaussian 09, Revision D.01,
 Gaussian 09:  ES64L-G09RevD.01 24-Apr-2013

 --------------------
 #p B2PLYPD3/Def2QZVP
 --------------------

 --------
 methanol
 --------
 Symbolic Z-matrix:
 Charge =  0 Multiplicity = 1

                         Standard orientation:
 ---------------------------------------------------------------------
 Center     Atomic      Atomic             Coordinates (Angstroms)
 Number     Number       Type             X           Y           Z
 ---------------------------------------------------------------------
      1          6           0       -0.667681   -0.009151    0.000407
      2          8           0        0.744467    0.109706   -0.005841
      3          1           0       -0.997288   -0.503411    0.936142
      4          1           0       -0.985016   -0.608195   -0.895196
      5          1           0       -1.058642    0.979751   -0.039349
      6          1           0        1.091300   -0.690882    0.042685
 ---------------------------------------------------------------------

 SCF Done:  E(RB2PLYPD3) =  -115.544568276     A.U. after   10 cycles
 E2(B2PLYPD3) =    -0.1457441796D+00 E(B2PLYPD3) =    -0.11569031245533D+03

 The electronic state is 1-A.
 Alpha  occ. eigenvalues --  -19.71488 -10.65991  -1.18245  -0.79371  -0.59572
 Alpha  occ. eigenvalues --   -0.51832  -0.50671  -0.41441  -0.35317
 Alpha virt. eigenvalues --    0.05259   0.08740   0.12107   0.12472   0.14676
 Alpha virt. eigenvalues --    0.17210   0.17778   0.29087   0.32974   0.33325
 Alpha virt. eigenvalues --    0.37032   0.39463   0.40153   0.40578   0.44027

 Mulliken charges:
               1
     1  C    0.070258
     2  O   -0.419615
     3  H    0.045586
     4  H    0.044580
     5  H    0.077796
     6  H    0.181394
 Sum of Mulliken charges =   0.00000

 Dipole moment (field-independent basis, Debye):
    X=             -0.9244    Y=             -1.3900    Z=              0.1004  Tot=              1.6724
 Quadrupole moment (field-independent basis, Debye-Ang):
   XX=            -13.2620   YY=            -12.2241   ZZ=            -13.6501
   XY=             -2.1967   XZ=              0.0927   YZ=             -0.0630

 Normal termination of Gaussian 09 at Wed Aug 26 23:58:06 2020.
