 Gaussian 09, Revision D.01,
 Gaussian 09:  ES64L-G09RevD.01 24-Apr-2013

 --------------------
 #p B2PLYPD3/Def2QZVP
 --------------------

 --------
 methanol
 --------
 Symbolic Z-matrix:
 Charge =  0 Multiplicity = 1

                         Standard orientation:
 ---------------------------------------------------------------------
 Center     Atomic      Atomic             Coordinates (Angstroms)
 Number     Number       Type             X           Y           Z
 ---------------------------------------------------------------------
      1          6           0        0.701068    0.068425   -0.015249
      2          8           0       -0.745194   -0.208075   -0.000709
      3          1           0        1.018503    0.387894    0.812234
      4          1           0        1.059937    0.588528   -0.644242
      5          1           0        1.070926   -0.876245   -0.074331
      6          1           0       -1.394225    1.153870    0.003503
 ---------------------------------------------------------------------

 SCF Done:  E(RB2PLYPD3) =  -115.380225120     A.U. after   12 cycles
 E2(B2PLYPD3) =    -0.1587413279D+00 E(B2PLYPD3) =    -0.11553896644804D+03

 The electronic state is 1-A.
 Alpha  occ. eigenvalues --  -19.75845 -10.60996  -1.09707  -0.82200  -0.55606
 Alpha  occ. eigenvalues --   -0.53288  -0.47262  -0.38747  -0.35758
 Alpha virt. eigenvalues --   -0.03069   0.07261   0.12182   0.13344   0.14600
 Alpha virt. eigenvalues --    0.16923   0.18641   0.21202   0.28843   0.32607
 Alpha virt. eigenvalues --    0.34291   0.37939   0.39411   0.43591   0.46164

 Mulliken charges:
               1
     1  C    0.087068
     2  O   -0.481261
     3  H    0.055496
     4  H    0.068764
     5  H    0.057131
     6  H    0.212801
 Sum of Mulliken charges =   0.00000

 Dipole moment (field-independent basis, Debye):
    X=              1.1768    Y=              1.7519    Z=              0.0093  Tot=              2.1105
 Quadrupole moment (field-independent basis, Debye-Ang):
   XX=            -12.3935   YY=            -11.4663   ZZ=            -14.0411
   XY=             -2.4801   XZ=             -0.0243   YZ=             -0.0755

 Normal termination of Gaussian 09 at Wed Aug 26 21:38:40 2020.
