 Gaussian 09, Revision D.01,
 Gaussian 09:  ES64L-G09RevD.01 24-Apr-2013

 --------------------
 #p B2PLYPD3/Def2QZVP
 --------------------

 --------
 methanol
 --------
 Symbolic Z-matrix:
 Charge =  0 Multiplicity = 1

                         Standard orientation:
 ---------------------------------------------------------------------
 Center     Atomic      Atomic             Coordinates (Angstroms)
 Number     Number       Type             X           Y           Z
 ---------------------------------------------------------------------
      1          6           0       -0.667059    0.007272    0.007517
      2          8           0        0.751890   -0.137825   -0.009787
      3          1           0       -1.055963    0.599968   -0.842458
      4          1           0       -1.015275    0.489402    0.871747
      5          1           0       -1.083296   -0.909312   -0.035935
      6          1           0        1.141763    0.878909    0.039841
 ---------------------------------------------------------------------

 SCF Done:  E(RB2PLYPD3) =  -115.532123117     A.U. after   11 cycles
 E2(B2PLYPD3) =    -0.1495186192D+00 E(B2PLYPD3) =    -0.11568164173632D+03

 The electronic state is 1-A.
 Alpha  occ. eigenvalues --  -19.73661 -10.64267  -1.13868  -0.78930  -0.57136
 Alpha  occ. eigenvalues --   -0.51286  -0.50216  -0.41420  -0.35047
 Alpha virt. eigenvalues --    0.03840   0.07853   0.12543   0.12698   0.14909
 Alpha virt. eigenvalues --    0.17548   0.18138   0.28961   0.30469   0.33353
 Alpha virt. eigenvalues --    0.33742   0.38771   0.40722   0.41033   0.43811

 Mulliken charges:
               1
     1  C    0.081756
     2  O   -0.485982
     3  H    0.037529
     4  H    0.044429
     5  H    0.071962
     6  H    0.250306
 Sum of Mulliken charges =   0.00000

 Dipole moment (field-independent basis, Debye):
    X=             -0.9591    Y=              1.5792    Z=              0.1327  Tot=              1.8524
 Quadrupole moment (field-independent basis, Debye-Ang):
   XX=            -13.0538   YY=            -11.9064   ZZ=            -13.9310
   XY=              2.3967   XZ=              0.0729   YZ=              0.1039

 Normal termination of Gaussian 09 at Wed Aug 26 23:54:12 2020.
