 Gaussian 09, Revision D.01,
 Gaussian 09:  ES64L-G09RevD.01 24-Apr-2013

 --------------------
 #p B2PLYPD3/Def2QZVP
 --------------------

 --------
 methanol
 --------
 Symbolic Z-matrix:
 Charge =  0 Multiplicity = 1

                         Standard orientation:
 ---------------------------------------------------------------------
 Center     Atomic      Atomic             Coordinates (Angstroms)
 Number     Number       Type             X           Y           Z
 ---------------------------------------------------------------------
      1          6           0        0.665886   -0.014176   -0.008253
      2          8           0       -0.746113    0.104445    0.006743
      3          1           0        0.998992   -0.547806   -0.910166
      4          1           0        1.005767   -0.565589    0.936653
      5          1           0        1.071537    1.010159    0.002909
      6          1           0       -1.102702   -0.647268   -0.033821
 ---------------------------------------------------------------------

 SCF Done:  E(RB2PLYPD3) =  -115.532469766     A.U. after   10 cycles
 E2(B2PLYPD3) =    -0.1452574829D+00 E(B2PLYPD3) =    -0.11567772724889D+03

 The electronic state is 1-A.
 Alpha  occ. eigenvalues --  -19.71141 -10.66651  -1.19378  -0.79600  -0.60182
 Alpha  occ. eigenvalues --   -0.51735  -0.50399  -0.41220  -0.35498
 Alpha virt. eigenvalues --    0.05354   0.08820   0.12067   0.12323   0.14652
 Alpha virt. eigenvalues --    0.17151   0.17810   0.29010   0.32906   0.33333
 Alpha virt. eigenvalues --    0.37426   0.39257   0.39841   0.40288   0.43399

 Mulliken charges:
               1
     1  C    0.066181
     2  O   -0.387916
     3  H    0.050123
     4  H    0.044363
     5  H    0.076447
     6  H    0.150803
 Sum of Mulliken charges =   0.00000

 Dipole moment (field-independent basis, Debye):
    X=              0.8940    Y=             -1.3594    Z=             -0.1223  Tot=              1.6316
 Quadrupole moment (field-independent basis, Debye-Ang):
   XX=            -13.1742   YY=            -12.3478   ZZ=            -13.6389
   XY=              2.1428   XZ=              0.0446   YZ=              0.0933

 Normal termination of Gaussian 09 at Wed Aug 26 10:21:57 2020.
