 Gaussian 09, Revision D.01,
 Gaussian 09:  ES64L-G09RevD.01 24-Apr-2013

 --------------------
 #p B2PLYPD3/Def2QZVP
 --------------------

 --------
 methanol
 --------
 Symbolic Z-matrix:
 Charge =  0 Multiplicity = 1

                         Standard orientation:
 ---------------------------------------------------------------------
 Center     Atomic      Atomic             Coordinates (Angstroms)
 Number     Number       Type             X           Y           Z
 ---------------------------------------------------------------------
      1          6           0        0.661747   -0.021283   -0.001476
      2          8           0       -0.743266    0.133731   -0.003327
      3          1           0        1.033873   -0.557859   -0.869586
      4          1           0        1.043413   -0.511257    0.886159
      5          1           0        1.084047    0.943031   -0.007536
      6          1           0       -1.185689   -0.816068    0.026436
 ---------------------------------------------------------------------

 SCF Done:  E(RB2PLYPD3) =  -115.544279963     A.U. after   11 cycles
 E2(B2PLYPD3) =    -0.1486170753D+00 E(B2PLYPD3) =    -0.11569289703818D+03

 The electronic state is 1-A.
 Alpha  occ. eigenvalues --  -19.73292 -10.64865  -1.14730  -0.78495  -0.57650
 Alpha  occ. eigenvalues --   -0.51661  -0.50060  -0.40745  -0.35167
 Alpha virt. eigenvalues --    0.04325   0.07902   0.12513   0.12657   0.14929
 Alpha virt. eigenvalues --    0.17317   0.18310   0.29078   0.31825   0.33440
 Alpha virt. eigenvalues --    0.34193   0.38988   0.40082   0.41203   0.43745

 Mulliken charges:
               1
     1  C    0.071623
     2  O   -0.478321
     3  H    0.045857
     4  H    0.044969
     5  H    0.069559
     6  H    0.246313
 Sum of Mulliken charges =   0.00000

 Dipole moment (field-independent basis, Debye):
    X=              0.8149    Y=             -1.5478    Z=              0.0551  Tot=              1.7501
 Quadrupole moment (field-independent basis, Debye-Ang):
   XX=            -12.8369   YY=            -12.1757   ZZ=            -13.8689
   XY=              2.4060   XZ=             -0.0521   YZ=             -0.0214

 Normal termination of Gaussian 09 at Wed Aug 26 23:57:20 2020.
