 Gaussian 09, Revision D.01,
 Gaussian 09:  ES64L-G09RevD.01 24-Apr-2013

 --------------------
 #p B2PLYPD3/Def2QZVP
 --------------------

 --------
 methanol
 --------
 Symbolic Z-matrix:
 Charge =  0 Multiplicity = 1

                         Standard orientation:
 ---------------------------------------------------------------------
 Center     Atomic      Atomic             Coordinates (Angstroms)
 Number     Number       Type             X           Y           Z
 ---------------------------------------------------------------------
      1          6           0        0.662154    0.025369    0.004184
      2          8           0       -0.740691   -0.144990   -0.000612
      3          1           0        1.074617    0.470997    0.862361
      4          1           0        0.986591    0.613531   -0.830283
      5          1           0        1.110801   -0.929127   -0.082212
      6          1           0       -1.219399    0.852307    0.029922
 ---------------------------------------------------------------------

 SCF Done:  E(RB2PLYPD3) =  -115.532762862     A.U. after   11 cycles
 E2(B2PLYPD3) =    -0.1495653876D+00 E(B2PLYPD3) =    -0.11568232824990D+03

 The electronic state is 1-A.
 Alpha  occ. eigenvalues --  -19.73660 -10.64326  -1.13892  -0.78540  -0.57054
 Alpha  occ. eigenvalues --   -0.51820  -0.49859  -0.40510  -0.35064
 Alpha virt. eigenvalues --    0.03686   0.07729   0.12642   0.12718   0.14973
 Alpha virt. eigenvalues --    0.17426   0.18288   0.28806   0.30053   0.33364
 Alpha virt. eigenvalues --    0.34372   0.39257   0.39687   0.41801   0.43892

 Mulliken charges:
               1
     1  C    0.078218
     2  O   -0.487425
     3  H    0.047148
     4  H    0.041734
     5  H    0.066848
     6  H    0.253477
 Sum of Mulliken charges =   0.00000

 Dipole moment (field-independent basis, Debye):
    X=              0.8009    Y=              1.6153    Z=              0.0573  Tot=              1.8038
 Quadrupole moment (field-independent basis, Debye-Ang):
   XX=            -12.6876   YY=            -12.1003   ZZ=            -13.9457
   XY=             -2.4768   XZ=              0.0042   YZ=              0.0577

 Normal termination of Gaussian 09 at Thu Aug 27 00:01:19 2020.
