 Gaussian 09, Revision D.01,
 Gaussian 09:  ES64L-G09RevD.01 24-Apr-2013

 --------------------
 #p B2PLYPD3/Def2QZVP
 --------------------

 --------
 methanol
 --------
 Symbolic Z-matrix:
 Charge =  0 Multiplicity = 1

                         Standard orientation:
 ---------------------------------------------------------------------
 Center     Atomic      Atomic             Coordinates (Angstroms)
 Number     Number       Type             X           Y           Z
 ---------------------------------------------------------------------
      1          6           0       -0.675822   -0.009655    0.005240
      2          8           0        0.757127    0.091872   -0.013831
      3          1           0       -1.040503   -0.395371    0.998745
      4          1           0       -1.025061   -0.693507   -0.873434
      5          1           0       -1.033663    1.018269   -0.140547
      6          1           0        1.097144   -0.606438    0.094444
 ---------------------------------------------------------------------

 SCF Done:  E(RB2PLYPD3) =  -115.505846338     A.U. after   10 cycles
 E2(B2PLYPD3) =    -0.1449770220D+00 E(B2PLYPD3) =    -0.11565082336011D+03

 The electronic state is 1-A.
 Alpha  occ. eigenvalues --  -19.70621 -10.67414  -1.20423  -0.80037  -0.60248
 Alpha  occ. eigenvalues --   -0.51262  -0.50210  -0.41405  -0.35787
 Alpha virt. eigenvalues --    0.05400   0.08875   0.11858   0.12246   0.14508
 Alpha virt. eigenvalues --    0.16925   0.17901   0.28879   0.32230   0.33118
 Alpha virt. eigenvalues --    0.36958   0.39128   0.39755   0.40212   0.42806

 Mulliken charges:
               1
     1  C    0.060349
     2  O   -0.345277
     3  H    0.053673
     4  H    0.047389
     5  H    0.081522
     6  H    0.102345
 Sum of Mulliken charges =   0.00000

 Dipole moment (field-independent basis, Debye):
    X=             -0.9728    Y=             -1.2686    Z=              0.2369  Tot=              1.6162
 Quadrupole moment (field-independent basis, Debye-Ang):
   XX=            -13.2005   YY=            -12.4162   ZZ=            -13.5568
   XY=             -2.0416   XZ=              0.2415   YZ=             -0.1646

 Normal termination of Gaussian 09 at Thu Aug 27 00:00:15 2020.
