 Gaussian 09, Revision D.01,
 Gaussian 09:  ES64L-G09RevD.01 24-Apr-2013

 --------------------
 #p B2PLYPD3/Def2QZVP
 --------------------

 --------
 methanol
 --------
 Symbolic Z-matrix:
 Charge =  0 Multiplicity = 1

                         Standard orientation:
 ---------------------------------------------------------------------
 Center     Atomic      Atomic             Coordinates (Angstroms)
 Number     Number       Type             X           Y           Z
 ---------------------------------------------------------------------
      1          6           0        0.653541    0.008162    0.031196
      2          8           0       -0.761201   -0.036498   -0.087765
      3          1           0        0.898763   -0.496099    0.972054
      4          1           0        1.111253    1.142796   -0.187827
      5          1           0        1.130628   -0.699421   -0.753014
      6          1           0       -0.972288    0.295733    0.483732
 ---------------------------------------------------------------------

 SCF Done:  E(RB2PLYPD3) =  -115.403187048     A.U. after   11 cycles
 E2(B2PLYPD3) =    -0.1445031125D+00 E(B2PLYPD3) =    -0.11554769016033D+03

 The electronic state is 1-A.
 Alpha  occ. eigenvalues --  -19.70196 -10.68436  -1.25657  -0.80102  -0.61418
 Alpha  occ. eigenvalues --   -0.52186  -0.50356  -0.41106  -0.36479
 Alpha virt. eigenvalues --    0.05262   0.09086   0.11231   0.12141   0.13810
 Alpha virt. eigenvalues --    0.17434   0.18370   0.27858   0.32379   0.32412
 Alpha virt. eigenvalues --    0.34992   0.37042   0.39952   0.41038   0.44591

 Mulliken charges:
               1
     1  C    0.047309
     2  O   -0.240773
     3  H    0.061017
     4  H    0.046977
     5  H    0.065141
     6  H    0.020330
 Sum of Mulliken charges =   0.00000

 Dipole moment (field-independent basis, Debye):
    X=              1.0797    Y=              0.4817    Z=              1.1436  Tot=              1.6449
 Quadrupole moment (field-independent basis, Debye-Ang):
   XX=            -13.6111   YY=            -13.0750   ZZ=            -12.9112
   XY=             -1.0149   XZ=             -1.6534   YZ=              0.2544

 Normal termination of Gaussian 09 at Wed Aug 26 18:49:34 2020.
