 Gaussian 09, Revision D.01,
 Gaussian 09:  ES64L-G09RevD.01 24-Apr-2013

 --------------------
 #p B2PLYPD3/Def2QZVP
 --------------------

 --------
 methanol
 --------
 Symbolic Z-matrix:
 Charge =  0 Multiplicity = 1

                         Standard orientation:
 ---------------------------------------------------------------------
 Center     Atomic      Atomic             Coordinates (Angstroms)
 Number     Number       Type             X           Y           Z
 ---------------------------------------------------------------------
      1          6           0        0.676358    0.025090    0.007229
      2          8           0       -0.750400   -0.140571   -0.012154
      3          1           0        1.003995    0.441432    0.867066
      4          1           0        1.025519    0.615877   -0.820044
      5          1           0        1.069010   -0.952336   -0.055782
      6          1           0       -1.153472    0.869050    0.062615
 ---------------------------------------------------------------------

 SCF Done:  E(RB2PLYPD3) =  -115.532778705     A.U. after   11 cycles
 E2(B2PLYPD3) =    -0.1495471826D+00 E(B2PLYPD3) =    -0.11568232588751D+03

 The electronic state is 1-A.
 Alpha  occ. eigenvalues --  -19.73431 -10.64046  -1.13451  -0.78985  -0.57041
 Alpha  occ. eigenvalues --   -0.52351  -0.49060  -0.41220  -0.35313
 Alpha virt. eigenvalues --    0.03940   0.07919   0.12463   0.12624   0.14901
 Alpha virt. eigenvalues --    0.17269   0.18160   0.28929   0.30614   0.33409
 Alpha virt. eigenvalues --    0.33612   0.39129   0.39770   0.41985   0.44464

 Mulliken charges:
               1
     1  C    0.083801
     2  O   -0.492572
     3  H    0.050131
     4  H    0.045363
     5  H    0.067384
     6  H    0.245893
 Sum of Mulliken charges =   0.00000

 Dipole moment (field-independent basis, Debye):
    X=              0.9962    Y=              1.6231    Z=              0.1751  Tot=              1.9125
 Quadrupole moment (field-independent basis, Debye-Ang):
   XX=            -13.0709   YY=            -11.9116   ZZ=            -13.8144
   XY=             -2.3124   XZ=             -0.1071   YZ=              0.1089

 Normal termination of Gaussian 09 at Wed Aug 26 22:39:40 2020.
