 Gaussian 09, Revision D.01,
 Gaussian 09:  ES64L-G09RevD.01 24-Apr-2013

 --------------------
 #p B2PLYPD3/Def2QZVP
 --------------------

 --------
 methanol
 --------
 Symbolic Z-matrix:
 Charge =  0 Multiplicity = 1

                         Standard orientation:
 ---------------------------------------------------------------------
 Center     Atomic      Atomic             Coordinates (Angstroms)
 Number     Number       Type             X           Y           Z
 ---------------------------------------------------------------------
      1          6           0       -0.661865   -0.023682    0.018748
      2          8           0        0.758875    0.092771   -0.027194
      3          1           0       -1.039233   -0.303868    0.974924
      4          1           0       -1.083321   -0.761833   -0.808697
      5          1           0       -1.085662    1.054871   -0.202563
      6          1           0        1.108404   -0.589246    0.141399
 ---------------------------------------------------------------------

 SCF Done:  E(RB2PLYPD3) =  -115.500654373     A.U. after   10 cycles
 E2(B2PLYPD3) =    -0.1451590136D+00 E(B2PLYPD3) =    -0.11564581338617D+03

 The electronic state is 1-A.
 Alpha  occ. eigenvalues --  -19.71091 -10.67714  -1.20948  -0.79874  -0.61206
 Alpha  occ. eigenvalues --   -0.51461  -0.49401  -0.40903  -0.36115
 Alpha virt. eigenvalues --    0.05341   0.08744   0.11790   0.12133   0.14760
 Alpha virt. eigenvalues --    0.17068   0.18147   0.28804   0.32648   0.33231
 Alpha virt. eigenvalues --    0.36233   0.37576   0.39739   0.41222   0.42487

 Mulliken charges:
               1
     1  C    0.054730
     2  O   -0.334106
     3  H    0.063234
     4  H    0.044801
     5  H    0.066954
     6  H    0.104387
 Sum of Mulliken charges =   0.00000

 Dipole moment (field-independent basis, Debye):
    X=             -0.8950    Y=             -1.2973    Z=              0.4413  Tot=              1.6367
 Quadrupole moment (field-independent basis, Debye-Ang):
   XX=            -13.0347   YY=            -12.5872   ZZ=            -13.6217
   XY=             -1.9421   XZ=              0.3497   YZ=             -0.2423

 Normal termination of Gaussian 09 at Wed Aug 26 13:01:22 2020.
