 Gaussian 09, Revision D.01,
 Gaussian 09:  ES64L-G09RevD.01 24-Apr-2013

 --------------------
 #p B2PLYPD3/Def2QZVP
 --------------------

 --------
 methanol
 --------
 Symbolic Z-matrix:
 Charge =  0 Multiplicity = 1

                         Standard orientation:
 ---------------------------------------------------------------------
 Center     Atomic      Atomic             Coordinates (Angstroms)
 Number     Number       Type             X           Y           Z
 ---------------------------------------------------------------------
      1          6           0       -0.666791    0.012205    0.010519
      2          8           0        0.748532   -0.142233   -0.009750
      3          1           0       -1.056352    0.581411   -0.831221
      4          1           0       -0.980273    0.504725    0.846713
      5          1           0       -1.069184   -0.929631   -0.024273
      6          1           0        1.118297    0.908127    0.023669
 ---------------------------------------------------------------------

 SCF Done:  E(RB2PLYPD3) =  -115.526946434     A.U. after   11 cycles
 E2(B2PLYPD3) =    -0.1499119212D+00 E(B2PLYPD3) =    -0.11567685835559D+03

 The electronic state is 1-A.
 Alpha  occ. eigenvalues --  -19.73748 -10.63853  -1.13714  -0.78887  -0.57225
 Alpha  occ. eigenvalues --   -0.51829  -0.49579  -0.41496  -0.35068
 Alpha virt. eigenvalues --    0.03555   0.07902   0.12551   0.12645   0.14963
 Alpha virt. eigenvalues --    0.17494   0.18042   0.28621   0.30008   0.33335
 Alpha virt. eigenvalues --    0.34008   0.38999   0.40319   0.41546   0.44251

 Mulliken charges:
               1
     1  C    0.086303
     2  O   -0.487142
     3  H    0.037692
     4  H    0.044825
     5  H    0.069099
     6  H    0.249223
 Sum of Mulliken charges =   0.00000

 Dipole moment (field-independent basis, Debye):
    X=             -1.0031    Y=              1.6300    Z=              0.1122  Tot=              1.9172
 Quadrupole moment (field-independent basis, Debye-Ang):
   XX=            -13.2222   YY=            -11.7600   ZZ=            -13.9195
   XY=              2.3136   XZ=              0.0556   YZ=              0.0957

 Normal termination of Gaussian 09 at Thu Aug 27 00:13:43 2020.
