 Gaussian 09, Revision D.01,
 Gaussian 09:  ES64L-G09RevD.01 24-Apr-2013

 --------------------
 #p B2PLYPD3/Def2QZVP
 --------------------

 --------
 methanol
 --------
 Symbolic Z-matrix:
 Charge =  0 Multiplicity = 1

                         Standard orientation:
 ---------------------------------------------------------------------
 Center     Atomic      Atomic             Coordinates (Angstroms)
 Number     Number       Type             X           Y           Z
 ---------------------------------------------------------------------
      1          6           0       -0.662753   -0.043679   -0.024611
      2          8           0        0.765245    0.012283    0.050592
      3          1           0       -1.004505   -0.882525   -0.700805
      4          1           0       -1.214681    1.176037   -0.321210
      5          1           0       -1.023854   -0.205274    1.103640
      6          1           0        1.097598    0.075572   -0.338698
 ---------------------------------------------------------------------

 SCF Done:  E(RB2PLYPD3) =  -114.843382721     A.U. after   12 cycles
 E2(B2PLYPD3) =    -0.1440824756D+00 E(B2PLYPD3) =    -0.11498746519652D+03

 The electronic state is 1-A.
 Alpha  occ. eigenvalues --  -19.68917 -10.71505  -1.32730  -0.84959  -0.62573
 Alpha  occ. eigenvalues --   -0.51533  -0.49499  -0.40220  -0.36103
 Alpha virt. eigenvalues --    0.04658   0.09098   0.10713   0.11552   0.13974
 Alpha virt. eigenvalues --    0.16503   0.18271   0.27792   0.30005   0.31468
 Alpha virt. eigenvalues --    0.33769   0.35853   0.38806   0.41193   0.42284

 Mulliken charges:
               1
     1  C    0.045395
     2  O   -0.053731
     3  H    0.077052
     4  H    0.030033
     5  H    0.087940
     6  H   -0.186689
 Sum of Mulliken charges =   0.00000

 Dipole moment (field-independent basis, Debye):
    X=             -0.9197    Y=             -0.1490    Z=             -0.9072  Tot=              1.3004
 Quadrupole moment (field-independent basis, Debye-Ang):
   XX=            -12.9746   YY=            -13.3870   ZZ=            -12.8180
   XY=              0.4293   XZ=             -1.6928   YZ=              0.1594

 Normal termination of Gaussian 09 at Wed Aug 26 21:28:42 2020.
