 Gaussian 09, Revision D.01,
 Gaussian 09:  ES64L-G09RevD.01 24-Apr-2013

 --------------------
 #p B2PLYPD3/Def2QZVP
 --------------------

 --------
 methanol
 --------
 Symbolic Z-matrix:
 Charge =  0 Multiplicity = 1

                         Standard orientation:
 ---------------------------------------------------------------------
 Center     Atomic      Atomic             Coordinates (Angstroms)
 Number     Number       Type             X           Y           Z
 ---------------------------------------------------------------------
      1          6           0       -0.663748    0.042952    0.014007
      2          8           0        0.728235   -0.162773   -0.016837
      3          1           0       -0.991443    0.611211   -0.807444
      4          1           0       -0.977556    0.438077    0.809333
      5          1           0       -1.095426   -0.932226   -0.036676
      6          1           0        1.221032    0.927407    0.085446
 ---------------------------------------------------------------------

 SCF Done:  E(RB2PLYPD3) =  -115.496083395     A.U. after   11 cycles
 E2(B2PLYPD3) =    -0.1510209464D+00 E(B2PLYPD3) =    -0.11564710434112D+03

 The electronic state is 1-A.
 Alpha  occ. eigenvalues --  -19.74009 -10.62743  -1.13171  -0.79278  -0.56515
 Alpha  occ. eigenvalues --   -0.53377  -0.49066  -0.40148  -0.35169
 Alpha virt. eigenvalues --    0.02432   0.07745   0.12555   0.12834   0.15051
 Alpha virt. eigenvalues --    0.17343   0.18273   0.26467   0.29526   0.33466
 Alpha virt. eigenvalues --    0.34799   0.38778   0.39632   0.42809   0.45290

 Mulliken charges:
               1
     1  C    0.088146
     2  O   -0.491444
     3  H    0.044198
     4  H    0.050131
     5  H    0.059285
     6  H    0.249684
 Sum of Mulliken charges =   0.00000

 Dipole moment (field-independent basis, Debye):
    X=             -0.8695    Y=              1.7049    Z=              0.2443  Tot=              1.9294
 Quadrupole moment (field-independent basis, Debye-Ang):
   XX=            -12.8448   YY=            -11.8667   ZZ=            -13.8242
   XY=              2.4262   XZ=              0.1030   YZ=              0.1496

 Normal termination of Gaussian 09 at Wed Aug 26 16:35:01 2020.
