 Gaussian 09, Revision D.01,
 Gaussian 09:  ES64L-G09RevD.01 24-Apr-2013

 --------------------
 #p B2PLYPD3/Def2QZVP
 --------------------

 --------
 methanol
 --------
 Symbolic Z-matrix:
 Charge =  0 Multiplicity = 1

                         Standard orientation:
 ---------------------------------------------------------------------
 Center     Atomic      Atomic             Coordinates (Angstroms)
 Number     Number       Type             X           Y           Z
 ---------------------------------------------------------------------
      1          6           0        0.626497   -0.004268    0.037141
      2          8           0       -0.738871   -0.027611   -0.072880
      3          1           0        0.907371   -0.443652    0.987109
      4          1           0        1.132822    1.176515   -0.212088
      5          1           0        1.107149   -0.742686   -0.779413
      6          1           0       -0.995351    0.256320    0.364586
 ---------------------------------------------------------------------

 SCF Done:  E(RB2PLYPD3) =  -115.142378668     A.U. after   11 cycles
 E2(B2PLYPD3) =    -0.1430673484D+00 E(B2PLYPD3) =    -0.11528544601660D+03

 The electronic state is 1-A.
 Alpha  occ. eigenvalues --  -19.69473 -10.69257  -1.32070  -0.83577  -0.63426
 Alpha  occ. eigenvalues --   -0.52304  -0.51484  -0.40546  -0.36198
 Alpha virt. eigenvalues --    0.05108   0.09418   0.11091   0.11980   0.14215
 Alpha virt. eigenvalues --    0.17123   0.18093   0.27534   0.31256   0.34234
 Alpha virt. eigenvalues --    0.34587   0.36259   0.40843   0.41700   0.43875

 Mulliken charges:
               1
     1  C    0.040654
     2  O   -0.111892
     3  H    0.061812
     4  H    0.028228
     5  H    0.067010
     6  H   -0.085812
 Sum of Mulliken charges =   0.00000

 Dipole moment (field-independent basis, Debye):
    X=              0.7931    Y=              0.3714    Z=              1.0550  Tot=              1.3711
 Quadrupole moment (field-independent basis, Debye-Ang):
   XX=            -13.4094   YY=            -13.1741   ZZ=            -12.9654
   XY=             -1.1257   XZ=             -1.4459   YZ=              0.2317

 Normal termination of Gaussian 09 at Wed Aug 26 20:15:14 2020.
