 Gaussian 09, Revision D.01,
 Gaussian 09:  ES64L-G09RevD.01 24-Apr-2013

 --------------------
 #p B2PLYPD3/Def2QZVP
 --------------------

 --------
 methanol
 --------
 Symbolic Z-matrix:
 Charge =  0 Multiplicity = 1

                         Standard orientation:
 ---------------------------------------------------------------------
 Center     Atomic      Atomic             Coordinates (Angstroms)
 Number     Number       Type             X           Y           Z
 ---------------------------------------------------------------------
      1          6           0        0.669883   -0.021901    0.012792
      2          8           0       -0.738563    0.132552   -0.021585
      3          1           0        1.075827   -0.615902   -0.835747
      4          1           0        0.947703   -0.470351    0.874437
      5          1           0        1.050650    0.968814   -0.018210
      6          1           0       -1.184968   -0.811570    0.075451
 ---------------------------------------------------------------------

 SCF Done:  E(RB2PLYPD3) =  -115.539742969     A.U. after   11 cycles
 E2(B2PLYPD3) =    -0.1485214976D+00 E(B2PLYPD3) =    -0.11568826446632D+03

 The electronic state is 1-A.
 Alpha  occ. eigenvalues --  -19.72995 -10.64432  -1.14503  -0.78749  -0.57964
 Alpha  occ. eigenvalues --   -0.52002  -0.49654  -0.40921  -0.35079
 Alpha virt. eigenvalues --    0.04338   0.08023   0.12460   0.12602   0.15036
 Alpha virt. eigenvalues --    0.17103   0.18081   0.29193   0.32046   0.33215
 Alpha virt. eigenvalues --    0.34080   0.39133   0.39722   0.41035   0.44837

 Mulliken charges:
               1
     1  C    0.077594
     2  O   -0.483565
     3  H    0.042400
     4  H    0.049687
     5  H    0.070921
     6  H    0.242963
 Sum of Mulliken charges =   0.00000

 Dipole moment (field-independent basis, Debye):
    X=              0.8387    Y=             -1.5621    Z=              0.2612  Tot=              1.7921
 Quadrupole moment (field-independent basis, Debye-Ang):
   XX=            -12.9289   YY=            -12.0511   ZZ=            -13.8201
   XY=              2.3326   XZ=             -0.2029   YZ=             -0.1565

 Normal termination of Gaussian 09 at Wed Aug 26 13:33:36 2020.
