 Gaussian 09, Revision D.01,
 Gaussian 09:  ES64L-G09RevD.01 24-Apr-2013

 --------------------
 #p B2PLYPD3/Def2QZVP
 --------------------

 --------
 methanol
 --------
 Symbolic Z-matrix:
 Charge =  0 Multiplicity = 1

                         Standard orientation:
 ---------------------------------------------------------------------
 Center     Atomic      Atomic             Coordinates (Angstroms)
 Number     Number       Type             X           Y           Z
 ---------------------------------------------------------------------
      1          6           0        0.642864    0.039624   -0.014354
      2          8           0       -0.731593   -0.205949   -0.004833
      3          1           0        1.033345    0.430120    0.849594
      4          1           0        1.110996    0.535726   -0.739055
      5          1           0        1.145731   -0.747095   -0.004638
      6          1           0       -1.294511    1.191098    0.018881
 ---------------------------------------------------------------------

 SCF Done:  E(RB2PLYPD3) =  -115.401774005     A.U. after   12 cycles
 E2(B2PLYPD3) =    -0.1579443518D+00 E(B2PLYPD3) =    -0.11555971835661D+03

 The electronic state is 1-A.
 Alpha  occ. eigenvalues --  -19.76277 -10.61422  -1.12429  -0.81240  -0.53767
 Alpha  occ. eigenvalues --   -0.52146  -0.50605  -0.38279  -0.35337
 Alpha virt. eigenvalues --   -0.03751   0.07185   0.12860   0.13198   0.14727
 Alpha virt. eigenvalues --    0.17924   0.19000   0.20902   0.29532   0.33838
 Alpha virt. eigenvalues --    0.35458   0.38562   0.40162   0.42492   0.43915

 Mulliken charges:
               1
     1  C    0.091799
     2  O   -0.459314
     3  H    0.039940
     4  H    0.039482
     5  H    0.056510
     6  H    0.231584
 Sum of Mulliken charges =   0.00000

 Dipole moment (field-independent basis, Debye):
    X=              0.9903    Y=              1.6945    Z=              0.0217  Tot=              1.9628
 Quadrupole moment (field-independent basis, Debye-Ang):
   XX=            -12.5414   YY=            -11.6172   ZZ=            -14.1003
   XY=             -2.7051   XZ=             -0.0971   YZ=             -0.0456

 Normal termination of Gaussian 09 at Wed Aug 26 21:21:38 2020.
