 Gaussian 09, Revision D.01,
 Gaussian 09:  ES64L-G09RevD.01 24-Apr-2013

 --------------------
 #p B2PLYPD3/Def2QZVP
 --------------------

 --------
 methanol
 --------
 Symbolic Z-matrix:
 Charge =  0 Multiplicity = 1

                         Standard orientation:
 ---------------------------------------------------------------------
 Center     Atomic      Atomic             Coordinates (Angstroms)
 Number     Number       Type             X           Y           Z
 ---------------------------------------------------------------------
      1          6           0        0.666652    0.021234    0.011142
      2          8           0       -0.748623   -0.140038   -0.010821
      3          1           0        1.016439    0.450836    0.888902
      4          1           0        1.061410    0.618955   -0.833472
      5          1           0        1.105712   -0.926300   -0.074294
      6          1           0       -1.194489    0.849407    0.038581
 ---------------------------------------------------------------------

 SCF Done:  E(RB2PLYPD3) =  -115.535647120     A.U. after   11 cycles
 E2(B2PLYPD3) =    -0.1494308902D+00 E(B2PLYPD3) =    -0.11568507801027D+03

 The electronic state is 1-A.
 Alpha  occ. eigenvalues --  -19.73598 -10.64589  -1.13840  -0.78653  -0.57007
 Alpha  occ. eigenvalues --   -0.51647  -0.49833  -0.40770  -0.35197
 Alpha virt. eigenvalues --    0.03943   0.07752   0.12548   0.12685   0.14875
 Alpha virt. eigenvalues --    0.17442   0.18312   0.28946   0.30551   0.33499
 Alpha virt. eigenvalues --    0.33792   0.38810   0.40089   0.41415   0.43866

 Mulliken charges:
               1
     1  C    0.077287
     2  O   -0.487714
     3  H    0.050591
     4  H    0.040294
     5  H    0.068423
     6  H    0.251120
 Sum of Mulliken charges =   0.00000

 Dipole moment (field-independent basis, Debye):
    X=              0.8681    Y=              1.5816    Z=              0.1371  Tot=              1.8094
 Quadrupole moment (field-independent basis, Debye-Ang):
   XX=            -12.8029   YY=            -12.1139   ZZ=            -13.8968
   XY=             -2.4518   XZ=             -0.0859   YZ=              0.1122

 Normal termination of Gaussian 09 at Wed Aug 26 23:58:20 2020.
