 Gaussian 09, Revision D.01,
 Gaussian 09:  ES64L-G09RevD.01 24-Apr-2013

 --------------------
 #p B2PLYPD3/Def2QZVP
 --------------------

 --------
 methanol
 --------
 Symbolic Z-matrix:
 Charge =  0 Multiplicity = 1

                         Standard orientation:
 ---------------------------------------------------------------------
 Center     Atomic      Atomic             Coordinates (Angstroms)
 Number     Number       Type             X           Y           Z
 ---------------------------------------------------------------------
      1          6           0       -0.665444    0.033894   -0.000388
      2          8           0        0.722776   -0.181649   -0.000605
      3          1           0       -1.147549    0.478267   -0.776119
      4          1           0       -0.885045    0.601928    0.817587
      5          1           0       -1.111853   -0.825941    0.048086
      6          1           0        1.354904    0.995571   -0.082384
 ---------------------------------------------------------------------

 SCF Done:  E(RB2PLYPD3) =  -115.458879777     A.U. after   11 cycles
 E2(B2PLYPD3) =    -0.1537611365D+00 E(B2PLYPD3) =    -0.11561264091362D+03

 The electronic state is 1-A.
 Alpha  occ. eigenvalues --  -19.74739 -10.62079  -1.12257  -0.79669  -0.55236
 Alpha  occ. eigenvalues --   -0.52921  -0.49468  -0.39375  -0.34686
 Alpha virt. eigenvalues --   -0.00155   0.07483   0.12880   0.12995   0.14880
 Alpha virt. eigenvalues --    0.17434   0.18560   0.23242   0.29618   0.32698
 Alpha virt. eigenvalues --    0.35345   0.38953   0.39683   0.43405   0.44284

 Mulliken charges:
               1
     1  C    0.090207
     2  O   -0.489403
     3  H    0.039424
     4  H    0.043378
     5  H    0.065919
     6  H    0.250476
 Sum of Mulliken charges =   0.00000

 Dipole moment (field-independent basis, Debye):
    X=             -0.7781    Y=              1.6729    Z=             -0.1132  Tot=              1.8484
 Quadrupole moment (field-independent basis, Debye-Ang):
   XX=            -12.1936   YY=            -11.8848   ZZ=            -14.0451
   XY=              2.7683   XZ=              0.0304   YZ=             -0.0674

 Normal termination of Gaussian 09 at Wed Aug 26 21:31:46 2020.
