 Gaussian 09, Revision D.01,
 Gaussian 09:  ES64L-G09RevD.01 24-Apr-2013

 --------------------
 #p B2PLYPD3/Def2QZVP
 --------------------

 --------
 methanol
 --------
 Symbolic Z-matrix:
 Charge =  0 Multiplicity = 1

                         Standard orientation:
 ---------------------------------------------------------------------
 Center     Atomic      Atomic             Coordinates (Angstroms)
 Number     Number       Type             X           Y           Z
 ---------------------------------------------------------------------
      1          6           0       -0.670036    0.022210    0.018374
      2          8           0        0.745440   -0.141018   -0.012637
      3          1           0       -1.044952    0.590093   -0.850552
      4          1           0       -0.963784    0.494099    0.851060
      5          1           0       -1.097229   -0.941159   -0.040667
      6          1           0        1.162660    0.851851    0.031012
 ---------------------------------------------------------------------

 SCF Done:  E(RB2PLYPD3) =  -115.534095705     A.U. after   11 cycles
 E2(B2PLYPD3) =    -0.1491490148D+00 E(B2PLYPD3) =    -0.11568324471960D+03

 The electronic state is 1-A.
 Alpha  occ. eigenvalues --  -19.73340 -10.64206  -1.13952  -0.78859  -0.57393
 Alpha  occ. eigenvalues --   -0.52177  -0.49554  -0.41049  -0.35139
 Alpha virt. eigenvalues --    0.04028   0.07927   0.12547   0.12584   0.14885
 Alpha virt. eigenvalues --    0.17446   0.18080   0.29087   0.30832   0.33328
 Alpha virt. eigenvalues --    0.33767   0.39033   0.39972   0.41674   0.44521

 Mulliken charges:
               1
     1  C    0.083482
     2  O   -0.488802
     3  H    0.039523
     4  H    0.050255
     5  H    0.068476
     6  H    0.247066
 Sum of Mulliken charges =   0.00000

 Dipole moment (field-independent basis, Debye):
    X=             -0.9259    Y=              1.6071    Z=              0.1526  Tot=              1.8610
 Quadrupole moment (field-independent basis, Debye-Ang):
   XX=            -13.0018   YY=            -11.9849   ZZ=            -13.8388
   XY=              2.3876   XZ=              0.0652   YZ=              0.1414

 Normal termination of Gaussian 09 at Wed Aug 26 23:58:39 2020.
