 Gaussian 09, Revision D.01,
 Gaussian 09:  ES64L-G09RevD.01 24-Apr-2013

 --------------------
 #p B2PLYPD3/Def2QZVP
 --------------------

 --------
 methanol
 --------
 Symbolic Z-matrix:
 Charge =  0 Multiplicity = 1

                         Standard orientation:
 ---------------------------------------------------------------------
 Center     Atomic      Atomic             Coordinates (Angstroms)
 Number     Number       Type             X           Y           Z
 ---------------------------------------------------------------------
      1          6           0        0.662849   -0.018718   -0.005678
      2          8           0       -0.738757    0.102423   -0.005453
      3          1           0        0.976279   -0.627251   -0.889156
      4          1           0        0.990608   -0.440894    1.004359
      5          1           0        1.051040    0.992805   -0.082960
      6          1           0       -1.084968   -0.631740    0.045452
 ---------------------------------------------------------------------

 SCF Done:  E(RB2PLYPD3) =  -115.523430377     A.U. after   10 cycles
 E2(B2PLYPD3) =    -0.1448340991D+00 E(B2PLYPD3) =    -0.11566826447618D+03

 The electronic state is 1-A.
 Alpha  occ. eigenvalues --  -19.70814 -10.66549  -1.20289  -0.79918  -0.60194
 Alpha  occ. eigenvalues --   -0.52308  -0.50692  -0.40985  -0.35547
 Alpha virt. eigenvalues --    0.05403   0.08991   0.11920   0.12467   0.14398
 Alpha virt. eigenvalues --    0.17099   0.17935   0.28853   0.32950   0.33471
 Alpha virt. eigenvalues --    0.37230   0.39617   0.40250   0.40523   0.43799

 Mulliken charges:
               1
     1  C    0.062303
     2  O   -0.365746
     3  H    0.049946
     4  H    0.045498
     5  H    0.075764
     6  H    0.132236
 Sum of Mulliken charges =   0.00000

 Dipole moment (field-independent basis, Debye):
    X=              0.8719    Y=             -1.3152    Z=              0.0642  Tot=              1.5793
 Quadrupole moment (field-independent basis, Debye-Ang):
   XX=            -13.2778   YY=            -12.4185   ZZ=            -13.4924
   XY=              2.1363   XZ=             -0.1718   YZ=             -0.0174

 Normal termination of Gaussian 09 at Wed Aug 26 13:34:52 2020.
