 Gaussian 09, Revision D.01,
 Gaussian 09:  ES64L-G09RevD.01 24-Apr-2013

 --------------------
 #p B2PLYPD3/Def2QZVP
 --------------------

 --------
 methanol
 --------
 Symbolic Z-matrix:
 Charge =  0 Multiplicity = 1

                         Standard orientation:
 ---------------------------------------------------------------------
 Center     Atomic      Atomic             Coordinates (Angstroms)
 Number     Number       Type             X           Y           Z
 ---------------------------------------------------------------------
      1          6           0       -0.679930    0.004882   -0.017227
      2          8           0        0.759550   -0.147595    0.016156
      3          1           0       -1.072407    0.429480   -0.841216
      4          1           0       -1.031326    0.641779    0.844808
      5          1           0       -1.067416   -0.867640    0.073464
      6          1           0        1.174330    0.947851   -0.102942
 ---------------------------------------------------------------------

 SCF Done:  E(RB2PLYPD3) =  -115.500057950     A.U. after   11 cycles
 E2(B2PLYPD3) =    -0.1514969384D+00 E(B2PLYPD3) =    -0.11565155488860D+03

 The electronic state is 1-A.
 Alpha  occ. eigenvalues --  -19.74261 -10.63574  -1.12170  -0.79732  -0.56299
 Alpha  occ. eigenvalues --   -0.50977  -0.49738  -0.41384  -0.35017
 Alpha virt. eigenvalues --    0.02741   0.07598   0.12537   0.12787   0.14785
 Alpha virt. eigenvalues --    0.17477   0.18328   0.27024   0.29569   0.32640
 Alpha virt. eigenvalues --    0.33840   0.37931   0.40758   0.41149   0.44175

 Mulliken charges:
               1
     1  C    0.085993
     2  O   -0.497659
     3  H    0.047320
     4  H    0.036182
     5  H    0.073919
     6  H    0.254245
 Sum of Mulliken charges =   0.00000

 Dipole moment (field-independent basis, Debye):
    X=             -1.0340    Y=              1.5953    Z=             -0.2787  Tot=              1.9214
 Quadrupole moment (field-independent basis, Debye-Ang):
   XX=            -12.9649   YY=            -11.7856   ZZ=            -13.9468
   XY=              2.4819   XZ=             -0.0789   YZ=             -0.2350

 Normal termination of Gaussian 09 at Wed Aug 26 12:47:37 2020.
