 Gaussian 09, Revision D.01,
 Gaussian 09:  ES64L-G09RevD.01 24-Apr-2013

 --------------------
 #p B2PLYPD3/Def2QZVP
 --------------------

 --------
 methanol
 --------
 Symbolic Z-matrix:
 Charge =  0 Multiplicity = 1

                         Standard orientation:
 ---------------------------------------------------------------------
 Center     Atomic      Atomic             Coordinates (Angstroms)
 Number     Number       Type             X           Y           Z
 ---------------------------------------------------------------------
      1          6           0       -0.710084    0.032740   -0.019288
      2          8           0        0.753423   -0.187352    0.012633
      3          1           0       -1.068410    0.411664   -0.689523
      4          1           0       -0.935042    0.644184    0.750291
      5          1           0       -1.001472   -0.895592    0.060897
      6          1           0        1.238040    1.142117   -0.107005
 ---------------------------------------------------------------------

 SCF Done:  E(RB2PLYPD3) =  -115.383305587     A.U. after   12 cycles
 E2(B2PLYPD3) =    -0.1570724768D+00 E(B2PLYPD3) =    -0.11554037806352D+03

 The electronic state is 1-A.
 Alpha  occ. eigenvalues --  -19.75286 -10.60903  -1.09840  -0.82329  -0.56950
 Alpha  occ. eigenvalues --   -0.53506  -0.46482  -0.40107  -0.35377
 Alpha virt. eigenvalues --   -0.01353   0.07481   0.12141   0.13093   0.14559
 Alpha virt. eigenvalues --    0.16973   0.18138   0.22250   0.28912   0.31912
 Alpha virt. eigenvalues --    0.34187   0.37679   0.39468   0.43287   0.46574

 Mulliken charges:
               1
     1  C    0.052780
     2  O   -0.492561
     3  H    0.098903
     4  H    0.048732
     5  H    0.071439
     6  H    0.220708
 Sum of Mulliken charges =   0.00000

 Dipole moment (field-independent basis, Debye):
    X=             -1.2979    Y=              1.7468    Z=             -0.2374  Tot=              2.1891
 Quadrupole moment (field-independent basis, Debye-Ang):
   XX=            -13.0434   YY=            -11.1228   ZZ=            -14.0172
   XY=              2.2792   XZ=              0.0423   YZ=             -0.1773

 Normal termination of Gaussian 09 at Wed Aug 26 21:44:30 2020.
