 Gaussian 09, Revision D.01,
 Gaussian 09:  ES64L-G09RevD.01 24-Apr-2013

 --------------------
 #p B2PLYPD3/Def2QZVP
 --------------------

 --------
 methanol
 --------
 Symbolic Z-matrix:
 Charge =  0 Multiplicity = 1

                         Standard orientation:
 ---------------------------------------------------------------------
 Center     Atomic      Atomic             Coordinates (Angstroms)
 Number     Number       Type             X           Y           Z
 ---------------------------------------------------------------------
      1          6           0        0.686623    0.004135    0.008714
      2          8           0       -0.749859   -0.151836   -0.006300
      3          1           0        1.021435    0.374506    0.907065
      4          1           0        0.845379    0.681347   -0.845679
      5          1           0        1.080592   -0.811233   -0.164214
      6          1           0       -1.068274    0.945261    0.100940
 ---------------------------------------------------------------------

 SCF Done:  E(RB2PLYPD3) =  -115.495889194     A.U. after   11 cycles
 E2(B2PLYPD3) =    -0.1507914702D+00 E(B2PLYPD3) =    -0.11564668066435D+03

 The electronic state is 1-A.
 Alpha  occ. eigenvalues --  -19.73510 -10.63098  -1.12656  -0.79813  -0.56411
 Alpha  occ. eigenvalues --   -0.52766  -0.49976  -0.41108  -0.34789
 Alpha virt. eigenvalues --    0.03099   0.08012   0.12110   0.12881   0.14209
 Alpha virt. eigenvalues --    0.17793   0.17924   0.27834   0.29645   0.31962
 Alpha virt. eigenvalues --    0.33519   0.38291   0.41654   0.43043   0.43708

 Mulliken charges:
               1
     1  C    0.075364
     2  O   -0.494696
     3  H    0.047898
     4  H    0.042089
     5  H    0.079334
     6  H    0.250010
 Sum of Mulliken charges =   0.00000

 Dipole moment (field-independent basis, Debye):
    X=              1.1771    Y=              1.5706    Z=              0.1842  Tot=              1.9714
 Quadrupole moment (field-independent basis, Debye-Ang):
   XX=            -13.5353   YY=            -11.7389   ZZ=            -13.6176
   XY=             -2.4843   XZ=             -0.0287   YZ=              0.2224

 Normal termination of Gaussian 09 at Wed Aug 26 23:55:30 2020.
