 Gaussian 09, Revision D.01,
 Gaussian 09:  ES64L-G09RevD.01 24-Apr-2013

 --------------------
 #p B2PLYPD3/Def2QZVP
 --------------------

 --------
 methanol
 --------
 Symbolic Z-matrix:
 Charge =  0 Multiplicity = 1

                         Standard orientation:
 ---------------------------------------------------------------------
 Center     Atomic      Atomic             Coordinates (Angstroms)
 Number     Number       Type             X           Y           Z
 ---------------------------------------------------------------------
      1          6           0        0.664562    0.029899   -0.007635
      2          8           0       -0.747739   -0.168668    0.005210
      3          1           0        1.054541    0.526815    0.815389
      4          1           0        1.047571    0.548233   -0.764309
      5          1           0        1.129971   -0.904154   -0.023520
      6          1           0       -1.237540    0.999056   -0.023428
 ---------------------------------------------------------------------

 SCF Done:  E(RB2PLYPD3) =  -115.486744641     A.U. after   11 cycles
 E2(B2PLYPD3) =    -0.1529290721D+00 E(B2PLYPD3) =    -0.11563967371290D+03

 The electronic state is 1-A.
 Alpha  occ. eigenvalues --  -19.74902 -10.63106  -1.12145  -0.79443  -0.55548
 Alpha  occ. eigenvalues --   -0.51679  -0.49209  -0.40417  -0.35173
 Alpha virt. eigenvalues --    0.01208   0.07414   0.12558   0.13061   0.14976
 Alpha virt. eigenvalues --    0.17635   0.18353   0.24592   0.29618   0.33695
 Alpha virt. eigenvalues --    0.34163   0.38940   0.39309   0.42156   0.44203

 Mulliken charges:
               1
     1  C    0.095011
     2  O   -0.491514
     3  H    0.041533
     4  H    0.042798
     5  H    0.059941
     6  H    0.252231
 Sum of Mulliken charges =   0.00000

 Dipole moment (field-independent basis, Debye):
    X=              0.9380    Y=              1.7488    Z=             -0.0788  Tot=              1.9860
 Quadrupole moment (field-independent basis, Debye-Ang):
   XX=            -12.6894   YY=            -11.7254   ZZ=            -14.1250
   XY=             -2.4772   XZ=              0.0110   YZ=             -0.0636

 Normal termination of Gaussian 09 at Wed Aug 26 13:31:30 2020.
