 Gaussian 09, Revision D.01,
 Gaussian 09:  ES64L-G09RevD.01 24-Apr-2013

 --------------------
 #p B2PLYPD3/Def2QZVP
 --------------------

 --------
 methanol
 --------
 Symbolic Z-matrix:
 Charge =  0 Multiplicity = 1

                         Standard orientation:
 ---------------------------------------------------------------------
 Center     Atomic      Atomic             Coordinates (Angstroms)
 Number     Number       Type             X           Y           Z
 ---------------------------------------------------------------------
      1          6           0       -0.658841   -0.027357   -0.002006
      2          8           0        0.747846    0.118176   -0.009525
      3          1           0       -1.007557   -0.491218    0.915349
      4          1           0       -1.040960   -0.618820   -0.845737
      5          1           0       -1.132687    1.021306   -0.030428
      6          1           0        1.151476   -0.692539    0.049053
 ---------------------------------------------------------------------

 SCF Done:  E(RB2PLYPD3) =  -115.548315222     A.U. after   10 cycles
 E2(B2PLYPD3) =    -0.1464737863D+00 E(B2PLYPD3) =    -0.11569478900870D+03

 The electronic state is 1-A.
 Alpha  occ. eigenvalues --  -19.72172 -10.66363  -1.17484  -0.78807  -0.59760
 Alpha  occ. eigenvalues --   -0.51839  -0.49574  -0.40670  -0.35563
 Alpha virt. eigenvalues --    0.05169   0.08324   0.12185   0.12426   0.14858
 Alpha virt. eigenvalues --    0.17353   0.18047   0.29120   0.33309   0.33642
 Alpha virt. eigenvalues --    0.36116   0.37902   0.39924   0.40770   0.43434

 Mulliken charges:
               1
     1  C    0.067845
     2  O   -0.435197
     3  H    0.049320
     4  H    0.049627
     5  H    0.065374
     6  H    0.203031
 Sum of Mulliken charges =   0.00000

 Dipole moment (field-independent basis, Debye):
    X=             -0.8162    Y=             -1.4948    Z=              0.1277  Tot=              1.7079
 Quadrupole moment (field-independent basis, Debye-Ang):
   XX=            -12.8972   YY=            -12.3830   ZZ=            -13.8175
   XY=             -2.1900   XZ=              0.1492   YZ=             -0.0407

 Normal termination of Gaussian 09 at Wed Aug 26 23:58:12 2020.
