 Gaussian 09, Revision D.01,
 Gaussian 09:  ES64L-G09RevD.01 24-Apr-2013

 --------------------
 #p B2PLYPD3/Def2QZVP
 --------------------

 --------
 methanol
 --------
 Symbolic Z-matrix:
 Charge =  0 Multiplicity = 1

                         Standard orientation:
 ---------------------------------------------------------------------
 Center     Atomic      Atomic             Coordinates (Angstroms)
 Number     Number       Type             X           Y           Z
 ---------------------------------------------------------------------
      1          6           0       -0.678163   -0.025784    0.006821
      2          8           0        0.751389    0.109394   -0.011302
      3          1           0       -0.984888   -0.467947    0.950679
      4          1           0       -1.047784   -0.601594   -0.888644
      5          1           0       -1.067476    1.014590   -0.051865
      6          1           0        1.158017   -0.665499    0.039320
 ---------------------------------------------------------------------

 SCF Done:  E(RB2PLYPD3) =  -115.544299497     A.U. after   10 cycles
 E2(B2PLYPD3) =    -0.1461299726D+00 E(B2PLYPD3) =    -0.11569042946958D+03

 The electronic state is 1-A.
 Alpha  occ. eigenvalues --  -19.71448 -10.66512  -1.17341  -0.79268  -0.59241
 Alpha  occ. eigenvalues --   -0.51957  -0.49580  -0.40728  -0.35649
 Alpha virt. eigenvalues --    0.05325   0.08516   0.12137   0.12313   0.14559
 Alpha virt. eigenvalues --    0.17009   0.18074   0.29034   0.32629   0.33327
 Alpha virt. eigenvalues --    0.37166   0.38696   0.39643   0.40645   0.43312

 Mulliken charges:
               1
     1  C    0.067153
     2  O   -0.431955
     3  H    0.056819
     4  H    0.051821
     5  H    0.073297
     6  H    0.182864
 Sum of Mulliken charges =   0.00000

 Dipole moment (field-independent basis, Debye):
    X=             -0.8976    Y=             -1.4071    Z=              0.1297  Tot=              1.6740
 Quadrupole moment (field-independent basis, Debye-Ang):
   XX=            -12.9599   YY=            -12.4276   ZZ=            -13.6071
   XY=             -2.1881   XZ=              0.1517   YZ=             -0.0735

 Normal termination of Gaussian 09 at Wed Aug 26 22:17:47 2020.
