 Gaussian 09, Revision D.01,
 Gaussian 09:  ES64L-G09RevD.01 24-Apr-2013

 --------------------
 #p B2PLYPD3/Def2QZVP
 --------------------

 --------
 methanol
 --------
 Symbolic Z-matrix:
 Charge =  0 Multiplicity = 1

                         Standard orientation:
 ---------------------------------------------------------------------
 Center     Atomic      Atomic             Coordinates (Angstroms)
 Number     Number       Type             X           Y           Z
 ---------------------------------------------------------------------
      1          6           0        0.664149   -0.022360    0.003447
      2          8           0       -0.753032    0.097886   -0.006633
      3          1           0        0.937292   -0.727749   -0.859254
      4          1           0        1.063805   -0.393211    0.987532
      5          1           0        1.141432    1.024652   -0.180280
      6          1           0       -1.103171   -0.552620    0.084382
 ---------------------------------------------------------------------

 SCF Done:  E(RB2PLYPD3) =  -115.472978000     A.U. after   10 cycles
 E2(B2PLYPD3) =    -0.1443963376D+00 E(B2PLYPD3) =    -0.11561737433784D+03

 The electronic state is 1-A.
 Alpha  occ. eigenvalues --  -19.70258 -10.67935  -1.22305  -0.80419  -0.61150
 Alpha  occ. eigenvalues --   -0.51923  -0.49991  -0.40682  -0.35962
 Alpha virt. eigenvalues --    0.05383   0.08998   0.11936   0.12079   0.14368
 Alpha virt. eigenvalues --    0.17248   0.17784   0.28757   0.32348   0.33272
 Alpha virt. eigenvalues --    0.36441   0.38463   0.39506   0.40181   0.43158

 Mulliken charges:
               1
     1  C    0.058660
     2  O   -0.297624
     3  H    0.048751
     4  H    0.054095
     5  H    0.073968
     6  H    0.062150
 Sum of Mulliken charges =   0.00000

 Dipole moment (field-independent basis, Debye):
    X=              0.9229    Y=             -1.2776    Z=              0.1951  Tot=              1.5881
 Quadrupole moment (field-independent basis, Debye-Ang):
   XX=            -13.0451   YY=            -12.5920   ZZ=            -13.5629
   XY=              2.0774   XZ=             -0.1451   YZ=             -0.1183

 Normal termination of Gaussian 09 at Wed Aug 26 16:06:58 2020.
