 Gaussian 09, Revision D.01,
 Gaussian 09:  ES64L-G09RevD.01 24-Apr-2013

 --------------------
 #p B2PLYPD3/Def2QZVP
 --------------------

 --------
 methanol
 --------
 Symbolic Z-matrix:
 Charge =  0 Multiplicity = 1

                         Standard orientation:
 ---------------------------------------------------------------------
 Center     Atomic      Atomic             Coordinates (Angstroms)
 Number     Number       Type             X           Y           Z
 ---------------------------------------------------------------------
      1          6           0        0.669950   -0.008513    0.009662
      2          8           0       -0.751320    0.094671   -0.019585
      3          1           0        1.009593   -0.799589   -0.787289
      4          1           0        1.006624   -0.280027    1.032283
      5          1           0        1.058488    0.978847   -0.261110
      6          1           0       -1.083843   -0.605519    0.114824
 ---------------------------------------------------------------------

 SCF Done:  E(RB2PLYPD3) =  -115.507927030     A.U. after   11 cycles
 E2(B2PLYPD3) =    -0.1447922343D+00 E(B2PLYPD3) =    -0.11565271926399D+03

 The electronic state is 1-A.
 Alpha  occ. eigenvalues --  -19.70632 -10.67162  -1.20695  -0.80077  -0.60358
 Alpha  occ. eigenvalues --   -0.51642  -0.50532  -0.41300  -0.35705
 Alpha virt. eigenvalues --    0.05393   0.08963   0.11848   0.12338   0.14477
 Alpha virt. eigenvalues --    0.17068   0.17809   0.28875   0.32667   0.32919
 Alpha virt. eigenvalues --    0.36897   0.39549   0.39734   0.40437   0.43241

 Mulliken charges:
               1
     1  C    0.062653
     2  O   -0.344766
     3  H    0.041143
     4  H    0.054919
     5  H    0.080255
     6  H    0.105796
 Sum of Mulliken charges =   0.00000

 Dipole moment (field-independent basis, Debye):
    X=              0.9528    Y=             -1.2572    Z=              0.2925  Tot=              1.6043
 Quadrupole moment (field-independent basis, Debye-Ang):
   XX=            -13.2495   YY=            -12.4349   ZZ=            -13.5188
   XY=              2.0726   XZ=             -0.3459   YZ=             -0.2239

 Normal termination of Gaussian 09 at Thu Aug 27 00:14:27 2020.
