 Gaussian 09, Revision D.01,
 Gaussian 09:  ES64L-G09RevD.01 24-Apr-2013

 --------------------
 #p B2PLYPD3/Def2QZVP
 --------------------

 --------
 methanol
 --------
 Symbolic Z-matrix:
 Charge =  0 Multiplicity = 1

                         Standard orientation:
 ---------------------------------------------------------------------
 Center     Atomic      Atomic             Coordinates (Angstroms)
 Number     Number       Type             X           Y           Z
 ---------------------------------------------------------------------
      1          6           0        0.661391   -0.014192    0.024734
      2          8           0       -0.736368    0.122735   -0.020767
      3          1           0        1.037465   -0.658094   -0.857462
      4          1           0        0.960390   -0.474869    0.869487
      5          1           0        1.072503    0.986051   -0.071791
      6          1           0       -1.147761   -0.749819    0.077501
 ---------------------------------------------------------------------

 SCF Done:  E(RB2PLYPD3) =  -115.545607958     A.U. after   11 cycles
 E2(B2PLYPD3) =    -0.1471053972D+00 E(B2PLYPD3) =    -0.11569271335493D+03

 The electronic state is 1-A.
 Alpha  occ. eigenvalues --  -19.72455 -10.65182  -1.16350  -0.78897  -0.59392
 Alpha  occ. eigenvalues --   -0.51757  -0.50112  -0.41177  -0.34949
 Alpha virt. eigenvalues --    0.04843   0.08318   0.12358   0.12448   0.15050
 Alpha virt. eigenvalues --    0.17255   0.17849   0.29250   0.32871   0.34049
 Alpha virt. eigenvalues --    0.34894   0.38772   0.39424   0.41058   0.45187

 Mulliken charges:
               1
     1  C    0.076737
     2  O   -0.459278
     3  H    0.032083
     4  H    0.050903
     5  H    0.072873
     6  H    0.226682
 Sum of Mulliken charges =   0.00000

 Dipole moment (field-independent basis, Debye):
    X=              0.7967    Y=             -1.4892    Z=              0.3065  Tot=              1.7165
 Quadrupole moment (field-independent basis, Debye-Ang):
   XX=            -13.0486   YY=            -12.1418   ZZ=            -13.8219
   XY=              2.2872   XZ=             -0.1299   YZ=             -0.2525

 Normal termination of Gaussian 09 at Wed Aug 26 14:55:22 2020.
