 Gaussian 09, Revision D.01,
 Gaussian 09:  ES64L-G09RevD.01 24-Apr-2013

 --------------------
 #p B2PLYPD3/Def2QZVP
 --------------------

 --------
 methanol
 --------
 Symbolic Z-matrix:
 Charge =  0 Multiplicity = 1

                         Standard orientation:
 ---------------------------------------------------------------------
 Center     Atomic      Atomic             Coordinates (Angstroms)
 Number     Number       Type             X           Y           Z
 ---------------------------------------------------------------------
      1          6           0        0.668950    0.028556   -0.013527
      2          8           0       -0.743300   -0.149258    0.005191
      3          1           0        0.991657    0.543274    0.859154
      4          1           0        1.007820    0.531831   -0.801341
      5          1           0        1.099393   -0.943686    0.008642
      6          1           0       -1.166167    0.891310   -0.026822
 ---------------------------------------------------------------------

 SCF Done:  E(RB2PLYPD3) =  -115.524138933     A.U. after   11 cycles
 E2(B2PLYPD3) =    -0.1499296079D+00 E(B2PLYPD3) =    -0.11567406854074D+03

 The electronic state is 1-A.
 Alpha  occ. eigenvalues --  -19.73666 -10.63682  -1.13455  -0.78962  -0.57015
 Alpha  occ. eigenvalues --   -0.52454  -0.49229  -0.40985  -0.35148
 Alpha virt. eigenvalues --    0.03498   0.07857   0.12493   0.12734   0.14935
 Alpha virt. eigenvalues --    0.17463   0.18111   0.28506   0.29891   0.33345
 Alpha virt. eigenvalues --    0.34099   0.39202   0.39690   0.42203   0.44720

 Mulliken charges:
               1
     1  C    0.088101
     2  O   -0.491543
     3  H    0.042874
     4  H    0.046764
     5  H    0.064461
     6  H    0.249344
 Sum of Mulliken charges =   0.00000

 Dipole moment (field-independent basis, Debye):
    X=              0.9472    Y=              1.6718    Z=             -0.0987  Tot=              1.9240
 Quadrupole moment (field-independent basis, Debye-Ang):
   XX=            -13.0133   YY=            -11.8695   ZZ=            -13.8715
   XY=             -2.3632   XZ=             -0.0127   YZ=             -0.1049

 Normal termination of Gaussian 09 at Thu Aug 27 00:15:10 2020.
