 Gaussian 09, Revision D.01,
 Gaussian 09:  ES64L-G09RevD.01 24-Apr-2013

 --------------------
 #p B2PLYPD3/Def2QZVP
 --------------------

 --------
 methanol
 --------
 Symbolic Z-matrix:
 Charge =  0 Multiplicity = 1

                         Standard orientation:
 ---------------------------------------------------------------------
 Center     Atomic      Atomic             Coordinates (Angstroms)
 Number     Number       Type             X           Y           Z
 ---------------------------------------------------------------------
      1          6           0        0.659602   -0.015109    0.002606
      2          8           0       -0.747072    0.099897   -0.005618
      3          1           0        1.048730   -0.625280   -0.874413
      4          1           0        0.992313   -0.488309    0.959983
      5          1           0        1.068904    1.036661   -0.065214
      6          1           0       -1.090977   -0.631594    0.008951
 ---------------------------------------------------------------------

 SCF Done:  E(RB2PLYPD3) =  -115.521200041     A.U. after   10 cycles
 E2(B2PLYPD3) =    -0.1450064279D+00 E(B2PLYPD3) =    -0.11566620646912D+03

 The electronic state is 1-A.
 Alpha  occ. eigenvalues --  -19.71072 -10.67069  -1.20454  -0.79659  -0.60709
 Alpha  occ. eigenvalues --   -0.51704  -0.50149  -0.41200  -0.35655
 Alpha virt. eigenvalues --    0.05365   0.08872   0.12055   0.12193   0.14753
 Alpha virt. eigenvalues --    0.17116   0.17834   0.28944   0.32930   0.33551
 Alpha virt. eigenvalues --    0.37446   0.38825   0.39646   0.40257   0.42950

 Mulliken charges:
               1
     1  C    0.061403
     2  O   -0.358678
     3  H    0.045120
     4  H    0.049795
     5  H    0.073798
     6  H    0.128562
 Sum of Mulliken charges =   0.00000

 Dipole moment (field-independent basis, Debye):
    X=              0.8746    Y=             -1.3537    Z=              0.0417  Tot=              1.6122
 Quadrupole moment (field-independent basis, Debye-Ang):
   XX=            -13.1924   YY=            -12.3664   ZZ=            -13.6824
   XY=              2.0538   XZ=             -0.0843   YZ=             -0.0293

 Normal termination of Gaussian 09 at Wed Aug 26 09:55:28 2020.
