 Gaussian 09, Revision D.01,
 Gaussian 09:  ES64L-G09RevD.01 24-Apr-2013

 --------------------
 #p B2PLYPD3/Def2QZVP
 --------------------

 --------
 methanol
 --------
 Symbolic Z-matrix:
 Charge =  0 Multiplicity = 1

                         Standard orientation:
 ---------------------------------------------------------------------
 Center     Atomic      Atomic             Coordinates (Angstroms)
 Number     Number       Type             X           Y           Z
 ---------------------------------------------------------------------
      1          6           0       -0.664742    0.001959    0.014132
      2          8           0        0.753489   -0.139270   -0.023680
      3          1           0       -1.079348    0.673082   -0.820616
      4          1           0       -0.993067    0.456544    0.863108
      5          1           0       -1.121877   -0.904210   -0.043362
      6          1           0        1.154833    0.876989    0.105516
 ---------------------------------------------------------------------

 SCF Done:  E(RB2PLYPD3) =  -115.526128336     A.U. after   11 cycles
 E2(B2PLYPD3) =    -0.1498017060D+00 E(B2PLYPD3) =    -0.11567593004182D+03

 The electronic state is 1-A.
 Alpha  occ. eigenvalues --  -19.73850 -10.64488  -1.13796  -0.78930  -0.57170
 Alpha  occ. eigenvalues --   -0.50724  -0.50472  -0.41382  -0.34883
 Alpha virt. eigenvalues --    0.03661   0.07719   0.12518   0.12692   0.14919
 Alpha virt. eigenvalues --    0.17709   0.18116   0.28867   0.30167   0.33073
 Alpha virt. eigenvalues --    0.33663   0.38448   0.40453   0.40741   0.44038

 Mulliken charges:
               1
     1  C    0.084970
     2  O   -0.485495
     3  H    0.030504
     4  H    0.044269
     5  H    0.072415
     6  H    0.253337
 Sum of Mulliken charges =   0.00000

 Dipole moment (field-independent basis, Debye):
    X=             -0.9228    Y=              1.5695    Z=              0.3410  Tot=              1.8523
 Quadrupole moment (field-independent basis, Debye-Ang):
   XX=            -12.9822   YY=            -11.9315   ZZ=            -14.0182
   XY=              2.4546   XZ=              0.1717   YZ=              0.2432

 Normal termination of Gaussian 09 at Wed Aug 26 14:29:27 2020.
