 Gaussian 09, Revision D.01,
 Gaussian 09:  ES64L-G09RevD.01 24-Apr-2013

 --------------------
 #p B2PLYPD3/Def2QZVP
 --------------------

 --------
 methanol
 --------
 Symbolic Z-matrix:
 Charge =  0 Multiplicity = 1

                         Standard orientation:
 ---------------------------------------------------------------------
 Center     Atomic      Atomic             Coordinates (Angstroms)
 Number     Number       Type             X           Y           Z
 ---------------------------------------------------------------------
      1          6           0       -0.648076   -0.027461    0.026073
      2          8           0        0.759935    0.065072   -0.038194
      3          1           0       -0.939850   -0.237927    1.019357
      4          1           0       -1.037214   -0.896411   -0.749601
      5          1           0       -1.155763    1.138935   -0.299277
      6          1           0        0.941799   -0.360410    0.178635
 ---------------------------------------------------------------------

 SCF Done:  E(RB2PLYPD3) =  -114.829675968     A.U. after   12 cycles
 E2(B2PLYPD3) =    -0.1430990707D+00 E(B2PLYPD3) =    -0.11497277503895D+03

 The electronic state is 1-A.
 Alpha  occ. eigenvalues --  -19.69186 -10.69732  -1.35180  -0.82923  -0.64066
 Alpha  occ. eigenvalues --   -0.52515  -0.49771  -0.41570  -0.37036
 Alpha virt. eigenvalues --    0.04757   0.09823   0.10679   0.11587   0.14596
 Alpha virt. eigenvalues --    0.16995   0.17474   0.27348   0.31095   0.32361
 Alpha virt. eigenvalues --    0.33330   0.36222   0.40509   0.41555   0.44349

 Mulliken charges:
               1
     1  C    0.052097
     2  O   -0.049338
     3  H    0.069456
     4  H    0.046760
     5  H    0.058769
     6  H   -0.177745
 Sum of Mulliken charges =   0.00000

 Dipole moment (field-independent basis, Debye):
    X=             -1.1257    Y=             -1.0322    Z=              0.6913  Tot=              1.6765
 Quadrupole moment (field-independent basis, Debye-Ang):
   XX=            -13.5935   YY=            -12.5519   ZZ=            -13.1669
   XY=             -1.4574   XZ=              0.5648   YZ=             -0.3167

 Normal termination of Gaussian 09 at Wed Aug 26 23:48:28 2020.
