 Gaussian 09, Revision D.01,
 Gaussian 09:  ES64L-G09RevD.01 24-Apr-2013

 --------------------
 #p B2PLYPD3/Def2QZVP
 --------------------

 --------
 methanol
 --------
 Symbolic Z-matrix:
 Charge =  0 Multiplicity = 1

                         Standard orientation:
 ---------------------------------------------------------------------
 Center     Atomic      Atomic             Coordinates (Angstroms)
 Number     Number       Type             X           Y           Z
 ---------------------------------------------------------------------
      1          6           0       -0.665619   -0.020041   -0.001835
      2          8           0        0.749922    0.106623   -0.003529
      3          1           0       -1.016336   -0.544180    0.923067
      4          1           0       -1.023664   -0.582547   -0.899958
      5          1           0       -1.113648    1.026428   -0.005399
      6          1           0        1.147987   -0.632442    0.021537
 ---------------------------------------------------------------------

 SCF Done:  E(RB2PLYPD3) =  -115.533910693     A.U. after   10 cycles
 E2(B2PLYPD3) =    -0.1455191870D+00 E(B2PLYPD3) =    -0.11567942988013D+03

 The electronic state is 1-A.
 Alpha  occ. eigenvalues --  -19.71306 -10.67059  -1.18920  -0.79444  -0.60240
 Alpha  occ. eigenvalues --   -0.51544  -0.49956  -0.40721  -0.35609
 Alpha virt. eigenvalues --    0.05352   0.08624   0.12185   0.12205   0.14689
 Alpha virt. eigenvalues --    0.17209   0.17877   0.29050   0.33130   0.33148
 Alpha virt. eigenvalues --    0.37061   0.38817   0.39638   0.40035   0.42893

 Mulliken charges:
               1
     1  C    0.065866
     2  O   -0.396477
     3  H    0.048624
     4  H    0.050373
     5  H    0.073501
     6  H    0.158112
 Sum of Mulliken charges =   0.00000

 Dipole moment (field-independent basis, Debye):
    X=             -0.8460    Y=             -1.3849    Z=              0.0495  Tot=              1.6236
 Quadrupole moment (field-independent basis, Debye-Ang):
   XX=            -12.9120   YY=            -12.4583   ZZ=            -13.7303
   XY=             -2.1656   XZ=              0.0690   YZ=             -0.0123

 Normal termination of Gaussian 09 at Wed Aug 26 23:59:21 2020.
