 Gaussian 09, Revision D.01,
 Gaussian 09:  ES64L-G09RevD.01 24-Apr-2013

 --------------------
 #p B2PLYPD3/Def2QZVP
 --------------------

 --------
 methanol
 --------
 Symbolic Z-matrix:
 Charge =  0 Multiplicity = 1

                         Standard orientation:
 ---------------------------------------------------------------------
 Center     Atomic      Atomic             Coordinates (Angstroms)
 Number     Number       Type             X           Y           Z
 ---------------------------------------------------------------------
      1          6           0       -0.631964    0.057505   -0.021965
      2          8           0        0.720364   -0.196976    0.011396
      3          1           0       -0.964173    0.475757   -0.702391
      4          1           0       -1.006290    0.566038    0.746739
      5          1           0       -1.192550   -0.904311    0.029488
      6          1           0        1.191882    1.093293   -0.033213
 ---------------------------------------------------------------------

 SCF Done:  E(RB2PLYPD3) =  -115.411864602     A.U. after   11 cycles
 E2(B2PLYPD3) =    -0.1544180193D+00 E(B2PLYPD3) =    -0.11556628262170D+03

 The electronic state is 1-A.
 Alpha  occ. eigenvalues --  -19.75554 -10.61467  -1.13707  -0.80947  -0.55861
 Alpha  occ. eigenvalues --   -0.53732  -0.49629  -0.38877  -0.35427
 Alpha virt. eigenvalues --   -0.01142   0.07367   0.12482   0.13236   0.15004
 Alpha virt. eigenvalues --    0.18133   0.18412   0.22334   0.29593   0.33690
 Alpha virt. eigenvalues --    0.35805   0.37262   0.39892   0.43206   0.45579

 Mulliken charges:
               1
     1  C    0.072161
     2  O   -0.463700
     3  H    0.076174
     4  H    0.036443
     5  H    0.041257
     6  H    0.237664
 Sum of Mulliken charges =   0.00000

 Dipole moment (field-independent basis, Debye):
    X=             -0.9257    Y=              1.8995    Z=             -0.1387  Tot=              2.1176
 Quadrupole moment (field-independent basis, Debye-Ang):
   XX=            -13.0147   YY=            -11.5108   ZZ=            -14.0515
   XY=              2.2881   XZ=             -0.0098   YZ=             -0.1335

 Normal termination of Gaussian 09 at Wed Aug 26 23:54:23 2020.
