 Gaussian 09, Revision D.01,
 Gaussian 09:  ES64L-G09RevD.01 24-Apr-2013

 --------------------
 #p B2PLYPD3/Def2QZVP
 --------------------

 --------
 methanol
 --------
 Symbolic Z-matrix:
 Charge =  0 Multiplicity = 1

                         Standard orientation:
 ---------------------------------------------------------------------
 Center     Atomic      Atomic             Coordinates (Angstroms)
 Number     Number       Type             X           Y           Z
 ---------------------------------------------------------------------
      1          6           0       -0.665739    0.009389    0.016726
      2          8           0        0.738436   -0.173694   -0.024612
      3          1           0       -1.054295    0.636862   -0.767193
      4          1           0       -0.895754    0.460785    0.775157
      5          1           0       -1.076673   -0.860799    0.000425
      6          1           0        1.113668    1.096370    0.088145
 ---------------------------------------------------------------------

 SCF Done:  E(RB2PLYPD3) =  -115.441850927     A.U. after   11 cycles
 E2(B2PLYPD3) =    -0.1539603373D+00 E(B2PLYPD3) =    -0.11559581126388D+03

 The electronic state is 1-A.
 Alpha  occ. eigenvalues --  -19.74865 -10.61559  -1.12357  -0.80322  -0.57071
 Alpha  occ. eigenvalues --   -0.52236  -0.49100  -0.40681  -0.34850
 Alpha virt. eigenvalues --   -0.00035   0.07667   0.12552   0.12919   0.14843
 Alpha virt. eigenvalues --    0.17539   0.18124   0.23517   0.29724   0.32977
 Alpha virt. eigenvalues --    0.34449   0.38843   0.40635   0.41622   0.45416

 Mulliken charges:
               1
     1  C    0.093769
     2  O   -0.487008
     3  H    0.033557
     4  H    0.054081
     5  H    0.064991
     6  H    0.240610
 Sum of Mulliken charges =   0.00000

 Dipole moment (field-independent basis, Debye):
    X=             -1.1436    Y=              1.7263    Z=              0.2992  Tot=              2.0922
 Quadrupole moment (field-independent basis, Debye-Ang):
   XX=            -13.4143   YY=            -11.2122   ZZ=            -13.9874
   XY=              2.3335   XZ=              0.1125   YZ=              0.2107

 Normal termination of Gaussian 09 at Wed Aug 26 19:04:50 2020.
