 Gaussian 09, Revision D.01,
 Gaussian 09:  ES64L-G09RevD.01 24-Apr-2013

 --------------------
 #p B2PLYPD3/Def2QZVP
 --------------------

 --------
 methanol
 --------
 Symbolic Z-matrix:
 Charge =  0 Multiplicity = 1

                         Standard orientation:
 ---------------------------------------------------------------------
 Center     Atomic      Atomic             Coordinates (Angstroms)
 Number     Number       Type             X           Y           Z
 ---------------------------------------------------------------------
      1          6           0        0.678641   -0.015569   -0.010512
      2          8           0       -0.759142    0.107852   -0.000689
      3          1           0        1.008729   -0.615570   -0.858427
      4          1           0        1.123290   -0.441644    0.929663
      5          1           0        0.983795    1.027588   -0.068009
      6          1           0       -1.114518   -0.739778    0.065350
 ---------------------------------------------------------------------

 SCF Done:  E(RB2PLYPD3) =  -115.549186013     A.U. after   10 cycles
 E2(B2PLYPD3) =    -0.1471951171D+00 E(B2PLYPD3) =    -0.11569638112976D+03

 The electronic state is 1-A.
 Alpha  occ. eigenvalues --  -19.72223 -10.66175  -1.16378  -0.78805  -0.58999
 Alpha  occ. eigenvalues --   -0.51471  -0.48874  -0.41732  -0.35587
 Alpha virt. eigenvalues --    0.05123   0.08296   0.12153   0.12292   0.14927
 Alpha virt. eigenvalues --    0.16815   0.18166   0.28951   0.32398   0.33595
 Alpha virt. eigenvalues --    0.36818   0.37892   0.39860   0.40465   0.42997

 Mulliken charges:
               1
     1  C    0.062698
     2  O   -0.446629
     3  H    0.054692
     4  H    0.048994
     5  H    0.075204
     6  H    0.205041
 Sum of Mulliken charges =   0.00000

 Dipole moment (field-independent basis, Debye):
    X=              0.9710    Y=             -1.4619    Z=              0.0835  Tot=              1.7570
 Quadrupole moment (field-independent basis, Debye-Ang):
   XX=            -13.2098   YY=            -12.1337   ZZ=            -13.7829
   XY=              2.0620   XZ=             -0.0911   YZ=             -0.0255

 Normal termination of Gaussian 09 at Wed Aug 26 11:27:52 2020.
