 Gaussian 09, Revision D.01,
 Gaussian 09:  ES64L-G09RevD.01 24-Apr-2013

 --------------------
 #p B2PLYPD3/Def2QZVP
 --------------------

 --------
 methanol
 --------
 Symbolic Z-matrix:
 Charge =  0 Multiplicity = 1

                         Standard orientation:
 ---------------------------------------------------------------------
 Center     Atomic      Atomic             Coordinates (Angstroms)
 Number     Number       Type             X           Y           Z
 ---------------------------------------------------------------------
      1          6           0        0.675799   -0.015800   -0.002241
      2          8           0       -0.753046    0.101012   -0.001899
      3          1           0        1.026590   -0.577010   -0.892919
      4          1           0        0.981710   -0.550850    0.930490
      5          1           0        1.067961    1.041328   -0.004159
      6          1           0       -1.106683   -0.626764   -0.004772
 ---------------------------------------------------------------------

 SCF Done:  E(RB2PLYPD3) =  -115.521859413     A.U. after   10 cycles
 E2(B2PLYPD3) =    -0.1451105810D+00 E(B2PLYPD3) =    -0.11566696999399D+03

 The electronic state is 1-A.
 Alpha  occ. eigenvalues --  -19.70754 -10.66943  -1.19572  -0.79794  -0.60275
 Alpha  occ. eigenvalues --   -0.51709  -0.49844  -0.41327  -0.35683
 Alpha virt. eigenvalues --    0.05383   0.08871   0.12073   0.12136   0.14676
 Alpha virt. eigenvalues --    0.17026   0.17681   0.29058   0.32419   0.33193
 Alpha virt. eigenvalues --    0.37833   0.38786   0.39981   0.40014   0.43002

 Mulliken charges:
               1
     1  C    0.067765
     2  O   -0.374108
     3  H    0.051793
     4  H    0.050495
     5  H    0.076996
     6  H    0.127059
 Sum of Mulliken charges =   0.00000

 Dipole moment (field-independent basis, Debye):
    X=              0.9633    Y=             -1.3715    Z=             -0.0112  Tot=              1.6760
 Quadrupole moment (field-independent basis, Debye-Ang):
   XX=            -13.1599   YY=            -12.2984   ZZ=            -13.6429
   XY=              2.0705   XZ=             -0.0467   YZ=              0.0229

 Normal termination of Gaussian 09 at Thu Aug 27 00:07:18 2020.
