 Gaussian 09, Revision D.01,
 Gaussian 09:  ES64L-G09RevD.01 24-Apr-2013

 --------------------
 #p B2PLYPD3/Def2QZVP
 --------------------

 --------
 methanol
 --------
 Symbolic Z-matrix:
 Charge =  0 Multiplicity = 1

                         Standard orientation:
 ---------------------------------------------------------------------
 Center     Atomic      Atomic             Coordinates (Angstroms)
 Number     Number       Type             X           Y           Z
 ---------------------------------------------------------------------
      1          6           0       -0.644045   -0.011873    0.023175
      2          8           0        0.756362   -0.128224   -0.012866
      3          1           0       -1.065723    0.695341   -0.833688
      4          1           0       -1.045426    0.444981    0.895578
      5          1           0       -1.142817   -0.896963   -0.144696
      6          1           0        1.067342    0.853670    0.046679
 ---------------------------------------------------------------------

 SCF Done:  E(RB2PLYPD3) =  -115.536384105     A.U. after   10 cycles
 E2(B2PLYPD3) =    -0.1488336026D+00 E(B2PLYPD3) =    -0.11568521770752D+03

 The electronic state is 1-A.
 Alpha  occ. eigenvalues --  -19.73893 -10.65582  -1.15931  -0.78412  -0.58268
 Alpha  occ. eigenvalues --   -0.51496  -0.50297  -0.41523  -0.34815
 Alpha virt. eigenvalues --    0.04196   0.07860   0.12302   0.12642   0.14886
 Alpha virt. eigenvalues --    0.17962   0.18281   0.29174   0.31207   0.33062
 Alpha virt. eigenvalues --    0.34281   0.37348   0.40655   0.40970   0.43785

 Mulliken charges:
               1
     1  C    0.074947
     2  O   -0.455355
     3  H    0.014014
     4  H    0.044835
     5  H    0.073468
     6  H    0.248091
 Sum of Mulliken charges =   0.00000

 Dipole moment (field-independent basis, Debye):
    X=             -0.9076    Y=              1.4921    Z=              0.2093  Tot=              1.7590
 Quadrupole moment (field-independent basis, Debye-Ang):
   XX=            -13.2755   YY=            -12.0531   ZZ=            -14.0873
   XY=              2.3690   XZ=              0.0280   YZ=              0.2642

 Normal termination of Gaussian 09 at Wed Aug 26 18:37:31 2020.
