 Gaussian 09, Revision D.01,
 Gaussian 09:  ES64L-G09RevD.01 24-Apr-2013

 --------------------
 #p B2PLYPD3/Def2QZVP
 --------------------

 --------
 methanol
 --------
 Symbolic Z-matrix:
 Charge =  0 Multiplicity = 1

                         Standard orientation:
 ---------------------------------------------------------------------
 Center     Atomic      Atomic             Coordinates (Angstroms)
 Number     Number       Type             X           Y           Z
 ---------------------------------------------------------------------
      1          6           0        0.670604    0.019376   -0.028977
      2          8           0       -0.761469   -0.030606    0.080788
      3          1           0        0.889944    1.056016   -0.446140
      4          1           0        1.031983   -0.983110   -0.623776
      5          1           0        1.144126   -0.062595    1.048402
      6          1           0       -0.997923    0.118277   -0.450933
 ---------------------------------------------------------------------

 SCF Done:  E(RB2PLYPD3) =  -115.211405884     A.U. after   11 cycles
 E2(B2PLYPD3) =    -0.1436225852D+00 E(B2PLYPD3) =    -0.11535502846962D+03

 The electronic state is 1-A.
 Alpha  occ. eigenvalues --  -19.68678 -10.69340  -1.29134  -0.81509  -0.61540
 Alpha  occ. eigenvalues --   -0.52285  -0.50145  -0.41158  -0.36505
 Alpha virt. eigenvalues --    0.05153   0.09477   0.11194   0.11790   0.13551
 Alpha virt. eigenvalues --    0.17240   0.17783   0.27751   0.31494   0.32513
 Alpha virt. eigenvalues --    0.34957   0.36734   0.39066   0.40608   0.44589

 Mulliken charges:
               1
     1  C    0.054452
     2  O   -0.175241
     3  H    0.061287
     4  H    0.052788
     5  H    0.074372
     6  H   -0.067657
 Sum of Mulliken charges =   0.00000

 Dipole moment (field-independent basis, Debye):
    X=              1.1425    Y=              0.4018    Z=             -1.0760  Tot=              1.6200
 Quadrupole moment (field-independent basis, Debye-Ang):
   XX=            -13.5338   YY=            -13.0505   ZZ=            -12.7707
   XY=             -0.4894   XZ=              1.8918   YZ=             -0.2338

 Normal termination of Gaussian 09 at Wed Aug 26 22:19:19 2020.
