 Gaussian 09, Revision D.01,
 Gaussian 09:  ES64L-G09RevD.01 24-Apr-2013

 --------------------
 #p B2PLYPD3/Def2QZVP
 --------------------

 --------
 methanol
 --------
 Symbolic Z-matrix:
 Charge =  0 Multiplicity = 1

                         Standard orientation:
 ---------------------------------------------------------------------
 Center     Atomic      Atomic             Coordinates (Angstroms)
 Number     Number       Type             X           Y           Z
 ---------------------------------------------------------------------
      1          6           0       -0.710177   -0.048512    0.007098
      2          8           0        0.766263    0.050022   -0.013452
      3          1           0       -0.940408   -0.422519    1.046471
      4          1           0       -1.058365   -0.679805   -0.890140
      5          1           0       -1.046624    1.258922   -0.117916
      6          1           0        1.176353   -0.265698    0.026615
 ---------------------------------------------------------------------

 SCF Done:  E(RB2PLYPD3) =  -114.849946286     A.U. after   12 cycles
 E2(B2PLYPD3) =    -0.1443043175D+00 E(B2PLYPD3) =    -0.11499425060391D+03

 The electronic state is 1-A.
 Alpha  occ. eigenvalues --  -19.66798 -10.71778  -1.29776  -0.84491  -0.61695
 Alpha  occ. eigenvalues --   -0.52562  -0.47572  -0.37689  -0.36928
 Alpha virt. eigenvalues --    0.04368   0.09751   0.10157   0.11560   0.13430
 Alpha virt. eigenvalues --    0.16248   0.17438   0.27741   0.29445   0.31026
 Alpha virt. eigenvalues --    0.32883   0.36897   0.39055   0.40998   0.41904

 Mulliken charges:
               1
     1  C    0.058700
     2  O   -0.128902
     3  H    0.083600
     4  H    0.083755
     5  H    0.075642
     6  H   -0.172795
 Sum of Mulliken charges =   0.00000

 Dipole moment (field-independent basis, Debye):
    X=             -1.1374    Y=             -1.0390    Z=              0.1533  Tot=              1.5481
 Quadrupole moment (field-independent basis, Debye-Ang):
   XX=            -12.7126   YY=            -12.7451   ZZ=            -13.0788
   XY=             -1.2785   XZ=              0.2668   YZ=              0.0212

 Normal termination of Gaussian 09 at Wed Aug 26 23:54:56 2020.
