 Gaussian 09, Revision D.01,
 Gaussian 09:  ES64L-G09RevD.01 24-Apr-2013

 --------------------
 #p B2PLYPD3/Def2QZVP
 --------------------

 --------
 methanol
 --------
 Symbolic Z-matrix:
 Charge =  0 Multiplicity = 1

                         Standard orientation:
 ---------------------------------------------------------------------
 Center     Atomic      Atomic             Coordinates (Angstroms)
 Number     Number       Type             X           Y           Z
 ---------------------------------------------------------------------
      1          6           0        0.673091   -0.016649    0.010286
      2          8           0       -0.750410    0.083406   -0.020590
      3          1           0        0.987125   -0.783115   -0.837759
      4          1           0        0.975554   -0.326671    1.069010
      5          1           0        1.109239    1.019767   -0.235987
      6          1           0       -1.107183   -0.477337    0.107742
 ---------------------------------------------------------------------

 SCF Done:  E(RB2PLYPD3) =  -115.385716110     A.U. after   11 cycles
 E2(B2PLYPD3) =    -0.1437349815D+00 E(B2PLYPD3) =    -0.11552945109123D+03

 The electronic state is 1-A.
 Alpha  occ. eigenvalues --  -19.69087 -10.68676  -1.24606  -0.81672  -0.61137
 Alpha  occ. eigenvalues --   -0.51758  -0.50493  -0.40346  -0.35997
 Alpha virt. eigenvalues --    0.05334   0.09341   0.11606   0.12065   0.14006
 Alpha virt. eigenvalues --    0.16970   0.17624   0.28594   0.32086   0.32754
 Alpha virt. eigenvalues --    0.36438   0.37944   0.39103   0.40599   0.43055

 Mulliken charges:
               1
     1  C    0.057933
     2  O   -0.240645
     3  H    0.048464
     4  H    0.056102
     5  H    0.083369
     6  H   -0.005223
 Sum of Mulliken charges =   0.00000

 Dipole moment (field-independent basis, Debye):
    X=              0.9421    Y=             -1.1243    Z=              0.2980  Tot=              1.4968
 Quadrupole moment (field-independent basis, Debye-Ang):
   XX=            -13.0939   YY=            -12.6836   ZZ=            -13.3526
   XY=              2.0040   XZ=             -0.4183   YZ=             -0.1812

 Normal termination of Gaussian 09 at Wed Aug 26 14:32:55 2020.
