 Gaussian 09, Revision D.01,
 Gaussian 09:  ES64L-G09RevD.01 24-Apr-2013

 --------------------
 #p B2PLYPD3/Def2QZVP
 --------------------

 --------
 methanol
 --------
 Symbolic Z-matrix:
 Charge =  0 Multiplicity = 1

                         Standard orientation:
 ---------------------------------------------------------------------
 Center     Atomic      Atomic             Coordinates (Angstroms)
 Number     Number       Type             X           Y           Z
 ---------------------------------------------------------------------
      1          6           0       -0.635130    0.024540    0.005671
      2          8           0        0.737523   -0.197753   -0.018419
      3          1           0       -1.081343    0.643153   -0.679243
      4          1           0       -0.989458    0.375561    0.738923
      5          1           0       -1.130216   -0.831844   -0.030015
      6          1           0        1.111613    1.247919    0.083663
 ---------------------------------------------------------------------

 SCF Done:  E(RB2PLYPD3) =  -115.384354164     A.U. after   12 cycles
 E2(B2PLYPD3) =    -0.1577356774D+00 E(B2PLYPD3) =    -0.11554208984136D+03

 The electronic state is 1-A.
 Alpha  occ. eigenvalues --  -19.76316 -10.60801  -1.12908  -0.81902  -0.55176
 Alpha  occ. eigenvalues --   -0.52681  -0.50065  -0.38856  -0.35348
 Alpha virt. eigenvalues --   -0.03733   0.07300   0.12506   0.13333   0.14854
 Alpha virt. eigenvalues --    0.17892   0.18688   0.21250   0.29837   0.33741
 Alpha virt. eigenvalues --    0.35477   0.38118   0.39247   0.42963   0.45104

 Mulliken charges:
               1
     1  C    0.100081
     2  O   -0.454392
     3  H    0.027591
     4  H    0.058653
     5  H    0.043696
     6  H    0.224371
 Sum of Mulliken charges =   0.00000

 Dipole moment (field-independent basis, Debye):
    X=             -1.1967    Y=              1.8085    Z=              0.2690  Tot=              2.1852
 Quadrupole moment (field-independent basis, Debye-Ang):
   XX=            -13.3308   YY=            -11.0347   ZZ=            -14.1930
   XY=              2.1927   XZ=             -0.0055   YZ=              0.1418

 Normal termination of Gaussian 09 at Wed Aug 26 22:34:02 2020.
