 Gaussian 09, Revision D.01,
 Gaussian 09:  ES64L-G09RevD.01 24-Apr-2013

 --------------------
 #p B2PLYPD3/Def2QZVP
 --------------------

 --------
 methanol
 --------
 Symbolic Z-matrix:
 Charge =  0 Multiplicity = 1

                         Standard orientation:
 ---------------------------------------------------------------------
 Center     Atomic      Atomic             Coordinates (Angstroms)
 Number     Number       Type             X           Y           Z
 ---------------------------------------------------------------------
      1          6           0       -0.703750   -0.048573    0.000226
      2          8           0        0.761772    0.101600   -0.006994
      3          1           0       -0.929846   -0.569274    0.901984
      4          1           0       -1.074493   -0.565523   -0.858703
      5          1           0       -1.102597    1.163037    0.023257
      6          1           0        1.235258   -0.549599   -0.011939
 ---------------------------------------------------------------------

 SCF Done:  E(RB2PLYPD3) =  -115.497978974     A.U. after   11 cycles
 E2(B2PLYPD3) =    -0.1458624489D+00 E(B2PLYPD3) =    -0.11564384142242D+03

 The electronic state is 1-A.
 Alpha  occ. eigenvalues --  -19.70136 -10.67980  -1.17937  -0.80180  -0.60135
 Alpha  occ. eigenvalues --   -0.52565  -0.47297  -0.39630  -0.36024
 Alpha virt. eigenvalues --    0.05216   0.08544   0.10999   0.12367   0.14593
 Alpha virt. eigenvalues --    0.16719   0.17658   0.28693   0.30925   0.33485
 Alpha virt. eigenvalues --    0.33551   0.39513   0.40134   0.40862   0.42384

 Mulliken charges:
               1
     1  C    0.065171
     2  O   -0.392446
     3  H    0.069507
     4  H    0.070417
     5  H    0.068195
     6  H    0.119155
 Sum of Mulliken charges =   0.00000

 Dipole moment (field-independent basis, Debye):
    X=             -0.9248    Y=             -1.4582    Z=             -0.0010  Tot=              1.7267
 Quadrupole moment (field-independent basis, Debye-Ang):
   XX=            -12.6350   YY=            -12.4977   ZZ=            -13.6598
   XY=             -1.9240   XZ=              0.1202   YZ=              0.0170

 Normal termination of Gaussian 09 at Wed Aug 26 23:07:50 2020.
