 Gaussian 09, Revision D.01,
 Gaussian 09:  ES64L-G09RevD.01 24-Apr-2013

 --------------------
 #p B2PLYPD3/Def2QZVP
 --------------------

 --------
 methanol
 --------
 Symbolic Z-matrix:
 Charge =  0 Multiplicity = 1

                         Standard orientation:
 ---------------------------------------------------------------------
 Center     Atomic      Atomic             Coordinates (Angstroms)
 Number     Number       Type             X           Y           Z
 ---------------------------------------------------------------------
      1          6           0       -0.668041   -0.019112    0.012503
      2          8           0        0.757487    0.106080   -0.017789
      3          1           0       -1.004181   -0.426336    0.955972
      4          1           0       -1.078393   -0.630801   -0.880453
      5          1           0       -1.074656    1.002229   -0.081411
      6          1           0        1.105583   -0.679060    0.073193
 ---------------------------------------------------------------------

 SCF Done:  E(RB2PLYPD3) =  -115.540625055     A.U. after   10 cycles
 E2(B2PLYPD3) =    -0.1460647299D+00 E(B2PLYPD3) =    -0.11568668978535D+03

 The electronic state is 1-A.
 Alpha  occ. eigenvalues --  -19.71746 -10.66629  -1.18257  -0.79229  -0.59655
 Alpha  occ. eigenvalues --   -0.51619  -0.49818  -0.41268  -0.35779
 Alpha virt. eigenvalues --    0.05316   0.08522   0.12068   0.12356   0.14632
 Alpha virt. eigenvalues --    0.17201   0.18176   0.28915   0.32762   0.33251
 Alpha virt. eigenvalues --    0.36885   0.38659   0.39545   0.40620   0.43570

 Mulliken charges:
               1
     1  C    0.063422
     2  O   -0.412233
     3  H    0.056191
     4  H    0.045596
     5  H    0.072190
     6  H    0.174835
 Sum of Mulliken charges =   0.00000

 Dipole moment (field-independent basis, Debye):
    X=             -0.9471    Y=             -1.3794    Z=              0.2354  Tot=              1.6897
 Quadrupole moment (field-independent basis, Debye-Ang):
   XX=            -13.1210   YY=            -12.4113   ZZ=            -13.6377
   XY=             -2.1347   XZ=              0.2108   YZ=             -0.1556

 Normal termination of Gaussian 09 at Thu Aug 27 00:10:22 2020.
