 Gaussian 09, Revision D.01,
 Gaussian 09:  ES64L-G09RevD.01 24-Apr-2013

 --------------------
 #p B2PLYPD3/Def2QZVP
 --------------------

 --------
 methanol
 --------
 Symbolic Z-matrix:
 Charge =  0 Multiplicity = 1

                         Standard orientation:
 ---------------------------------------------------------------------
 Center     Atomic      Atomic             Coordinates (Angstroms)
 Number     Number       Type             X           Y           Z
 ---------------------------------------------------------------------
      1          6           0       -0.668668    0.004483    0.008984
      2          8           0        0.750717   -0.142388   -0.016510
      3          1           0       -1.016759    0.626937   -0.840848
      4          1           0       -0.993594    0.454028    0.862339
      5          1           0       -1.067739   -0.895786   -0.035131
      6          1           0        1.084362    0.927024    0.091815
 ---------------------------------------------------------------------

 SCF Done:  E(RB2PLYPD3) =  -115.518865834     A.U. after   11 cycles
 E2(B2PLYPD3) =    -0.1501931221D+00 E(B2PLYPD3) =    -0.11566905895570D+03

 The electronic state is 1-A.
 Alpha  occ. eigenvalues --  -19.73800 -10.63651  -1.13543  -0.79158  -0.57030
 Alpha  occ. eigenvalues --   -0.51770  -0.49860  -0.41652  -0.34992
 Alpha virt. eigenvalues --    0.03381   0.07932   0.12452   0.12701   0.14804
 Alpha virt. eigenvalues --    0.17577   0.18071   0.28346   0.29841   0.33137
 Alpha virt. eigenvalues --    0.33839   0.38746   0.41002   0.41476   0.44097

 Mulliken charges:
               1
     1  C    0.087764
     2  O   -0.487962
     3  H    0.037175
     4  H    0.042437
     5  H    0.070549
     6  H    0.250038
 Sum of Mulliken charges =   0.00000

 Dipole moment (field-independent basis, Debye):
    X=             -1.0702    Y=              1.5967    Z=              0.2520  Tot=              1.9386
 Quadrupole moment (field-independent basis, Debye-Ang):
   XX=            -13.3906   YY=            -11.7109   ZZ=            -13.8513
   XY=              2.3260   XZ=              0.1154   YZ=              0.1794

 Normal termination of Gaussian 09 at Wed Aug 26 14:59:13 2020.
