 Gaussian 09, Revision D.01,
 Gaussian 09:  ES64L-G09RevD.01 24-Apr-2013

 --------------------
 #p B2PLYPD3/Def2QZVP
 --------------------

 --------
 methanol
 --------
 Symbolic Z-matrix:
 Charge =  0 Multiplicity = 1

                         Standard orientation:
 ---------------------------------------------------------------------
 Center     Atomic      Atomic             Coordinates (Angstroms)
 Number     Number       Type             X           Y           Z
 ---------------------------------------------------------------------
      1          6           0        0.646889    0.026187   -0.003443
      2          8           0       -0.735012   -0.160934    0.006573
      3          1           0        1.000943    0.550525    0.855711
      4          1           0        1.046094    0.487782   -0.834854
      5          1           0        1.140966   -0.858203    0.002600
      6          1           0       -1.189242    0.950251   -0.055384
 ---------------------------------------------------------------------

 SCF Done:  E(RB2PLYPD3) =  -115.505524647     A.U. after   11 cycles
 E2(B2PLYPD3) =    -0.1511417357D+00 E(B2PLYPD3) =    -0.11565666638234D+03

 The electronic state is 1-A.
 Alpha  occ. eigenvalues --  -19.74456 -10.63245  -1.13783  -0.78914  -0.55969
 Alpha  occ. eigenvalues --   -0.52369  -0.50402  -0.40086  -0.35050
 Alpha virt. eigenvalues --    0.02219   0.07620   0.12692   0.12976   0.14864
 Alpha virt. eigenvalues --    0.17872   0.18526   0.26107   0.29485   0.33397
 Alpha virt. eigenvalues --    0.35132   0.39340   0.40588   0.42114   0.43525

 Mulliken charges:
               1
     1  C    0.082929
     2  O   -0.481676
     3  H    0.040211
     4  H    0.040520
     5  H    0.059606
     6  H    0.258410
 Sum of Mulliken charges =   0.00000

 Dipole moment (field-independent basis, Debye):
    X=              0.8431    Y=              1.6539    Z=             -0.1326  Tot=              1.8611
 Quadrupole moment (field-independent basis, Debye-Ang):
   XX=            -12.8253   YY=            -11.9705   ZZ=            -13.9217
   XY=             -2.5601   XZ=              0.0337   YZ=             -0.0782

 Normal termination of Gaussian 09 at Wed Aug 26 14:15:03 2020.
