 Gaussian 09, Revision D.01,
 Gaussian 09:  ES64L-G09RevD.01 24-Apr-2013

 --------------------
 #p B2PLYPD3/Def2QZVP
 --------------------

 --------
 methanol
 --------
 Symbolic Z-matrix:
 Charge =  0 Multiplicity = 1

                         Standard orientation:
 ---------------------------------------------------------------------
 Center     Atomic      Atomic             Coordinates (Angstroms)
 Number     Number       Type             X           Y           Z
 ---------------------------------------------------------------------
      1          6           0        0.672146    0.034525    0.005961
      2          8           0       -0.751921   -0.146530   -0.004483
      3          1           0        1.028045    0.465131    0.866394
      4          1           0        1.047418    0.574449   -0.824399
      5          1           0        1.114683   -0.943224   -0.055464
      6          1           0       -1.207656    0.868735    0.013565
 ---------------------------------------------------------------------

 SCF Done:  E(RB2PLYPD3) =  -115.529764994     A.U. after   11 cycles
 E2(B2PLYPD3) =    -0.1500278500D+00 E(B2PLYPD3) =    -0.11567979284350D+03

 The electronic state is 1-A.
 Alpha  occ. eigenvalues --  -19.73764 -10.64257  -1.13128  -0.78858  -0.56483
 Alpha  occ. eigenvalues --   -0.52276  -0.49076  -0.40626  -0.35440
 Alpha virt. eigenvalues --    0.03697   0.07668   0.12546   0.12686   0.14867
 Alpha virt. eigenvalues --    0.17388   0.18413   0.28604   0.29980   0.33449
 Alpha virt. eigenvalues --    0.33775   0.38791   0.39778   0.42196   0.43926

 Mulliken charges:
               1
     1  C    0.080403
     2  O   -0.494325
     3  H    0.052552
     4  H    0.047561
     5  H    0.062683
     6  H    0.251125
 Sum of Mulliken charges =   0.00000

 Dipole moment (field-independent basis, Debye):
    X=              0.9190    Y=              1.6461    Z=              0.0519  Tot=              1.8860
 Quadrupole moment (field-independent basis, Debye-Ang):
   XX=            -12.7518   YY=            -12.0868   ZZ=            -13.8700
   XY=             -2.4126   XZ=             -0.0339   YZ=              0.0406

 Normal termination of Gaussian 09 at Wed Aug 26 12:12:37 2020.
