 Gaussian 09, Revision D.01,
 Gaussian 09:  ES64L-G09RevD.01 24-Apr-2013

 --------------------
 #p B2PLYPD3/Def2QZVP
 --------------------

 --------
 methanol
 --------
 Symbolic Z-matrix:
 Charge =  0 Multiplicity = 1

                         Standard orientation:
 ---------------------------------------------------------------------
 Center     Atomic      Atomic             Coordinates (Angstroms)
 Number     Number       Type             X           Y           Z
 ---------------------------------------------------------------------
      1          6           0        0.664877   -0.006519   -0.017543
      2          8           0       -0.754200    0.077752    0.006197
      3          1           0        1.093904   -0.553860   -0.905978
      4          1           0        1.021946   -0.605095    0.968235
      5          1           0        1.041878    1.095337    0.047152
      6          1           0       -1.113390   -0.519286   -0.053728
 ---------------------------------------------------------------------

 SCF Done:  E(RB2PLYPD3) =  -115.417026609     A.U. after   11 cycles
 E2(B2PLYPD3) =    -0.1441537687D+00 E(B2PLYPD3) =    -0.11556118037776D+03

 The electronic state is 1-A.
 Alpha  occ. eigenvalues --  -19.69832 -10.68774  -1.24014  -0.81283  -0.61803
 Alpha  occ. eigenvalues --   -0.50705  -0.50169  -0.41105  -0.35701
 Alpha virt. eigenvalues --    0.05303   0.09110   0.11765   0.11820   0.14711
 Alpha virt. eigenvalues --    0.16743   0.17760   0.28855   0.32078   0.33306
 Alpha virt. eigenvalues --    0.36545   0.37606   0.38916   0.40520   0.41972

 Mulliken charges:
               1
     1  C    0.051143
     2  O   -0.247176
     3  H    0.056455
     4  H    0.039956
     5  H    0.082536
     6  H    0.017086
 Sum of Mulliken charges =   0.00000

 Dipole moment (field-independent basis, Debye):
    X=              0.8689    Y=             -1.1918    Z=             -0.2099  Tot=              1.4897
 Quadrupole moment (field-independent basis, Debye-Ang):
   XX=            -13.0368   YY=            -12.4842   ZZ=            -13.7040
   XY=              1.8875   XZ=             -0.0001   YZ=              0.1921

 Normal termination of Gaussian 09 at Wed Aug 26 14:27:39 2020.
