 Gaussian 09, Revision D.01,
 Gaussian 09:  ES64L-G09RevD.01 24-Apr-2013

 --------------------
 #p B2PLYPD3/Def2QZVP
 --------------------

 --------
 methanol
 --------
 Symbolic Z-matrix:
 Charge =  0 Multiplicity = 1

                         Standard orientation:
 ---------------------------------------------------------------------
 Center     Atomic      Atomic             Coordinates (Angstroms)
 Number     Number       Type             X           Y           Z
 ---------------------------------------------------------------------
      1          6           0       -0.654587   -0.018814    0.024390
      2          8           0        0.746115    0.064208   -0.048959
      3          1           0       -0.903390   -0.203517    1.088297
      4          1           0       -1.169855   -0.877015   -0.717923
      5          1           0       -1.135010    1.068765   -0.294204
      6          1           0        1.166855   -0.389013    0.169164
 ---------------------------------------------------------------------

 SCF Done:  E(RB2PLYPD3) =  -115.332674635     A.U. after   11 cycles
 E2(B2PLYPD3) =    -0.1440100554D+00 E(B2PLYPD3) =    -0.11547668469080D+03

 The electronic state is 1-A.
 Alpha  occ. eigenvalues --  -19.69291 -10.69798  -1.25913  -0.82860  -0.62161
 Alpha  occ. eigenvalues --   -0.51567  -0.49855  -0.39202  -0.36011
 Alpha virt. eigenvalues --    0.05137   0.09073   0.11443   0.11940   0.14305
 Alpha virt. eigenvalues --    0.16849   0.17862   0.28655   0.32057   0.33071
 Alpha virt. eigenvalues --    0.34571   0.35692   0.40073   0.40619   0.42717

 Mulliken charges:
               1
     1  C    0.049884
     2  O   -0.200393
     3  H    0.059966
     4  H    0.044039
     5  H    0.073659
     6  H   -0.027154
 Sum of Mulliken charges =   0.00000

 Dipole moment (field-independent basis, Debye):
    X=             -0.7140    Y=             -0.9557    Z=              0.6297  Tot=              1.3490
 Quadrupole moment (field-independent basis, Debye-Ang):
   XX=            -12.6951   YY=            -13.0187   ZZ=            -13.4649
   XY=             -1.6898   XZ=              0.8331   YZ=             -0.2447

 Normal termination of Gaussian 09 at Wed Aug 26 22:23:48 2020.
