 Gaussian 09, Revision D.01,
 Gaussian 09:  ES64L-G09RevD.01 24-Apr-2013

 --------------------
 #p B2PLYPD3/Def2QZVP
 --------------------

 --------
 methanol
 --------
 Symbolic Z-matrix:
 Charge =  0 Multiplicity = 1

                         Standard orientation:
 ---------------------------------------------------------------------
 Center     Atomic      Atomic             Coordinates (Angstroms)
 Number     Number       Type             X           Y           Z
 ---------------------------------------------------------------------
      1          6           0        0.677385    0.027085   -0.004876
      2          8           0       -0.750274   -0.142106    0.008526
      3          1           0        1.038641    0.557065    0.841718
      4          1           0        1.027248    0.520153   -0.824445
      5          1           0        1.069531   -0.970043   -0.010443
      6          1           0       -1.197535    0.867160   -0.045781
 ---------------------------------------------------------------------

 SCF Done:  E(RB2PLYPD3) =  -115.530694977     A.U. after   11 cycles
 E2(B2PLYPD3) =    -0.1498747961D+00 E(B2PLYPD3) =    -0.11568056977345D+03

 The electronic state is 1-A.
 Alpha  occ. eigenvalues --  -19.73574 -10.64200  -1.13120  -0.78880  -0.57009
 Alpha  occ. eigenvalues --   -0.51956  -0.48879  -0.41056  -0.35261
 Alpha virt. eigenvalues --    0.03783   0.07778   0.12376   0.12749   0.15026
 Alpha virt. eigenvalues --    0.17189   0.18154   0.28832   0.30293   0.33390
 Alpha virt. eigenvalues --    0.33708   0.38853   0.39510   0.41886   0.44587

 Mulliken charges:
               1
     1  C    0.082621
     2  O   -0.495142
     3  H    0.047866
     4  H    0.048739
     5  H    0.067881
     6  H    0.248035
 Sum of Mulliken charges =   0.00000

 Dipole moment (field-independent basis, Debye):
    X=              0.9372    Y=              1.6483    Z=             -0.1297  Tot=              1.9005
 Quadrupole moment (field-independent basis, Debye-Ang):
   XX=            -12.8700   YY=            -11.9275   ZZ=            -13.9190
   XY=             -2.3308   XZ=              0.0682   YZ=             -0.0768

 Normal termination of Gaussian 09 at Thu Aug 27 00:00:15 2020.
