 Gaussian 09, Revision D.01,
 Gaussian 09:  ES64L-G09RevD.01 24-Apr-2013

 --------------------
 #p B2PLYPD3/Def2QZVP
 --------------------

 --------
 methanol
 --------
 Symbolic Z-matrix:
 Charge =  0 Multiplicity = 1

                         Standard orientation:
 ---------------------------------------------------------------------
 Center     Atomic      Atomic             Coordinates (Angstroms)
 Number     Number       Type             X           Y           Z
 ---------------------------------------------------------------------
      1          6           0        0.662954    0.057405   -0.008682
      2          8           0       -0.760698   -0.175148    0.011090
      3          1           0        1.096551    0.500868    0.810253
      4          1           0        1.123232    0.519534   -0.719275
      5          1           0        1.183780   -0.959833   -0.058030
      6          1           0       -1.295707    0.996192   -0.069576
 ---------------------------------------------------------------------

 SCF Done:  E(RB2PLYPD3) =  -115.467249057     A.U. after   11 cycles
 E2(B2PLYPD3) =    -0.1543418851D+00 E(B2PLYPD3) =    -0.11562159094230D+03

 The electronic state is 1-A.
 Alpha  occ. eigenvalues --  -19.75656 -10.63944  -1.11654  -0.79801  -0.54790
 Alpha  occ. eigenvalues --   -0.51622  -0.48215  -0.39570  -0.35755
 Alpha virt. eigenvalues --    0.00727   0.06977   0.12167   0.13185   0.14978
 Alpha virt. eigenvalues --    0.17536   0.18796   0.23819   0.29150   0.33145
 Alpha virt. eigenvalues --    0.34654   0.36289   0.39678   0.41757   0.44106

 Mulliken charges:
               1
     1  C    0.081224
     2  O   -0.480872
     3  H    0.051087
     4  H    0.053663
     5  H    0.043035
     6  H    0.251863
 Sum of Mulliken charges =   0.00000

 Dipole moment (field-independent basis, Debye):
    X=              0.8760    Y=              1.8328    Z=             -0.1718  Tot=              2.0386
 Quadrupole moment (field-independent basis, Debye-Ang):
   XX=            -12.3611   YY=            -11.9855   ZZ=            -14.2599
   XY=             -2.3998   XZ=              0.0707   YZ=             -0.1112

 Normal termination of Gaussian 09 at Wed Aug 26 22:17:31 2020.
