 Gaussian 09, Revision D.01,
 Gaussian 09:  ES64L-G09RevD.01 24-Apr-2013

 --------------------
 #p B2PLYPD3/Def2QZVP
 --------------------

 --------
 methanol
 --------
 Symbolic Z-matrix:
 Charge =  0 Multiplicity = 1

                         Standard orientation:
 ---------------------------------------------------------------------
 Center     Atomic      Atomic             Coordinates (Angstroms)
 Number     Number       Type             X           Y           Z
 ---------------------------------------------------------------------
      1          6           0       -0.685611    0.024010    0.013180
      2          8           0        0.748639   -0.154193   -0.021056
      3          1           0       -1.088721    0.613841   -0.789603
      4          1           0       -0.944810    0.474162    0.815634
      5          1           0       -1.068744   -0.930804   -0.005919
      6          1           0        1.226829    0.932285    0.069255
 ---------------------------------------------------------------------

 SCF Done:  E(RB2PLYPD3) =  -115.499864094     A.U. after   11 cycles
 E2(B2PLYPD3) =    -0.1514367155D+00 E(B2PLYPD3) =    -0.11565130080958D+03

 The electronic state is 1-A.
 Alpha  occ. eigenvalues --  -19.73961 -10.63123  -1.11925  -0.79586  -0.56498
 Alpha  occ. eigenvalues --   -0.52014  -0.48804  -0.40947  -0.35092
 Alpha virt. eigenvalues --    0.02659   0.07642   0.12450   0.12887   0.14975
 Alpha virt. eigenvalues --    0.17196   0.18094   0.26892   0.29570   0.33030
 Alpha virt. eigenvalues --    0.33669   0.39268   0.39544   0.41544   0.44834

 Mulliken charges:
               1
     1  C    0.090453
     2  O   -0.505849
     3  H    0.043811
     4  H    0.051739
     5  H    0.070132
     6  H    0.249713
 Sum of Mulliken charges =   0.00000

 Dipole moment (field-independent basis, Debye):
    X=             -0.9916    Y=              1.6787    Z=              0.2439  Tot=              1.9649
 Quadrupole moment (field-independent basis, Debye-Ang):
   XX=            -12.8069   YY=            -11.7287   ZZ=            -13.9488
   XY=              2.4232   XZ=              0.1640   YZ=              0.1506

 Normal termination of Gaussian 09 at Wed Aug 26 10:03:38 2020.
