 Gaussian 09, Revision D.01,
 Gaussian 09:  ES64L-G09RevD.01 24-Apr-2013

 --------------------
 #p B2PLYPD3/Def2QZVP
 --------------------

 --------
 methanol
 --------
 Symbolic Z-matrix:
 Charge =  0 Multiplicity = 1

                         Standard orientation:
 ---------------------------------------------------------------------
 Center     Atomic      Atomic             Coordinates (Angstroms)
 Number     Number       Type             X           Y           Z
 ---------------------------------------------------------------------
      1          6           0       -0.644740    0.007756    0.002849
      2          8           0        0.740558   -0.057250   -0.037130
      3          1           0       -0.871067    1.239519   -0.061460
      4          1           0       -1.153554   -0.503918    1.011743
      5          1           0       -1.133737   -0.547787   -0.931766
      6          1           0        1.102336    0.223652    0.261431
 ---------------------------------------------------------------------

 SCF Done:  E(RB2PLYPD3) =  -115.001330848     A.U. after   11 cycles
 E2(B2PLYPD3) =    -0.1435395957D+00 E(B2PLYPD3) =    -0.11514487044402D+03

 The electronic state is 1-A.
 Alpha  occ. eigenvalues --  -19.68795 -10.71164  -1.31800  -0.85498  -0.62168
 Alpha  occ. eigenvalues --   -0.51878  -0.50977  -0.39086  -0.35851
 Alpha virt. eigenvalues --    0.04844   0.09422   0.11262   0.11691   0.13848
 Alpha virt. eigenvalues --    0.16877   0.17566   0.28066   0.31267   0.32857
 Alpha virt. eigenvalues --    0.35159   0.35387   0.36846   0.41448   0.43076

 Mulliken charges:
               1
     1  C    0.047200
     2  O   -0.070474
     3  H    0.035090
     4  H    0.048031
     5  H    0.088470
     6  H   -0.148317
 Sum of Mulliken charges =   0.00000

 Dipole moment (field-independent basis, Debye):
    X=             -0.7373    Y=              0.6141    Z=              0.6268  Tot=              1.1461
 Quadrupole moment (field-independent basis, Debye-Ang):
   XX=            -12.9113   YY=            -13.2466   ZZ=            -13.1779
   XY=              1.4715   XZ=              1.2799   YZ=              0.2985

 Normal termination of Gaussian 09 at Wed Aug 26 23:07:51 2020.
