 Gaussian 09, Revision D.01,
 Gaussian 09:  ES64L-G09RevD.01 24-Apr-2013

 --------------------
 #p B2PLYPD3/Def2QZVP
 --------------------

 --------
 methanol
 --------
 Symbolic Z-matrix:
 Charge =  0 Multiplicity = 1

                         Standard orientation:
 ---------------------------------------------------------------------
 Center     Atomic      Atomic             Coordinates (Angstroms)
 Number     Number       Type             X           Y           Z
 ---------------------------------------------------------------------
      1          6           0        0.663137    0.021416    0.004880
      2          8           0       -0.737132   -0.143712   -0.009356
      3          1           0        0.985908    0.458823    0.878768
      4          1           0        0.996898    0.595589   -0.838972
      5          1           0        1.069201   -0.915326   -0.044512
      6          1           0       -1.133774    0.882117    0.050284
 ---------------------------------------------------------------------

 SCF Done:  E(RB2PLYPD3) =  -115.530445548     A.U. after   11 cycles
 E2(B2PLYPD3) =    -0.1493077185D+00 E(B2PLYPD3) =    -0.11567975326697D+03

 The electronic state is 1-A.
 Alpha  occ. eigenvalues --  -19.73440 -10.63612  -1.14218  -0.78821  -0.57195
 Alpha  occ. eigenvalues --   -0.52626  -0.49914  -0.40990  -0.35075
 Alpha virt. eigenvalues --    0.03738   0.08033   0.12529   0.12729   0.14861
 Alpha virt. eigenvalues --    0.17439   0.18153   0.28864   0.30198   0.33311
 Alpha virt. eigenvalues --    0.34439   0.39282   0.40667   0.42138   0.44085

 Mulliken charges:
               1
     1  C    0.082817
     2  O   -0.484757
     3  H    0.044957
     4  H    0.041590
     5  H    0.066796
     6  H    0.248596
 Sum of Mulliken charges =   0.00000

 Dipole moment (field-independent basis, Debye):
    X=              0.9335    Y=              1.6038    Z=              0.1328  Tot=              1.8605
 Quadrupole moment (field-independent basis, Debye-Ang):
   XX=            -13.1630   YY=            -11.9044   ZZ=            -13.7652
   XY=             -2.3756   XZ=             -0.0881   YZ=              0.0867

 Normal termination of Gaussian 09 at Thu Aug 27 00:15:10 2020.
