 Gaussian 09, Revision D.01,
 Gaussian 09:  ES64L-G09RevD.01 24-Apr-2013

 --------------------
 #p B2PLYPD3/Def2QZVP
 --------------------

 --------
 methanol
 --------
 Symbolic Z-matrix:
 Charge =  0 Multiplicity = 1

                         Standard orientation:
 ---------------------------------------------------------------------
 Center     Atomic      Atomic             Coordinates (Angstroms)
 Number     Number       Type             X           Y           Z
 ---------------------------------------------------------------------
      1          6           0        0.671610    0.008097    0.013006
      2          8           0       -0.773374   -0.131481   -0.018681
      3          1           0        1.079897    0.432005    0.861215
      4          1           0        1.247927    0.580630   -0.809683
      5          1           0        0.974774   -0.965990   -0.030573
      6          1           0       -1.145267    0.956617    0.050452
 ---------------------------------------------------------------------

 SCF Done:  E(RB2PLYPD3) =  -115.510946335     A.U. after   11 cycles
 E2(B2PLYPD3) =    -0.1520915718D+00 E(B2PLYPD3) =    -0.11566303790662D+03

 The electronic state is 1-A.
 Alpha  occ. eigenvalues --  -19.74825 -10.64932  -1.12737  -0.78664  -0.56772
 Alpha  occ. eigenvalues --   -0.49890  -0.48627  -0.41808  -0.35361
 Alpha virt. eigenvalues --    0.03103   0.07261   0.12245   0.12715   0.15182
 Alpha virt. eigenvalues --    0.16942   0.18612   0.27179   0.29515   0.32555
 Alpha virt. eigenvalues --    0.33942   0.37522   0.39148   0.40146   0.44179

 Mulliken charges:
               1
     1  C    0.064457
     2  O   -0.478463
     3  H    0.052814
     4  H    0.037507
     5  H    0.071743
     6  H    0.251940
 Sum of Mulliken charges =   0.00000

 Dipole moment (field-independent basis, Debye):
    X=              1.0097    Y=              1.5907    Z=              0.2333  Tot=              1.8984
 Quadrupole moment (field-independent basis, Debye-Ang):
   XX=            -13.0847   YY=            -11.7840   ZZ=            -14.2002
   XY=             -2.1928   XZ=             -0.0773   YZ=              0.1653

 Normal termination of Gaussian 09 at Wed Aug 26 23:36:43 2020.
