 Gaussian 09, Revision D.01,
 Gaussian 09:  ES64L-G09RevD.01 24-Apr-2013

 --------------------
 #p B2PLYPD3/Def2QZVP
 --------------------

 --------
 methanol
 --------
 Symbolic Z-matrix:
 Charge =  0 Multiplicity = 1

                         Standard orientation:
 ---------------------------------------------------------------------
 Center     Atomic      Atomic             Coordinates (Angstroms)
 Number     Number       Type             X           Y           Z
 ---------------------------------------------------------------------
      1          6           0        0.670541   -0.004993    0.002966
      2          8           0       -0.746826    0.113529   -0.005945
      3          1           0        1.052344   -0.582702   -0.886633
      4          1           0        1.023331   -0.511402    0.916684
      5          1           0        1.008441    0.971143   -0.024661
      6          1           0       -1.132751   -0.755308    0.024375
 ---------------------------------------------------------------------

 SCF Done:  E(RB2PLYPD3) =  -115.550206127     A.U. after   10 cycles
 E2(B2PLYPD3) =    -0.1471159135D+00 E(B2PLYPD3) =    -0.11569732204066D+03

 The electronic state is 1-A.
 Alpha  occ. eigenvalues --  -19.72347 -10.65539  -1.16192  -0.78967  -0.58761
 Alpha  occ. eigenvalues --   -0.51190  -0.50410  -0.41513  -0.35151
 Alpha virt. eigenvalues --    0.04981   0.08334   0.12269   0.12523   0.14916
 Alpha virt. eigenvalues --    0.17012   0.18021   0.29139   0.33202   0.33507
 Alpha virt. eigenvalues --    0.35503   0.38654   0.40180   0.40492   0.43873

 Mulliken charges:
               1
     1  C    0.069292
     2  O   -0.457161
     3  H    0.042825
     4  H    0.046186
     5  H    0.078935
     6  H    0.219923
 Sum of Mulliken charges =   0.00000

 Dipole moment (field-independent basis, Debye):
    X=              0.8832    Y=             -1.4431    Z=              0.0764  Tot=              1.6937
 Quadrupole moment (field-independent basis, Debye-Ang):
   XX=            -13.1264   YY=            -12.1183   ZZ=            -13.7939
   XY=              2.2347   XZ=             -0.0675   YZ=             -0.0543

 Normal termination of Gaussian 09 at Thu Aug 27 00:09:37 2020.
