 Gaussian 09, Revision D.01,
 Gaussian 09:  ES64L-G09RevD.01 24-Apr-2013

 --------------------
 #p B2PLYPD3/Def2QZVP
 --------------------

 --------
 methanol
 --------
 Symbolic Z-matrix:
 Charge =  0 Multiplicity = 1

                         Standard orientation:
 ---------------------------------------------------------------------
 Center     Atomic      Atomic             Coordinates (Angstroms)
 Number     Number       Type             X           Y           Z
 ---------------------------------------------------------------------
      1          6           0       -0.687558   -0.001138   -0.005304
      2          8           0        0.739220   -0.049499   -0.039031
      3          1           0       -1.005531    1.073820   -0.489740
      4          1           0       -1.035820   -0.087770    1.145684
      5          1           0       -0.979962   -0.901972   -0.581924
      6          1           0        1.232902    0.318743    0.270053
 ---------------------------------------------------------------------

 SCF Done:  E(RB2PLYPD3) =  -115.386458790     A.U. after   11 cycles
 E2(B2PLYPD3) =    -0.1443311408D+00 E(B2PLYPD3) =    -0.11553078993036D+03

 The electronic state is 1-A.
 Alpha  occ. eigenvalues --  -19.68478 -10.69743  -1.22722  -0.82810  -0.60263
 Alpha  occ. eigenvalues --   -0.51580  -0.50225  -0.38783  -0.35225
 Alpha virt. eigenvalues --    0.05192   0.09250   0.11353   0.12052   0.13910
 Alpha virt. eigenvalues --    0.16408   0.17512   0.29065   0.31094   0.32270
 Alpha virt. eigenvalues --    0.35884   0.37268   0.39193   0.40597   0.42430

 Mulliken charges:
               1
     1  C    0.058840
     2  O   -0.250766
     3  H    0.052661
     4  H    0.046221
     5  H    0.102067
     6  H   -0.009023
 Sum of Mulliken charges =   0.00000

 Dipole moment (field-independent basis, Debye):
    X=             -0.7199    Y=              0.7237    Z=              0.6428  Tot=              1.2063
 Quadrupole moment (field-independent basis, Debye-Ang):
   XX=            -12.6758   YY=            -12.9501   ZZ=            -13.3098
   XY=              1.5023   XZ=              1.1490   YZ=              0.3617

 Normal termination of Gaussian 09 at Wed Aug 26 22:14:21 2020.
