 Gaussian 09, Revision D.01,
 Gaussian 09:  ES64L-G09RevD.01 24-Apr-2013

 --------------------
 #p B2PLYPD3/Def2QZVP
 --------------------

 --------
 methanol
 --------
 Symbolic Z-matrix:
 Charge =  0 Multiplicity = 1

                         Standard orientation:
 ---------------------------------------------------------------------
 Center     Atomic      Atomic             Coordinates (Angstroms)
 Number     Number       Type             X           Y           Z
 ---------------------------------------------------------------------
      1          6           0        0.646556   -0.004564   -0.019020
      2          8           0       -0.754948    0.053911    0.017537
      3          1           0        1.010978   -0.626674   -0.945353
      4          1           0        1.280947   -0.475360    0.988920
      5          1           0        0.956604    1.147025   -0.101337
      6          1           0       -1.088282   -0.448895    0.031595
 ---------------------------------------------------------------------

 SCF Done:  E(RB2PLYPD3) =  -115.208418745     A.U. after   11 cycles
 E2(B2PLYPD3) =    -0.1439720809D+00 E(B2PLYPD3) =    -0.11535239082546D+03

 The electronic state is 1-A.
 Alpha  occ. eigenvalues --  -19.69529 -10.70366  -1.29315  -0.83375  -0.62323
 Alpha  occ. eigenvalues --   -0.51152  -0.49885  -0.40579  -0.35954
 Alpha virt. eigenvalues --    0.05073   0.08842   0.11474   0.11640   0.14783
 Alpha virt. eigenvalues --    0.16491   0.17993   0.28342   0.31222   0.33386
 Alpha virt. eigenvalues --    0.34300   0.36762   0.38110   0.40919   0.42216

 Mulliken charges:
               1
     1  C    0.033089
     2  O   -0.135423
     3  H    0.052795
     4  H    0.036383
     5  H    0.083545
     6  H   -0.070389
 Sum of Mulliken charges =   0.00000

 Dipole moment (field-independent basis, Debye):
    X=              0.7594    Y=             -1.0492    Z=             -0.1091  Tot=              1.2998
 Quadrupole moment (field-independent basis, Debye-Ang):
   XX=            -13.0498   YY=            -12.6227   ZZ=            -13.7554
   XY=              1.6565   XZ=              0.0050   YZ=              0.0663

 Normal termination of Gaussian 09 at Wed Aug 26 22:21:07 2020.
