 Gaussian 09, Revision D.01,
 Gaussian 09:  ES64L-G09RevD.01 24-Apr-2013

 --------------------
 #p B2PLYPD3/Def2QZVP
 --------------------

 --------
 methanol
 --------
 Symbolic Z-matrix:
 Charge =  0 Multiplicity = 1

                         Standard orientation:
 ---------------------------------------------------------------------
 Center     Atomic      Atomic             Coordinates (Angstroms)
 Number     Number       Type             X           Y           Z
 ---------------------------------------------------------------------
      1          6           0        0.655933    0.023749    0.000527
      2          8           0       -0.737698   -0.141311   -0.003439
      3          1           0        1.024580    0.489304    0.891778
      4          1           0        0.995068    0.592177   -0.854012
      5          1           0        1.135428   -0.915968   -0.043975
      6          1           0       -1.189087    0.822476    0.030558
 ---------------------------------------------------------------------

 SCF Done:  E(RB2PLYPD3) =  -115.541277903     A.U. after   11 cycles
 E2(B2PLYPD3) =    -0.1486678690D+00 E(B2PLYPD3) =    -0.11568994577165D+03

 The electronic state is 1-A.
 Alpha  occ. eigenvalues --  -19.73354 -10.64591  -1.14816  -0.78451  -0.57465
 Alpha  occ. eigenvalues --   -0.52038  -0.50387  -0.40411  -0.35065
 Alpha virt. eigenvalues --    0.04123   0.07879   0.12527   0.12794   0.14816
 Alpha virt. eigenvalues --    0.17632   0.18245   0.29077   0.31051   0.33291
 Alpha virt. eigenvalues --    0.34450   0.39469   0.40341   0.41537   0.43627

 Mulliken charges:
               1
     1  C    0.074553
     2  O   -0.479241
     3  H    0.044492
     4  H    0.042631
     5  H    0.067091
     6  H    0.250474
 Sum of Mulliken charges =   0.00000

 Dipole moment (field-independent basis, Debye):
    X=              0.7861    Y=              1.5714    Z=              0.0630  Tot=              1.7582
 Quadrupole moment (field-independent basis, Debye-Ang):
   XX=            -12.7923   YY=            -12.2087   ZZ=            -13.8564
   XY=             -2.4900   XZ=             -0.0510   YZ=              0.0379

 Normal termination of Gaussian 09 at Thu Aug 27 00:13:57 2020.
