 Gaussian 09, Revision D.01,
 Gaussian 09:  ES64L-G09RevD.01 24-Apr-2013

 --------------------
 #p B2PLYPD3/Def2QZVP
 --------------------

 --------
 methanol
 --------
 Symbolic Z-matrix:
 Charge =  0 Multiplicity = 1

                         Standard orientation:
 ---------------------------------------------------------------------
 Center     Atomic      Atomic             Coordinates (Angstroms)
 Number     Number       Type             X           Y           Z
 ---------------------------------------------------------------------
      1          6           0       -0.655434   -0.030415   -0.005673
      2          8           0        0.743421    0.140206    0.007618
      3          1           0       -1.044070   -0.560882    0.851279
      4          1           0       -1.069437   -0.525782   -0.820044
      5          1           0       -1.117200    0.977529   -0.006381
      6          1           0        1.215942   -0.830023   -0.051759
 ---------------------------------------------------------------------

 SCF Done:  E(RB2PLYPD3) =  -115.536257534     A.U. after   11 cycles
 E2(B2PLYPD3) =    -0.1492922990D+00 E(B2PLYPD3) =    -0.11568554983345D+03

 The electronic state is 1-A.
 Alpha  occ. eigenvalues --  -19.73752 -10.64855  -1.14471  -0.78382  -0.57791
 Alpha  occ. eigenvalues --   -0.51562  -0.49416  -0.40496  -0.35211
 Alpha virt. eigenvalues --    0.03971   0.07663   0.12402   0.12801   0.15150
 Alpha virt. eigenvalues --    0.17389   0.18333   0.29000   0.30684   0.33535
 Alpha virt. eigenvalues --    0.34593   0.38137   0.39567   0.41506   0.44442

 Mulliken charges:
               1
     1  C    0.073338
     2  O   -0.477987
     3  H    0.044656
     4  H    0.047091
     5  H    0.061820
     6  H    0.251082
 Sum of Mulliken charges =   0.00000

 Dipole moment (field-independent basis, Debye):
    X=             -0.7568    Y=             -1.6366    Z=             -0.1419  Tot=              1.8087
 Quadrupole moment (field-independent basis, Debye-Ang):
   XX=            -12.6568   YY=            -12.1625   ZZ=            -14.0264
   XY=             -2.3583   XZ=             -0.0549   YZ=              0.0872

 Normal termination of Gaussian 09 at Wed Aug 26 16:12:42 2020.
