 Gaussian 09, Revision D.01,
 Gaussian 09:  ES64L-G09RevD.01 24-Apr-2013

 --------------------
 #p B2PLYPD3/Def2QZVP
 --------------------

 --------
 methanol
 --------
 Symbolic Z-matrix:
 Charge =  0 Multiplicity = 1

                         Standard orientation:
 ---------------------------------------------------------------------
 Center     Atomic      Atomic             Coordinates (Angstroms)
 Number     Number       Type             X           Y           Z
 ---------------------------------------------------------------------
      1          6           0       -0.676534   -0.026701   -0.007840
      2          8           0        0.754499    0.114636    0.003104
      3          1           0       -1.030302   -0.566524    0.892283
      4          1           0       -1.055449   -0.498014   -0.888823
      5          1           0       -1.046974    1.028312    0.041316
      6          1           0        1.155936   -0.720653   -0.022569
 ---------------------------------------------------------------------

 SCF Done:  E(RB2PLYPD3) =  -115.550581832     A.U. after   10 cycles
 E2(B2PLYPD3) =    -0.1470191569D+00 E(B2PLYPD3) =    -0.11569760098902D+03

 The electronic state is 1-A.
 Alpha  occ. eigenvalues --  -19.72159 -10.66068  -1.16191  -0.78890  -0.58971
 Alpha  occ. eigenvalues --   -0.51797  -0.49040  -0.41061  -0.35646
 Alpha virt. eigenvalues --    0.05142   0.08293   0.12180   0.12356   0.14858
 Alpha virt. eigenvalues --    0.16984   0.18166   0.29045   0.32776   0.33584
 Alpha virt. eigenvalues --    0.36470   0.37983   0.39628   0.41129   0.43174

 Mulliken charges:
               1
     1  C    0.066750
     2  O   -0.453494
     3  H    0.050884
     4  H    0.057222
     5  H    0.069751
     6  H    0.208888
 Sum of Mulliken charges =   0.00000

 Dipole moment (field-independent basis, Debye):
    X=             -0.9097    Y=             -1.4920    Z=             -0.0753  Tot=              1.7491
 Quadrupole moment (field-independent basis, Debye-Ang):
   XX=            -12.9763   YY=            -12.2780   ZZ=            -13.7381
   XY=             -2.1503   XZ=             -0.0017   YZ=              0.0706

 Normal termination of Gaussian 09 at Thu Aug 27 00:10:20 2020.
