 Gaussian 09, Revision D.01,
 Gaussian 09:  ES64L-G09RevD.01 24-Apr-2013

 --------------------
 #p B2PLYPD3/Def2QZVP
 --------------------

 --------
 methanol
 --------
 Symbolic Z-matrix:
 Charge =  0 Multiplicity = 1

                         Standard orientation:
 ---------------------------------------------------------------------
 Center     Atomic      Atomic             Coordinates (Angstroms)
 Number     Number       Type             X           Y           Z
 ---------------------------------------------------------------------
      1          6           0        0.657124   -0.010899    0.000417
      2          8           0       -0.748708    0.103551   -0.001374
      3          1           0        1.073732   -0.588114   -0.876898
      4          1           0        1.041537   -0.527774    0.920613
      5          1           0        1.048771    1.033558   -0.030713
      6          1           0       -1.117125   -0.680688   -0.004509
 ---------------------------------------------------------------------

 SCF Done:  E(RB2PLYPD3) =  -115.542079861     A.U. after   10 cycles
 E2(B2PLYPD3) =    -0.1459346416D+00 E(B2PLYPD3) =    -0.11568801450305D+03

 The electronic state is 1-A.
 Alpha  occ. eigenvalues --  -19.71892 -10.66777  -1.18773  -0.79067  -0.60318
 Alpha  occ. eigenvalues --   -0.51118  -0.50082  -0.41306  -0.35442
 Alpha virt. eigenvalues --    0.05262   0.08539   0.12149   0.12295   0.15025
 Alpha virt. eigenvalues --    0.17088   0.17965   0.29058   0.33116   0.33797
 Alpha virt. eigenvalues --    0.37277   0.38577   0.39623   0.39865   0.42632

 Mulliken charges:
               1
     1  C    0.062089
     2  O   -0.404418
     3  H    0.043838
     4  H    0.046151
     5  H    0.073723
     6  H    0.178616
 Sum of Mulliken charges =   0.00000

 Dipole moment (field-independent basis, Debye):
    X=              0.8241    Y=             -1.4040    Z=             -0.0021  Tot=              1.6280
 Quadrupole moment (field-independent basis, Debye-Ang):
   XX=            -13.0778   YY=            -12.2926   ZZ=            -13.8567
   XY=              2.0898   XZ=             -0.0196   YZ=             -0.0035

 Normal termination of Gaussian 09 at Wed Aug 26 09:53:31 2020.
