 Gaussian 09, Revision D.01,
 Gaussian 09:  ES64L-G09RevD.01 24-Apr-2013

 --------------------
 #p B2PLYPD3/Def2QZVP
 --------------------

 --------
 methanol
 --------
 Symbolic Z-matrix:
 Charge =  0 Multiplicity = 1

                         Standard orientation:
 ---------------------------------------------------------------------
 Center     Atomic      Atomic             Coordinates (Angstroms)
 Number     Number       Type             X           Y           Z
 ---------------------------------------------------------------------
      1          6           0       -0.664120    0.002717   -0.022930
      2          8           0        0.744645   -0.147964    0.012967
      3          1           0       -1.069577    0.470762   -0.827866
      4          1           0       -1.027604    0.624366    0.862927
      5          1           0       -1.067013   -0.863857    0.073440
      6          1           0        1.191753    0.936134   -0.074657
 ---------------------------------------------------------------------

 SCF Done:  E(RB2PLYPD3) =  -115.501533887     A.U. after   11 cycles
 E2(B2PLYPD3) =    -0.1510292323D+00 E(B2PLYPD3) =    -0.11565256311900D+03

 The electronic state is 1-A.
 Alpha  occ. eigenvalues --  -19.74264 -10.63591  -1.13191  -0.79322  -0.56822
 Alpha  occ. eigenvalues --   -0.50755  -0.50600  -0.41105  -0.34670
 Alpha virt. eigenvalues --    0.02649   0.07651   0.12592   0.12863   0.14950
 Alpha virt. eigenvalues --    0.17539   0.18327   0.26996   0.29670   0.32980
 Alpha virt. eigenvalues --    0.34472   0.37845   0.40890   0.41020   0.44238

 Mulliken charges:
               1
     1  C    0.083217
     2  O   -0.487325
     3  H    0.045182
     4  H    0.028028
     5  H    0.073523
     6  H    0.257375
 Sum of Mulliken charges =   0.00000

 Dipole moment (field-independent basis, Debye):
    X=             -0.8762    Y=              1.5851    Z=             -0.2435  Tot=              1.8275
 Quadrupole moment (field-independent basis, Debye-Ang):
   XX=            -12.8788   YY=            -11.8394   ZZ=            -14.0191
   XY=              2.5435   XZ=             -0.0114   YZ=             -0.2429

 Normal termination of Gaussian 09 at Wed Aug 26 12:19:25 2020.
