 Gaussian 09, Revision D.01,
 Gaussian 09:  ES64L-G09RevD.01 24-Apr-2013

 --------------------
 #p B2PLYPD3/Def2QZVP
 --------------------

 --------
 methanol
 --------
 Symbolic Z-matrix:
 Charge =  0 Multiplicity = 1

                         Standard orientation:
 ---------------------------------------------------------------------
 Center     Atomic      Atomic             Coordinates (Angstroms)
 Number     Number       Type             X           Y           Z
 ---------------------------------------------------------------------
      1          6           0        0.671168   -0.007919   -0.005332
      2          8           0       -0.756911    0.093274   -0.006812
      3          1           0        1.032227   -0.698231   -0.842308
      4          1           0        1.053318   -0.406626    1.003117
      5          1           0        1.041806    1.023947   -0.134809
      6          1           0       -1.099071   -0.617773    0.060485
 ---------------------------------------------------------------------

 SCF Done:  E(RB2PLYPD3) =  -115.511094894     A.U. after   10 cycles
 E2(B2PLYPD3) =    -0.1450649955D+00 E(B2PLYPD3) =    -0.11565615988904D+03

 The electronic state is 1-A.
 Alpha  occ. eigenvalues --  -19.70836 -10.67436  -1.20348  -0.79892  -0.60414
 Alpha  occ. eigenvalues --   -0.51094  -0.50217  -0.41502  -0.35693
 Alpha virt. eigenvalues --    0.05383   0.08826   0.11934   0.12211   0.14671
 Alpha virt. eigenvalues --    0.16953   0.17866   0.28924   0.32553   0.33036
 Alpha virt. eigenvalues --    0.37210   0.39085   0.39459   0.40013   0.42646

 Mulliken charges:
               1
     1  C    0.061352
     2  O   -0.350294
     3  H    0.048432
     4  H    0.047823
     5  H    0.081150
     6  H    0.111536
 Sum of Mulliken charges =   0.00000

 Dipole moment (field-independent basis, Debye):
    X=              0.9474    Y=             -1.2993    Z=              0.1108  Tot=              1.6119
 Quadrupole moment (field-independent basis, Debye-Ang):
   XX=            -13.1681   YY=            -12.3522   ZZ=            -13.6822
   XY=              2.0420   XZ=             -0.1916   YZ=             -0.0686

 Normal termination of Gaussian 09 at Thu Aug 27 00:15:27 2020.
