 Gaussian 09, Revision D.01,
 Gaussian 09:  ES64L-G09RevD.01 24-Apr-2013

 --------------------
 #p B2PLYPD3/Def2QZVP
 --------------------

 --------
 methanol
 --------
 Symbolic Z-matrix:
 Charge =  0 Multiplicity = 1

                         Standard orientation:
 ---------------------------------------------------------------------
 Center     Atomic      Atomic             Coordinates (Angstroms)
 Number     Number       Type             X           Y           Z
 ---------------------------------------------------------------------
      1          6           0        0.670112   -0.024470   -0.007029
      2          8           0       -0.753856    0.128474    0.003452
      3          1           0        1.024269   -0.541554   -0.862373
      4          1           0        1.066314   -0.542998    0.872493
      5          1           0        1.101422    0.984339    0.003188
      6          1           0       -1.181831   -0.780761    0.001253
 ---------------------------------------------------------------------

 SCF Done:  E(RB2PLYPD3) =  -115.549164921     A.U. after   10 cycles
 E2(B2PLYPD3) =    -0.1481834912D+00 E(B2PLYPD3) =    -0.11569734841247D+03

 The electronic state is 1-A.
 Alpha  occ. eigenvalues --  -19.72990 -10.65445  -1.14834  -0.78622  -0.58078
 Alpha  occ. eigenvalues --   -0.51567  -0.49376  -0.40964  -0.35408
 Alpha virt. eigenvalues --    0.04710   0.07931   0.12386   0.12537   0.14921
 Alpha virt. eigenvalues --    0.17296   0.18197   0.29129   0.33039   0.33556
 Alpha virt. eigenvalues --    0.33685   0.38588   0.39650   0.41100   0.44012

 Mulliken charges:
               1
     1  C    0.072821
     2  O   -0.476319
     3  H    0.051625
     4  H    0.046838
     5  H    0.068577
     6  H    0.236458
 Sum of Mulliken charges =   0.00000

 Dipole moment (field-independent basis, Debye):
    X=              0.8791    Y=             -1.5591    Z=             -0.0331  Tot=              1.7901
 Quadrupole moment (field-independent basis, Debye-Ang):
   XX=            -12.8183   YY=            -12.2063   ZZ=            -13.8857
   XY=              2.3097   XZ=              0.0047   YZ=              0.0407

 Normal termination of Gaussian 09 at Wed Aug 26 10:39:15 2020.
