 Gaussian 09, Revision D.01,
 Gaussian 09:  ES64L-G09RevD.01 24-Apr-2013

 --------------------
 #p B2PLYPD3/Def2QZVP
 --------------------

 --------
 methanol
 --------
 Symbolic Z-matrix:
 Charge =  0 Multiplicity = 1

                         Standard orientation:
 ---------------------------------------------------------------------
 Center     Atomic      Atomic             Coordinates (Angstroms)
 Number     Number       Type             X           Y           Z
 ---------------------------------------------------------------------
      1          6           0       -0.674609   -0.011572    0.003166
      2          8           0        0.747317    0.099702   -0.006673
      3          1           0       -1.012659   -0.515538    0.948218
      4          1           0       -1.025119   -0.603718   -0.913286
      5          1           0       -1.049899    1.013393   -0.035044
      6          1           0        1.156796   -0.622321    0.034498
 ---------------------------------------------------------------------

 SCF Done:  E(RB2PLYPD3) =  -115.530395527     A.U. after   10 cycles
 E2(B2PLYPD3) =    -0.1453397511D+00 E(B2PLYPD3) =    -0.11567573527769D+03

 The electronic state is 1-A.
 Alpha  occ. eigenvalues --  -19.70929 -10.66977  -1.18803  -0.79836  -0.59913
 Alpha  occ. eigenvalues --   -0.51306  -0.50493  -0.40785  -0.35445
 Alpha virt. eigenvalues --    0.05390   0.08728   0.12053   0.12331   0.14614
 Alpha virt. eigenvalues --    0.16935   0.17845   0.29062   0.32834   0.33056
 Alpha virt. eigenvalues --    0.37448   0.39546   0.39623   0.39853   0.42906

 Mulliken charges:
               1
     1  C    0.066248
     2  O   -0.394762
     3  H    0.050080
     4  H    0.047250
     5  H    0.081495
     6  H    0.149690
 Sum of Mulliken charges =   0.00000

 Dipole moment (field-independent basis, Debye):
    X=             -0.8499    Y=             -1.3184    Z=              0.1002  Tot=              1.5718
 Quadrupole moment (field-independent basis, Debye-Ang):
   XX=            -12.9484   YY=            -12.4240   ZZ=            -13.6577
   XY=             -2.1696   XZ=              0.0973   YZ=             -0.0636

 Normal termination of Gaussian 09 at Thu Aug 27 00:15:03 2020.
