 Gaussian 09, Revision D.01,
 Gaussian 09:  ES64L-G09RevD.01 24-Apr-2013

 --------------------
 #p B2PLYPD3/Def2QZVP
 --------------------

 --------
 methanol
 --------
 Symbolic Z-matrix:
 Charge =  0 Multiplicity = 1

                         Standard orientation:
 ---------------------------------------------------------------------
 Center     Atomic      Atomic             Coordinates (Angstroms)
 Number     Number       Type             X           Y           Z
 ---------------------------------------------------------------------
      1          6           0       -0.673513   -0.005921    0.012999
      2          8           0        0.754968   -0.080666   -0.034169
      3          1           0       -1.020160    0.926926   -0.676318
      4          1           0       -0.973190    0.112509    1.083781
      5          1           0       -1.032983   -0.915676   -0.408437
      6          1           0        1.027666    0.557091    0.196335
 ---------------------------------------------------------------------

 SCF Done:  E(RB2PLYPD3) =  -115.458458677     A.U. after   11 cycles
 E2(B2PLYPD3) =    -0.1442057290D+00 E(B2PLYPD3) =    -0.11560266440581D+03

 The electronic state is 1-A.
 Alpha  occ. eigenvalues --  -19.69956 -10.67455  -1.22877  -0.80731  -0.60607
 Alpha  occ. eigenvalues --   -0.51853  -0.50807  -0.41877  -0.35769
 Alpha virt. eigenvalues --    0.05372   0.09181   0.11553   0.12362   0.14306
 Alpha virt. eigenvalues --    0.17036   0.17639   0.28645   0.32101   0.32601
 Alpha virt. eigenvalues --    0.36012   0.39383   0.40322   0.41005   0.43532

 Mulliken charges:
               1
     1  C    0.060032
     2  O   -0.288386
     3  H    0.036143
     4  H    0.056060
     5  H    0.087313
     6  H    0.048838
 Sum of Mulliken charges =   0.00000

 Dipole moment (field-independent basis, Debye):
    X=             -1.0569    Y=              1.1039    Z=              0.4843  Tot=              1.6031
 Quadrupole moment (field-independent basis, Debye-Ang):
   XX=            -13.5106   YY=            -12.4859   ZZ=            -13.2999
   XY=              1.9263   XZ=              0.6521   YZ=              0.3946

 Normal termination of Gaussian 09 at Wed Aug 26 15:41:04 2020.
