 Gaussian 09, Revision D.01,
 Gaussian 09:  ES64L-G09RevD.01 24-Apr-2013

 --------------------
 #p B2PLYPD3/Def2QZVP
 --------------------

 --------
 methanol
 --------
 Symbolic Z-matrix:
 Charge =  0 Multiplicity = 1

                         Standard orientation:
 ---------------------------------------------------------------------
 Center     Atomic      Atomic             Coordinates (Angstroms)
 Number     Number       Type             X           Y           Z
 ---------------------------------------------------------------------
      1          6           0       -0.669048    0.005422    0.000659
      2          8           0        0.720913   -0.182768   -0.026876
      3          1           0       -1.117159    0.615179   -0.760562
      4          1           0       -0.927169    0.386267    0.851775
      5          1           0       -0.911765   -0.759450    0.021969
      6          1           0        1.203080    1.187610    0.097874
 ---------------------------------------------------------------------

 SCF Done:  E(RB2PLYPD3) =  -115.345740079     A.U. after   11 cycles
 E2(B2PLYPD3) =    -0.1568260556D+00 E(B2PLYPD3) =    -0.11550256613408D+03

 The electronic state is 1-A.
 Alpha  occ. eigenvalues --  -19.75372 -10.60287  -1.12696  -0.81528  -0.57848
 Alpha  occ. eigenvalues --   -0.52657  -0.48957  -0.39536  -0.34921
 Alpha virt. eigenvalues --   -0.02403   0.07584   0.12617   0.13151   0.14779
 Alpha virt. eigenvalues --    0.16923   0.18565   0.21855   0.29434   0.33086
 Alpha virt. eigenvalues --    0.35204   0.37504   0.41209   0.42185   0.44995

 Mulliken charges:
               1
     1  C   -0.041710
     2  O   -0.468978
     3  H    0.049879
     4  H    0.043938
     5  H    0.193838
     6  H    0.223033
 Sum of Mulliken charges =   0.00000

 Dipole moment (field-independent basis, Debye):
    X=             -1.1131    Y=              1.6305    Z=              0.2738  Tot=              1.9931
 Quadrupole moment (field-independent basis, Debye-Ang):
   XX=            -13.2259   YY=            -11.1492   ZZ=            -13.8471
   XY=              2.3712   XZ=              0.1865   YZ=              0.0966

 Normal termination of Gaussian 09 at Wed Aug 26 23:54:57 2020.
