 Gaussian 09, Revision D.01,
 Gaussian 09:  ES64L-G09RevD.01 24-Apr-2013

 --------------------
 #p B2PLYPD3/Def2QZVP
 --------------------

 --------
 methanol
 --------
 Symbolic Z-matrix:
 Charge =  0 Multiplicity = 1

                         Standard orientation:
 ---------------------------------------------------------------------
 Center     Atomic      Atomic             Coordinates (Angstroms)
 Number     Number       Type             X           Y           Z
 ---------------------------------------------------------------------
      1          6           0        0.664725    0.003693   -0.005287
      2          8           0       -0.763323    0.094388   -0.016155
      3          1           0        1.100529   -0.777111   -0.770285
      4          1           0        1.053918   -0.316164    1.031283
      5          1           0        1.051544    0.978753   -0.198920
      6          1           0       -1.087753   -0.662746    0.098880
 ---------------------------------------------------------------------

 SCF Done:  E(RB2PLYPD3) =  -115.527148358     A.U. after   11 cycles
 E2(B2PLYPD3) =    -0.1458293346D+00 E(B2PLYPD3) =    -0.11567297769294D+03

 The electronic state is 1-A.
 Alpha  occ. eigenvalues --  -19.71680 -10.67337  -1.19370  -0.79439  -0.60058
 Alpha  occ. eigenvalues --   -0.50761  -0.50321  -0.41903  -0.35479
 Alpha virt. eigenvalues --    0.05294   0.08539   0.11872   0.12402   0.14806
 Alpha virt. eigenvalues --    0.17121   0.18011   0.28943   0.32513   0.33087
 Alpha virt. eigenvalues --    0.36395   0.38516   0.39370   0.40325   0.43091

 Mulliken charges:
               1
     1  C    0.061826
     2  O   -0.381697
     3  H    0.039754
     4  H    0.044388
     5  H    0.083297
     6  H    0.152432
 Sum of Mulliken charges =   0.00000

 Dipole moment (field-independent basis, Debye):
    X=              0.9499    Y=             -1.2911    Z=              0.2117  Tot=              1.6168
 Quadrupole moment (field-independent basis, Debye-Ang):
   XX=            -13.1778   YY=            -12.3117   ZZ=            -13.8347
   XY=              2.0852   XZ=             -0.3400   YZ=             -0.1741

 Normal termination of Gaussian 09 at Wed Aug 26 13:14:53 2020.
