 Gaussian 09, Revision D.01,
 Gaussian 09:  ES64L-G09RevD.01 24-Apr-2013

 --------------------
 #p B2PLYPD3/Def2QZVP
 --------------------

 --------
 methanol
 --------
 Symbolic Z-matrix:
 Charge =  0 Multiplicity = 1

                         Standard orientation:
 ---------------------------------------------------------------------
 Center     Atomic      Atomic             Coordinates (Angstroms)
 Number     Number       Type             X           Y           Z
 ---------------------------------------------------------------------
      1          6           0       -0.667988   -0.028787    0.003991
      2          8           0        0.746591    0.138316   -0.003687
      3          1           0       -0.986194   -0.499059    0.892512
      4          1           0       -1.017088   -0.556536   -0.864745
      5          1           0       -1.128432    0.933120   -0.028146
      6          1           0        1.166917   -0.811327    0.005931
 ---------------------------------------------------------------------

 SCF Done:  E(RB2PLYPD3) =  -115.545014621     A.U. after   10 cycles
 E2(B2PLYPD3) =    -0.1484456658D+00 E(B2PLYPD3) =    -0.11569346028662D+03

 The electronic state is 1-A.
 Alpha  occ. eigenvalues --  -19.73060 -10.64659  -1.14507  -0.78733  -0.57327
 Alpha  occ. eigenvalues --   -0.52462  -0.49807  -0.40674  -0.35341
 Alpha virt. eigenvalues --    0.04444   0.07978   0.12437   0.12693   0.14672
 Alpha virt. eigenvalues --    0.17548   0.18229   0.29109   0.32010   0.33412
 Alpha virt. eigenvalues --    0.33653   0.39331   0.40202   0.41822   0.43868

 Mulliken charges:
               1
     1  C    0.076724
     2  O   -0.483602
     3  H    0.050404
     4  H    0.047096
     5  H    0.066171
     6  H    0.243206
 Sum of Mulliken charges =   0.00000

 Dipole moment (field-independent basis, Debye):
    X=             -0.9058    Y=             -1.5739    Z=              0.0310  Tot=              1.8162
 Quadrupole moment (field-independent basis, Debye-Ang):
   XX=            -12.9103   YY=            -12.2011   ZZ=            -13.7423
   XY=             -2.4143   XZ=              0.0382   YZ=             -0.0257

 Normal termination of Gaussian 09 at Thu Aug 27 00:12:44 2020.
