 Gaussian 09, Revision D.01,
 Gaussian 09:  ES64L-G09RevD.01 24-Apr-2013

 --------------------
 #p B2PLYPD3/Def2QZVP
 --------------------

 --------
 methanol
 --------
 Symbolic Z-matrix:
 Charge =  0 Multiplicity = 1

                         Standard orientation:
 ---------------------------------------------------------------------
 Center     Atomic      Atomic             Coordinates (Angstroms)
 Number     Number       Type             X           Y           Z
 ---------------------------------------------------------------------
      1          6           0       -0.664604   -0.028985    0.004105
      2          8           0        0.737591    0.138914   -0.008757
      3          1           0       -0.974398   -0.462095    0.876181
      4          1           0       -1.008478   -0.598941   -0.821741
      5          1           0       -1.069858    0.964230   -0.046776
      6          1           0        1.139628   -0.840597    0.037767
 ---------------------------------------------------------------------

 SCF Done:  E(RB2PLYPD3) =  -115.539429305     A.U. after   11 cycles
 E2(B2PLYPD3) =    -0.1486127149D+00 E(B2PLYPD3) =    -0.11568804202017D+03

 The electronic state is 1-A.
 Alpha  occ. eigenvalues --  -19.73124 -10.64025  -1.14663  -0.78731  -0.57757
 Alpha  occ. eigenvalues --   -0.52864  -0.49394  -0.40964  -0.35239
 Alpha virt. eigenvalues --    0.04206   0.08117   0.12458   0.12624   0.14965
 Alpha virt. eigenvalues --    0.17309   0.18084   0.29137   0.31428   0.33415
 Alpha virt. eigenvalues --    0.34400   0.39040   0.39959   0.42386   0.44531

 Mulliken charges:
               1
     1  C    0.080979
     2  O   -0.481101
     3  H    0.048004
     4  H    0.044381
     5  H    0.064934
     6  H    0.242802
 Sum of Mulliken charges =   0.00000

 Dipole moment (field-independent basis, Debye):
    X=             -0.9083    Y=             -1.6194    Z=              0.1111  Tot=              1.8601
 Quadrupole moment (field-independent basis, Debye-Ang):
   XX=            -13.1265   YY=            -11.9677   ZZ=            -13.7657
   XY=             -2.2836   XZ=              0.0904   YZ=             -0.0612

 Normal termination of Gaussian 09 at Thu Aug 27 00:15:08 2020.
