 Gaussian 09, Revision D.01,
 Gaussian 09:  ES64L-G09RevD.01 24-Apr-2013

 --------------------
 #p B2PLYPD3/Def2QZVP
 --------------------

 --------
 methanol
 --------
 Symbolic Z-matrix:
 Charge =  0 Multiplicity = 1

                         Standard orientation:
 ---------------------------------------------------------------------
 Center     Atomic      Atomic             Coordinates (Angstroms)
 Number     Number       Type             X           Y           Z
 ---------------------------------------------------------------------
      1          6           0        0.657737   -0.013745    0.012202
      2          8           0       -0.752390    0.111511   -0.009984
      3          1           0        1.076811   -0.634289   -0.854599
      4          1           0        0.998862   -0.465084    0.927902
      5          1           0        1.086632    1.005740   -0.086142
      6          1           0       -1.089603   -0.715985    0.019500
 ---------------------------------------------------------------------

 SCF Done:  E(RB2PLYPD3) =  -115.547028008     A.U. after   10 cycles
 E2(B2PLYPD3) =    -0.1463714937D+00 E(B2PLYPD3) =    -0.11569339950156D+03

 The electronic state is 1-A.
 Alpha  occ. eigenvalues --  -19.72197 -10.66341  -1.18062  -0.78844  -0.59793
 Alpha  occ. eigenvalues --   -0.51626  -0.49899  -0.41416  -0.35541
 Alpha virt. eigenvalues --    0.05176   0.08468   0.12190   0.12339   0.14887
 Alpha virt. eigenvalues --    0.17360   0.17992   0.29052   0.32948   0.33605
 Alpha virt. eigenvalues --    0.36757   0.38267   0.39502   0.40787   0.43549

 Mulliken charges:
               1
     1  C    0.066166
     2  O   -0.422613
     3  H    0.038610
     4  H    0.052498
     5  H    0.070500
     6  H    0.194838
 Sum of Mulliken charges =   0.00000

 Dipole moment (field-independent basis, Debye):
    X=              0.9065    Y=             -1.4444    Z=              0.1132  Tot=              1.7091
 Quadrupole moment (field-independent basis, Debye-Ang):
   XX=            -13.1944   YY=            -12.2591   ZZ=            -13.7984
   XY=              2.1362   XZ=             -0.0749   YZ=             -0.1066

 Normal termination of Gaussian 09 at Wed Aug 26 10:19:59 2020.
