 Gaussian 09, Revision D.01,
 Gaussian 09:  ES64L-G09RevD.01 24-Apr-2013

 --------------------
 #p B2PLYPD3/Def2QZVP
 --------------------

 --------
 methanol
 --------
 Symbolic Z-matrix:
 Charge =  0 Multiplicity = 1

                         Standard orientation:
 ---------------------------------------------------------------------
 Center     Atomic      Atomic             Coordinates (Angstroms)
 Number     Number       Type             X           Y           Z
 ---------------------------------------------------------------------
      1          6           0        0.648606    0.029221    0.008336
      2          8           0       -0.738448   -0.160161   -0.017754
      3          1           0        1.008415    0.380428    0.856662
      4          1           0        1.016148    0.633323   -0.798418
      5          1           0        1.129517   -0.874089   -0.066787
      6          1           0       -1.138126    0.966295    0.100560
 ---------------------------------------------------------------------

 SCF Done:  E(RB2PLYPD3) =  -115.501446404     A.U. after   11 cycles
 E2(B2PLYPD3) =    -0.1512409946D+00 E(B2PLYPD3) =    -0.11565268739859D+03

 The electronic state is 1-A.
 Alpha  occ. eigenvalues --  -19.74464 -10.62976  -1.13711  -0.79201  -0.56039
 Alpha  occ. eigenvalues --   -0.52873  -0.49965  -0.40289  -0.35256
 Alpha virt. eigenvalues --    0.02266   0.07692   0.12614   0.12905   0.14843
 Alpha virt. eigenvalues --    0.17826   0.18555   0.26144   0.29429   0.33479
 Alpha virt. eigenvalues --    0.34946   0.39214   0.40315   0.42360   0.44073

 Mulliken charges:
               1
     1  C    0.089012
     2  O   -0.481422
     3  H    0.043525
     4  H    0.038451
     5  H    0.055631
     6  H    0.254803
 Sum of Mulliken charges =   0.00000

 Dipole moment (field-independent basis, Debye):
    X=              0.9495    Y=              1.6675    Z=              0.2555  Tot=              1.9358
 Quadrupole moment (field-independent basis, Debye-Ang):
   XX=            -13.0835   YY=            -11.8534   ZZ=            -13.8516
   XY=             -2.4298   XZ=             -0.1353   YZ=              0.1452

 Normal termination of Gaussian 09 at Wed Aug 26 16:24:27 2020.
