 Gaussian 09, Revision D.01,
 Gaussian 09:  ES64L-G09RevD.01 24-Apr-2013

 --------------------
 #p B2PLYPD3/Def2QZVP
 --------------------

 --------
 methanol
 --------
 Symbolic Z-matrix:
 Charge =  0 Multiplicity = 1

                         Standard orientation:
 ---------------------------------------------------------------------
 Center     Atomic      Atomic             Coordinates (Angstroms)
 Number     Number       Type             X           Y           Z
 ---------------------------------------------------------------------
      1          6           0        0.662597    0.031463   -0.007430
      2          8           0       -0.739476   -0.171385   -0.011262
      3          1           0        0.975923    0.416072    0.880207
      4          1           0        1.001273    0.636857   -0.760086
      5          1           0        1.176694   -0.847432   -0.049107
      6          1           0       -1.213667    0.976805    0.063660
 ---------------------------------------------------------------------

 SCF Done:  E(RB2PLYPD3) =  -115.492612153     A.U. after   11 cycles
 E2(B2PLYPD3) =    -0.1520576931D+00 E(B2PLYPD3) =    -0.11564466984632D+03

 The electronic state is 1-A.
 Alpha  occ. eigenvalues --  -19.74444 -10.62812  -1.12539  -0.79307  -0.55202
 Alpha  occ. eigenvalues --   -0.52744  -0.49881  -0.40049  -0.35063
 Alpha virt. eigenvalues --    0.01582   0.07572   0.12651   0.13015   0.14642
 Alpha virt. eigenvalues --    0.17859   0.18489   0.25156   0.29570   0.33378
 Alpha virt. eigenvalues --    0.34145   0.39696   0.40782   0.42564   0.43193

 Mulliken charges:
               1
     1  C    0.096442
     2  O   -0.494971
     3  H    0.043232
     4  H    0.041819
     5  H    0.058558
     6  H    0.254919
 Sum of Mulliken charges =   0.00000

 Dipole moment (field-independent basis, Debye):
    X=              0.9414    Y=              1.7119    Z=              0.1332  Tot=              1.9582
 Quadrupole moment (field-independent basis, Debye-Ang):
   XX=            -12.7819   YY=            -11.8493   ZZ=            -13.9109
   XY=             -2.5963   XZ=             -0.1500   YZ=              0.0217

 Normal termination of Gaussian 09 at Wed Aug 26 13:45:22 2020.
