 Gaussian 09, Revision D.01,
 Gaussian 09:  ES64L-G09RevD.01 24-Apr-2013

 --------------------
 #p B2PLYPD3/Def2QZVP
 --------------------

 --------
 methanol
 --------
 Symbolic Z-matrix:
 Charge =  0 Multiplicity = 1

                         Standard orientation:
 ---------------------------------------------------------------------
 Center     Atomic      Atomic             Coordinates (Angstroms)
 Number     Number       Type             X           Y           Z
 ---------------------------------------------------------------------
      1          6           0        0.680267   -0.011631    0.031512
      2          8           0       -0.774994    0.084947   -0.021459
      3          1           0        1.183916   -0.829017   -0.759234
      4          1           0        1.031817   -0.311042    0.963177
      5          1           0        1.123438    1.076644   -0.267394
      6          1           0       -1.220817   -0.546377    0.046047
 ---------------------------------------------------------------------

 SCF Done:  E(RB2PLYPD3) =  -115.477971117     A.U. after   11 cycles
 E2(B2PLYPD3) =    -0.1458034401D+00 E(B2PLYPD3) =    -0.11562377455667D+03

 The electronic state is 1-A.
 Alpha  occ. eigenvalues --  -19.70797 -10.68982  -1.19809  -0.80343  -0.61283
 Alpha  occ. eigenvalues --   -0.50551  -0.48509  -0.40157  -0.36020
 Alpha virt. eigenvalues --    0.05240   0.08354   0.11294   0.12216   0.14750
 Alpha virt. eigenvalues --    0.17004   0.17932   0.28832   0.31146   0.32373
 Alpha virt. eigenvalues --    0.34909   0.36080   0.39735   0.40941   0.42455

 Mulliken charges:
               1
     1  C    0.060133
     2  O   -0.342545
     3  H    0.034625
     4  H    0.075802
     5  H    0.076635
     6  H    0.095350
 Sum of Mulliken charges =   0.00000

 Dipole moment (field-independent basis, Debye):
    X=              0.8777    Y=             -1.2388    Z=              0.3233  Tot=              1.5522
 Quadrupole moment (field-independent basis, Debye-Ang):
   XX=            -12.4632   YY=            -12.7106   ZZ=            -13.8532
   XY=              2.0206   XZ=             -0.1112   YZ=             -0.2570

 Normal termination of Gaussian 09 at Wed Aug 26 23:52:33 2020.
