 Gaussian 09, Revision D.01,
 Gaussian 09:  ES64L-G09RevD.01 24-Apr-2013

 --------------------
 #p B2PLYPD3/Def2QZVP
 --------------------

 --------
 methanol
 --------
 Symbolic Z-matrix:
 Charge =  0 Multiplicity = 1

                         Standard orientation:
 ---------------------------------------------------------------------
 Center     Atomic      Atomic             Coordinates (Angstroms)
 Number     Number       Type             X           Y           Z
 ---------------------------------------------------------------------
      1          6           0       -0.669501   -0.009908    0.009771
      2          8           0        0.748780    0.097580   -0.007384
      3          1           0       -1.030484   -0.528609    0.937190
      4          1           0       -1.032033   -0.602055   -0.935058
      5          1           0       -1.074606    1.012723   -0.038505
      6          1           0        1.163884   -0.603251    0.036816
 ---------------------------------------------------------------------

 SCF Done:  E(RB2PLYPD3) =  -115.522164348     A.U. after   10 cycles
 E2(B2PLYPD3) =    -0.1452127167D+00 E(B2PLYPD3) =    -0.11566737706507D+03

 The electronic state is 1-A.
 Alpha  occ. eigenvalues --  -19.70930 -10.67397  -1.19424  -0.79967  -0.60276
 Alpha  occ. eigenvalues --   -0.51074  -0.50581  -0.40661  -0.35439
 Alpha virt. eigenvalues --    0.05393   0.08707   0.11999   0.12326   0.14603
 Alpha virt. eigenvalues --    0.17019   0.17883   0.29009   0.32735   0.33141
 Alpha virt. eigenvalues --    0.37078   0.39125   0.39657   0.39907   0.42638

 Mulliken charges:
               1
     1  C    0.063676
     2  O   -0.376622
     3  H    0.051328
     4  H    0.042478
     5  H    0.082148
     6  H    0.136993
 Sum of Mulliken charges =   0.00000

 Dipole moment (field-independent basis, Debye):
    X=             -0.8172    Y=             -1.2834    Z=              0.1357  Tot=              1.5275
 Quadrupole moment (field-independent basis, Debye-Ang):
   XX=            -12.8618   YY=            -12.5152   ZZ=            -13.7004
   XY=             -2.1815   XZ=              0.0613   YZ=             -0.1118

 Normal termination of Gaussian 09 at Wed Aug 26 23:01:08 2020.
