 Gaussian 09, Revision D.01,
 Gaussian 09:  ES64L-G09RevD.01 24-Apr-2013

 --------------------
 #p B2PLYPD3/Def2QZVP
 --------------------

 --------
 methanol
 --------
 Symbolic Z-matrix:
 Charge =  0 Multiplicity = 1

                         Standard orientation:
 ---------------------------------------------------------------------
 Center     Atomic      Atomic             Coordinates (Angstroms)
 Number     Number       Type             X           Y           Z
 ---------------------------------------------------------------------
      1          6           0       -0.668514   -0.034177    0.031019
      2          8           0        0.737015    0.077734   -0.027395
      3          1           0       -0.943732   -0.196564    1.006514
      4          1           0       -1.043043   -0.837213   -0.762179
      5          1           0       -0.989410    1.118626   -0.322695
      6          1           0        1.091155   -0.501661    0.111408
 ---------------------------------------------------------------------

 SCF Done:  E(RB2PLYPD3) =  -115.398231123     A.U. after   11 cycles
 E2(B2PLYPD3) =    -0.1438714105D+00 E(B2PLYPD3) =    -0.11554210253345D+03

 The electronic state is 1-A.
 Alpha  occ. eigenvalues --  -19.69276 -10.68003  -1.24441  -0.81779  -0.62009
 Alpha  occ. eigenvalues --   -0.53091  -0.48852  -0.39811  -0.36424
 Alpha virt. eigenvalues --    0.05207   0.09434   0.11168   0.11967   0.14573
 Alpha virt. eigenvalues --    0.16547   0.17881   0.28796   0.32436   0.32986
 Alpha virt. eigenvalues --    0.34860   0.37343   0.41059   0.41930   0.43531

 Mulliken charges:
               1
     1  C    0.046328
     2  O   -0.236432
     3  H    0.071540
     4  H    0.049427
     5  H    0.063794
     6  H    0.005343
 Sum of Mulliken charges =   0.00000

 Dipole moment (field-independent basis, Debye):
    X=             -0.8138    Y=             -1.2492    Z=              0.4328  Tot=              1.5525
 Quadrupole moment (field-independent basis, Debye-Ang):
   XX=            -13.3068   YY=            -12.5585   ZZ=            -13.3171
   XY=             -1.6731   XZ=              0.3279   YZ=             -0.1671

 Normal termination of Gaussian 09 at Wed Aug 26 22:50:10 2020.
