 Gaussian 09, Revision D.01,
 Gaussian 09:  ES64L-G09RevD.01 24-Apr-2013

 --------------------
 #p B2PLYPD3/Def2QZVP
 --------------------

 --------
 methanol
 --------
 Symbolic Z-matrix:
 Charge =  0 Multiplicity = 1

                         Standard orientation:
 ---------------------------------------------------------------------
 Center     Atomic      Atomic             Coordinates (Angstroms)
 Number     Number       Type             X           Y           Z
 ---------------------------------------------------------------------
      1          6           0       -0.660811   -0.024342    0.003903
      2          8           0        0.743318    0.106070   -0.013743
      3          1           0       -0.980457   -0.439130    0.976412
      4          1           0       -1.056058   -0.635680   -0.865636
      5          1           0       -1.085343    1.012621   -0.075497
      6          1           0        1.140179   -0.640325    0.051245
 ---------------------------------------------------------------------

 SCF Done:  E(RB2PLYPD3) =  -115.537040062     A.U. after   10 cycles
 E2(B2PLYPD3) =    -0.1454793406D+00 E(B2PLYPD3) =    -0.11568251940281D+03

 The electronic state is 1-A.
 Alpha  occ. eigenvalues --  -19.71384 -10.66733  -1.19038  -0.79454  -0.60143
 Alpha  occ. eigenvalues --   -0.51963  -0.50110  -0.40539  -0.35632
 Alpha virt. eigenvalues --    0.05366   0.08657   0.12124   0.12357   0.14632
 Alpha virt. eigenvalues --    0.17130   0.18096   0.28955   0.33104   0.33693
 Alpha virt. eigenvalues --    0.37124   0.38955   0.39634   0.40413   0.43308

 Mulliken charges:
               1
     1  C    0.062031
     2  O   -0.397640
     3  H    0.051772
     4  H    0.048227
     5  H    0.071095
     6  H    0.164515
 Sum of Mulliken charges =   0.00000

 Dipole moment (field-independent basis, Debye):
    X=             -0.8049    Y=             -1.3676    Z=              0.1498  Tot=              1.5940
 Quadrupole moment (field-independent basis, Debye-Ang):
   XX=            -12.9672   YY=            -12.5084   ZZ=            -13.6359
   XY=             -2.1562   XZ=              0.2174   YZ=             -0.0690

 Normal termination of Gaussian 09 at Wed Aug 26 23:11:49 2020.
