 Gaussian 09, Revision D.01,
 Gaussian 09:  ES64L-G09RevD.01 24-Apr-2013

 --------------------
 #p B2PLYPD3/Def2QZVP
 --------------------

 --------
 methanol
 --------
 Symbolic Z-matrix:
 Charge =  0 Multiplicity = 1

                         Standard orientation:
 ---------------------------------------------------------------------
 Center     Atomic      Atomic             Coordinates (Angstroms)
 Number     Number       Type             X           Y           Z
 ---------------------------------------------------------------------
      1          6           0        0.644921    0.015876    0.023941
      2          8           0       -0.754621   -0.016959    0.041742
      3          1           0        1.139049    1.144866   -0.263377
      4          1           0        1.108484   -0.874514   -0.821770
      5          1           0        0.974577   -0.365156    0.991033
      6          1           0       -1.054670    0.135220   -0.383472
 ---------------------------------------------------------------------

 SCF Done:  E(RB2PLYPD3) =  -114.982418814     A.U. after   11 cycles
 E2(B2PLYPD3) =    -0.1435797524D+00 E(B2PLYPD3) =    -0.11512599856649D+03

 The electronic state is 1-A.
 Alpha  occ. eigenvalues --  -19.69344 -10.70718  -1.32558  -0.85114  -0.62247
 Alpha  occ. eigenvalues --   -0.52462  -0.50191  -0.41013  -0.35646
 Alpha virt. eigenvalues --    0.04907   0.09309   0.10689   0.12020   0.14280
 Alpha virt. eigenvalues --    0.16536   0.18075   0.27835   0.31192   0.32274
 Alpha virt. eigenvalues --    0.33380   0.36112   0.39794   0.41585   0.42575

 Mulliken charges:
               1
     1  C    0.037663
     2  O   -0.066746
     3  H    0.046021
     4  H    0.024219
     5  H    0.104267
     6  H   -0.145424
 Sum of Mulliken charges =   0.00000

 Dipole moment (field-independent basis, Debye):
    X=              0.8211    Y=              0.3829    Z=             -0.7476  Tot=              1.1746
 Quadrupole moment (field-independent basis, Debye-Ang):
   XX=            -13.1912   YY=            -13.3272   ZZ=            -12.9188
   XY=             -0.4614   XZ=              1.7467   YZ=             -0.4815

 Normal termination of Gaussian 09 at Wed Aug 26 23:36:56 2020.
