 Gaussian 09, Revision D.01,
 Gaussian 09:  ES64L-G09RevD.01 24-Apr-2013

 --------------------
 #p B2PLYPD3/Def2QZVP
 --------------------

 --------
 methanol
 --------
 Symbolic Z-matrix:
 Charge =  0 Multiplicity = 1

                         Standard orientation:
 ---------------------------------------------------------------------
 Center     Atomic      Atomic             Coordinates (Angstroms)
 Number     Number       Type             X           Y           Z
 ---------------------------------------------------------------------
      1          6           0       -0.669538    0.022473   -0.001727
      2          8           0        0.736189   -0.163044   -0.009026
      3          1           0       -1.024393    0.512834   -0.824255
      4          1           0       -0.898509    0.517775    0.847804
      5          1           0       -1.074375   -0.856986    0.046731
      6          1           0        1.124992    0.995896    0.012292
 ---------------------------------------------------------------------

 SCF Done:  E(RB2PLYPD3) =  -115.489836114     A.U. after   11 cycles
 E2(B2PLYPD3) =    -0.1516072843D+00 E(B2PLYPD3) =    -0.11564144339784D+03

 The electronic state is 1-A.
 Alpha  occ. eigenvalues --  -19.74057 -10.62125  -1.12800  -0.79566  -0.56219
 Alpha  occ. eigenvalues --   -0.53480  -0.49436  -0.40698  -0.35012
 Alpha virt. eigenvalues --    0.02033   0.07885   0.12607   0.12839   0.14654
 Alpha virt. eigenvalues --    0.17622   0.18146   0.25889   0.29542   0.33096
 Alpha virt. eigenvalues --    0.34284   0.39392   0.41287   0.43030   0.43948

 Mulliken charges:
               1
     1  C    0.096870
     2  O   -0.493193
     3  H    0.042197
     4  H    0.041638
     5  H    0.064041
     6  H    0.248447
 Sum of Mulliken charges =   0.00000

 Dipole moment (field-independent basis, Debye):
    X=             -1.0780    Y=              1.6739    Z=              0.0581  Tot=              1.9918
 Quadrupole moment (field-independent basis, Debye-Ang):
   XX=            -13.2826   YY=            -11.6114   ZZ=            -13.7353
   XY=              2.4211   XZ=              0.1140   YZ=             -0.0035

 Normal termination of Gaussian 09 at Wed Aug 26 11:13:57 2020.
