 Gaussian 09, Revision D.01,
 Gaussian 09:  ES64L-G09RevD.01 24-Apr-2013

 --------------------
 #p B2PLYPD3/Def2QZVP
 --------------------

 --------
 methanol
 --------
 Symbolic Z-matrix:
 Charge =  0 Multiplicity = 1

                         Standard orientation:
 ---------------------------------------------------------------------
 Center     Atomic      Atomic             Coordinates (Angstroms)
 Number     Number       Type             X           Y           Z
 ---------------------------------------------------------------------
      1          6           0       -0.667385    0.033143   -0.003323
      2          8           0        0.746852   -0.145656    0.000603
      3          1           0       -1.002719    0.528006   -0.837863
      4          1           0       -1.024673    0.507284    0.850933
      5          1           0       -1.090171   -0.952632   -0.005600
      6          1           0        1.147058    0.883735    0.007649
 ---------------------------------------------------------------------

 SCF Done:  E(RB2PLYPD3) =  -115.530710734     A.U. after   11 cycles
 E2(B2PLYPD3) =    -0.1497162312D+00 E(B2PLYPD3) =    -0.11568042696548D+03

 The electronic state is 1-A.
 Alpha  occ. eigenvalues --  -19.73651 -10.63914  -1.13701  -0.78850  -0.56887
 Alpha  occ. eigenvalues --   -0.52801  -0.49047  -0.40908  -0.35416
 Alpha virt. eigenvalues --    0.03755   0.07880   0.12508   0.12639   0.14892
 Alpha virt. eigenvalues --    0.17422   0.18279   0.28723   0.30125   0.33607
 Alpha virt. eigenvalues --    0.33960   0.38829   0.40009   0.42572   0.44168

 Mulliken charges:
               1
     1  C    0.083053
     2  O   -0.488065
     3  H    0.048423
     4  H    0.047300
     5  H    0.061591
     6  H    0.247699
 Sum of Mulliken charges =   0.00000

 Dipole moment (field-independent basis, Debye):
    X=             -0.9709    Y=              1.6590    Z=              0.0025  Tot=              1.9222
 Quadrupole moment (field-independent basis, Debye-Ang):
   XX=            -13.0768   YY=            -11.9442   ZZ=            -13.8085
   XY=              2.3073   XZ=              0.0066   YZ=             -0.0113

 Normal termination of Gaussian 09 at Thu Aug 27 00:12:10 2020.
