 Gaussian 09, Revision D.01,
 Gaussian 09:  ES64L-G09RevD.01 24-Apr-2013

 --------------------
 #p B2PLYPD3/Def2QZVP
 --------------------

 --------
 methanol
 --------
 Symbolic Z-matrix:
 Charge =  0 Multiplicity = 1

                         Standard orientation:
 ---------------------------------------------------------------------
 Center     Atomic      Atomic             Coordinates (Angstroms)
 Number     Number       Type             X           Y           Z
 ---------------------------------------------------------------------
      1          6           0        0.660165   -0.039963    0.015870
      2          8           0       -0.780391    0.070081    0.002728
      3          1           0        1.068555   -0.789904   -0.814658
      4          1           0        1.160744   -0.287270    0.997722
      5          1           0        1.114275    1.184024   -0.299658
      6          1           0       -1.061437   -0.427719   -0.000448
 ---------------------------------------------------------------------

 SCF Done:  E(RB2PLYPD3) =  -115.100303501     A.U. after   12 cycles
 E2(B2PLYPD3) =    -0.1443351156D+00 E(B2PLYPD3) =    -0.11524463861616D+03

 The electronic state is 1-A.
 Alpha  occ. eigenvalues --  -19.69425 -10.70788  -1.30627  -0.82115  -0.63208
 Alpha  occ. eigenvalues --   -0.51516  -0.48635  -0.40029  -0.37292
 Alpha virt. eigenvalues --    0.04677   0.09091   0.10428   0.11829   0.14600
 Alpha virt. eigenvalues --    0.16849   0.18086   0.28167   0.30370   0.31986
 Alpha virt. eigenvalues --    0.33182   0.36521   0.38454   0.40902   0.42542

 Mulliken charges:
               1
     1  C    0.034839
     2  O   -0.122325
     3  H    0.056602
     4  H    0.077609
     5  H    0.054764
     6  H   -0.101488
 Sum of Mulliken charges =   0.00000

 Dipole moment (field-independent basis, Debye):
    X=              1.0481    Y=             -1.2703    Z=              0.0716  Tot=              1.6484
 Quadrupole moment (field-independent basis, Debye-Ang):
   XX=            -13.0164   YY=            -12.7407   ZZ=            -13.5699
   XY=              1.5249   XZ=              0.1653   YZ=              0.0315

 Normal termination of Gaussian 09 at Wed Aug 26 22:23:33 2020.
