 Gaussian 09, Revision D.01,
 Gaussian 09:  ES64L-G09RevD.01 24-Apr-2013

 --------------------
 #p B2PLYPD3/Def2QZVP
 --------------------

 --------
 methanol
 --------
 Symbolic Z-matrix:
 Charge =  0 Multiplicity = 1

                         Standard orientation:
 ---------------------------------------------------------------------
 Center     Atomic      Atomic             Coordinates (Angstroms)
 Number     Number       Type             X           Y           Z
 ---------------------------------------------------------------------
      1          6           0        0.669402   -0.018392    0.010984
      2          8           0       -0.751667    0.105288   -0.020065
      3          1           0        1.015789   -0.732294   -0.824266
      4          1           0        0.993001   -0.364438    0.975375
      5          1           0        1.100432    1.002605   -0.162190
      6          1           0       -1.112298   -0.637822    0.105697
 ---------------------------------------------------------------------

 SCF Done:  E(RB2PLYPD3) =  -115.532121881     A.U. after   10 cycles
 E2(B2PLYPD3) =    -0.1454371616D+00 E(B2PLYPD3) =    -0.11567755904207D+03

 The electronic state is 1-A.
 Alpha  occ. eigenvalues --  -19.71195 -10.66746  -1.19021  -0.79556  -0.60071
 Alpha  occ. eigenvalues --   -0.51847  -0.49995  -0.41074  -0.35685
 Alpha virt. eigenvalues --    0.05353   0.08737   0.12047   0.12299   0.14600
 Alpha virt. eigenvalues --    0.17212   0.17879   0.29002   0.32782   0.33123
 Alpha virt. eigenvalues --    0.37205   0.38745   0.39448   0.40909   0.43492

 Mulliken charges:
               1
     1  C    0.067777
     2  O   -0.394315
     3  H    0.044330
     4  H    0.055828
     5  H    0.073640
     6  H    0.152741
 Sum of Mulliken charges =   0.00000

 Dipole moment (field-independent basis, Debye):
    X=              0.9281    Y=             -1.3548    Z=              0.3016  Tot=              1.6696
 Quadrupole moment (field-independent basis, Debye-Ang):
   XX=            -13.1024   YY=            -12.4171   ZZ=            -13.6075
   XY=              2.1357   XZ=             -0.2816   YZ=             -0.1850

 Normal termination of Gaussian 09 at Wed Aug 26 12:00:27 2020.
