 Gaussian 09, Revision D.01,
 Gaussian 09:  ES64L-G09RevD.01 24-Apr-2013

 --------------------
 #p B2PLYPD3/Def2QZVP
 --------------------

 --------
 methanol
 --------
 Symbolic Z-matrix:
 Charge =  0 Multiplicity = 1

                         Standard orientation:
 ---------------------------------------------------------------------
 Center     Atomic      Atomic             Coordinates (Angstroms)
 Number     Number       Type             X           Y           Z
 ---------------------------------------------------------------------
      1          6           0       -0.662748   -0.019883    0.019633
      2          8           0        0.750726    0.098884   -0.017509
      3          1           0       -1.004599   -0.436774    0.936649
      4          1           0       -1.074204   -0.661930   -0.873116
      5          1           0       -1.067793    1.052494   -0.106346
      6          1           0        1.117272   -0.625562    0.065088
 ---------------------------------------------------------------------

 SCF Done:  E(RB2PLYPD3) =  -115.520977145     A.U. after   10 cycles
 E2(B2PLYPD3) =    -0.1452838698D+00 E(B2PLYPD3) =    -0.11566626101475D+03

 The electronic state is 1-A.
 Alpha  occ. eigenvalues --  -19.71210 -10.67166  -1.19926  -0.79690  -0.60828
 Alpha  occ. eigenvalues --   -0.51625  -0.49640  -0.41009  -0.35769
 Alpha virt. eigenvalues --    0.05352   0.08741   0.11970   0.12176   0.14829
 Alpha virt. eigenvalues --    0.17047   0.17977   0.28950   0.33059   0.33180
 Alpha virt. eigenvalues --    0.36889   0.38168   0.39550   0.41023   0.42825

 Mulliken charges:
               1
     1  C    0.060928
     2  O   -0.368246
     3  H    0.059584
     4  H    0.041295
     5  H    0.070811
     6  H    0.135628
 Sum of Mulliken charges =   0.00000

 Dipole moment (field-independent basis, Debye):
    X=             -0.8570    Y=             -1.3565    Z=              0.2598  Tot=              1.6254
 Quadrupole moment (field-independent basis, Debye-Ang):
   XX=            -13.0664   YY=            -12.4462   ZZ=            -13.6789
   XY=             -2.0330   XZ=              0.1554   YZ=             -0.1938

 Normal termination of Gaussian 09 at Wed Aug 26 15:53:31 2020.
