 Gaussian 09, Revision D.01,
 Gaussian 09:  ES64L-G09RevD.01 24-Apr-2013

 --------------------
 #p B2PLYPD3/Def2QZVP
 --------------------

 --------
 methanol
 --------
 Symbolic Z-matrix:
 Charge =  0 Multiplicity = 1

                         Standard orientation:
 ---------------------------------------------------------------------
 Center     Atomic      Atomic             Coordinates (Angstroms)
 Number     Number       Type             X           Y           Z
 ---------------------------------------------------------------------
      1          6           0       -0.681515   -0.036347    0.025172
      2          8           0        0.771119    0.075884   -0.019043
      3          1           0       -0.987117   -0.417945    0.978612
      4          1           0       -1.087723   -0.750603   -0.853211
      5          1           0       -1.199616    1.159891   -0.169821
      6          1           0        1.194592   -0.380328    0.045732
 ---------------------------------------------------------------------

 SCF Done:  E(RB2PLYPD3) =  -115.257305574     A.U. after   11 cycles
 E2(B2PLYPD3) =    -0.1443839867D+00 E(B2PLYPD3) =    -0.11540168956109D+03

 The electronic state is 1-A.
 Alpha  occ. eigenvalues --  -19.68536 -10.70507  -1.25848  -0.82645  -0.62422
 Alpha  occ. eigenvalues --   -0.51469  -0.48159  -0.39084  -0.36650
 Alpha virt. eigenvalues --    0.04813   0.09179   0.10749   0.11879   0.14227
 Alpha virt. eigenvalues --    0.16901   0.17627   0.28710   0.30293   0.31747
 Alpha virt. eigenvalues --    0.32794   0.36553   0.40343   0.41263   0.41693

 Mulliken charges:
               1
     1  C    0.058901
     2  O   -0.206369
     3  H    0.078502
     4  H    0.055970
     5  H    0.070605
     6  H   -0.057609
 Sum of Mulliken charges =   0.00000

 Dipole moment (field-independent basis, Debye):
    X=             -0.9775    Y=             -1.1744    Z=              0.2803  Tot=              1.5534
 Quadrupole moment (field-independent basis, Debye-Ang):
   XX=            -12.5029   YY=            -12.8571   ZZ=            -13.5219
   XY=             -1.7229   XZ=              0.2036   YZ=             -0.1453

 Normal termination of Gaussian 09 at Wed Aug 26 19:55:04 2020.
