 Gaussian 09, Revision D.01,
 Gaussian 09:  ES64L-G09RevD.01 24-Apr-2013

 --------------------
 #p B2PLYPD3/Def2QZVP
 --------------------

 --------
 methanol
 --------
 Symbolic Z-matrix:
 Charge =  0 Multiplicity = 1

                         Standard orientation:
 ---------------------------------------------------------------------
 Center     Atomic      Atomic             Coordinates (Angstroms)
 Number     Number       Type             X           Y           Z
 ---------------------------------------------------------------------
      1          6           0       -0.678674    0.018444   -0.027743
      2          8           0        0.757536   -0.192262    0.003978
      3          1           0       -1.205006    0.400717   -0.691643
      4          1           0       -0.916688    0.688394    0.753638
      5          1           0       -1.097397   -0.832285    0.158516
      6          1           0        1.230845    1.170602   -0.085877
 ---------------------------------------------------------------------

 SCF Done:  E(RB2PLYPD3) =  -115.408109089     A.U. after   11 cycles
 E2(B2PLYPD3) =    -0.1577073317D+00 E(B2PLYPD3) =    -0.11556581642055D+03

 The electronic state is 1-A.
 Alpha  occ. eigenvalues --  -19.76051 -10.61968  -1.10726  -0.81397  -0.55355
 Alpha  occ. eigenvalues --   -0.51698  -0.48123  -0.39865  -0.35031
 Alpha virt. eigenvalues --   -0.02374   0.07254   0.12358   0.13081   0.14480
 Alpha virt. eigenvalues --    0.17605   0.18673   0.21522   0.29273   0.31581
 Alpha virt. eigenvalues --    0.34595   0.37786   0.38991   0.42107   0.46190

 Mulliken charges:
               1
     1  C    0.102385
     2  O   -0.471248
     3  H    0.046674
     4  H    0.030195
     5  H    0.058897
     6  H    0.233098
 Sum of Mulliken charges =   0.00000

 Dipole moment (field-independent basis, Debye):
    X=             -1.1502    Y=              1.7642    Z=             -0.1639  Tot=              2.1124
 Quadrupole moment (field-independent basis, Debye-Ang):
   XX=            -12.8556   YY=            -11.2637   ZZ=            -14.3093
   XY=              2.4757   XZ=              0.1016   YZ=             -0.1973

 Normal termination of Gaussian 09 at Wed Aug 26 20:55:29 2020.
