 Gaussian 09, Revision D.01,
 Gaussian 09:  ES64L-G09RevD.01 24-Apr-2013

 --------------------
 #p B2PLYPD3/Def2QZVP
 --------------------

 --------
 methanol
 --------
 Symbolic Z-matrix:
 Charge =  0 Multiplicity = 1

                         Standard orientation:
 ---------------------------------------------------------------------
 Center     Atomic      Atomic             Coordinates (Angstroms)
 Number     Number       Type             X           Y           Z
 ---------------------------------------------------------------------
      1          6           0        0.627527    0.016704    0.010631
      2          8           0       -0.731560   -0.132865   -0.031351
      3          1           0        1.011332    0.304988    0.946414
      4          1           0        1.062161    0.700398   -0.812596
      5          1           0        1.109973   -0.879216   -0.117499
      6          1           0       -1.096146    0.836526    0.170705
 ---------------------------------------------------------------------

 SCF Done:  E(RB2PLYPD3) =  -115.534069890     A.U. after   11 cycles
 E2(B2PLYPD3) =    -0.1484834495D+00 E(B2PLYPD3) =    -0.11568255333923D+03

 The electronic state is 1-A.
 Alpha  occ. eigenvalues --  -19.73829 -10.64511  -1.16756  -0.78470  -0.58259
 Alpha  occ. eigenvalues --   -0.52160  -0.51328  -0.40309  -0.35074
 Alpha virt. eigenvalues --    0.04090   0.07935   0.12298   0.13014   0.14864
 Alpha virt. eigenvalues --    0.17816   0.18640   0.28713   0.30932   0.33104
 Alpha virt. eigenvalues --    0.35679   0.38756   0.40826   0.41523   0.43976

 Mulliken charges:
               1
     1  C    0.062391
     2  O   -0.449684
     3  H    0.042740
     4  H    0.030375
     5  H    0.062203
     6  H    0.251976
 Sum of Mulliken charges =   0.00000

 Dipole moment (field-independent basis, Debye):
    X=              0.7510    Y=              1.4535    Z=              0.4274  Tot=              1.6909
 Quadrupole moment (field-independent basis, Debye-Ang):
   XX=            -13.1523   YY=            -12.2714   ZZ=            -13.7859
   XY=             -2.3955   XZ=             -0.3550   YZ=              0.2675

 Normal termination of Gaussian 09 at Wed Aug 26 18:48:14 2020.
