 Gaussian 09, Revision D.01,
 Gaussian 09:  ES64L-G09RevD.01 24-Apr-2013

 --------------------
 #p B2PLYPD3/Def2QZVP
 --------------------

 --------
 methanol
 --------
 Symbolic Z-matrix:
 Charge =  0 Multiplicity = 1

                         Standard orientation:
 ---------------------------------------------------------------------
 Center     Atomic      Atomic             Coordinates (Angstroms)
 Number     Number       Type             X           Y           Z
 ---------------------------------------------------------------------
      1          6           0        0.667713    0.029436    0.005351
      2          8           0       -0.739623   -0.144889   -0.007742
      3          1           0        1.031734    0.465574    0.855994
      4          1           0        1.023891    0.604724   -0.820042
      5          1           0        1.079673   -0.947056   -0.051327
      6          1           0       -1.224595    0.859259    0.045204
 ---------------------------------------------------------------------

 SCF Done:  E(RB2PLYPD3) =  -115.529356730     A.U. after   11 cycles
 E2(B2PLYPD3) =    -0.1497213878D+00 E(B2PLYPD3) =    -0.11567907811790D+03

 The electronic state is 1-A.
 Alpha  occ. eigenvalues --  -19.73601 -10.64003  -1.13556  -0.78735  -0.57036
 Alpha  occ. eigenvalues --   -0.52114  -0.49449  -0.40575  -0.35139
 Alpha virt. eigenvalues --    0.03628   0.07771   0.12544   0.12772   0.15056
 Alpha virt. eigenvalues --    0.17228   0.18274   0.28730   0.29973   0.33566
 Alpha virt. eigenvalues --    0.34226   0.39123   0.39453   0.42123   0.44383

 Mulliken charges:
               1
     1  C    0.080644
     2  O   -0.491716
     3  H    0.048707
     4  H    0.044267
     5  H    0.066615
     6  H    0.251484
 Sum of Mulliken charges =   0.00000

 Dipole moment (field-independent basis, Debye):
    X=              0.8294    Y=              1.6291    Z=              0.1239  Tot=              1.8323
 Quadrupole moment (field-independent basis, Debye-Ang):
   XX=            -12.7163   YY=            -12.0314   ZZ=            -13.9044
   XY=             -2.4207   XZ=             -0.0641   YZ=              0.0780

 Normal termination of Gaussian 09 at Wed Aug 26 09:49:41 2020.
