 Gaussian 09, Revision D.01,
 Gaussian 09:  ES64L-G09RevD.01 24-Apr-2013

 --------------------
 #p B2PLYPD3/Def2QZVP
 --------------------

 --------
 methanol
 --------
 Symbolic Z-matrix:
 Charge =  0 Multiplicity = 1

                         Standard orientation:
 ---------------------------------------------------------------------
 Center     Atomic      Atomic             Coordinates (Angstroms)
 Number     Number       Type             X           Y           Z
 ---------------------------------------------------------------------
      1          6           0        0.653546   -0.005428    0.004909
      2          8           0       -0.744664   -0.063674   -0.044242
      3          1           0        1.029130    0.020191    1.105857
      4          1           0        1.038492    1.028182   -0.579162
      5          1           0        1.078547   -0.917796   -0.476959
      6          1           0       -1.110133    0.411383    0.274750
 ---------------------------------------------------------------------

 SCF Done:  E(RB2PLYPD3) =  -115.384515871     A.U. after   11 cycles
 E2(B2PLYPD3) =    -0.1437527644D+00 E(B2PLYPD3) =    -0.11552826863522D+03

 The electronic state is 1-A.
 Alpha  occ. eigenvalues --  -19.69689 -10.68982  -1.25391  -0.82221  -0.61801
 Alpha  occ. eigenvalues --   -0.51606  -0.50777  -0.40564  -0.35513
 Alpha virt. eigenvalues --    0.05273   0.09243   0.11473   0.12189   0.14407
 Alpha virt. eigenvalues --    0.16964   0.17675   0.28547   0.32008   0.33457
 Alpha virt. eigenvalues --    0.35875   0.37805   0.39092   0.41027   0.42439

 Mulliken charges:
               1
     1  C    0.051275
     2  O   -0.221732
     3  H    0.044866
     4  H    0.033736
     5  H    0.091093
     6  H    0.000762
 Sum of Mulliken charges =   0.00000

 Dipole moment (field-independent basis, Debye):
    X=              0.7788    Y=              0.8332    Z=              0.7001  Tot=              1.3382
 Quadrupole moment (field-independent basis, Debye-Ang):
   XX=            -13.0372   YY=            -12.8965   ZZ=            -13.3864
   XY=             -1.7871   XZ=             -0.9930   YZ=              0.4418

 Normal termination of Gaussian 09 at Wed Aug 26 11:58:41 2020.
