 Gaussian 09, Revision D.01,
 Gaussian 09:  ES64L-G09RevD.01 24-Apr-2013

 --------------------
 #p B2PLYPD3/Def2QZVP
 --------------------

 --------
 methanol
 --------
 Symbolic Z-matrix:
 Charge =  0 Multiplicity = 1

                         Standard orientation:
 ---------------------------------------------------------------------
 Center     Atomic      Atomic             Coordinates (Angstroms)
 Number     Number       Type             X           Y           Z
 ---------------------------------------------------------------------
      1          6           0       -0.660251   -0.028234    0.001339
      2          8           0        0.747959    0.125132   -0.005079
      3          1           0       -0.993993   -0.506926    0.902274
      4          1           0       -1.045464   -0.589997   -0.848162
      5          1           0       -1.135499    0.999480   -0.030868
      6          1           0        1.152792   -0.734210    0.009348
 ---------------------------------------------------------------------

 SCF Done:  E(RB2PLYPD3) =  -115.551427536     A.U. after   10 cycles
 E2(B2PLYPD3) =    -0.1470991202D+00 E(B2PLYPD3) =    -0.11569852665618D+03

 The electronic state is 1-A.
 Alpha  occ. eigenvalues --  -19.72543 -10.65849  -1.16473  -0.78630  -0.59059
 Alpha  occ. eigenvalues --   -0.51993  -0.49562  -0.40737  -0.35499
 Alpha virt. eigenvalues --    0.05002   0.08182   0.12307   0.12475   0.14842
 Alpha virt. eigenvalues --    0.17459   0.18082   0.29143   0.33223   0.33731
 Alpha virt. eigenvalues --    0.35151   0.38118   0.39941   0.41125   0.43965

 Mulliken charges:
               1
     1  C    0.070170
     2  O   -0.454205
     3  H    0.050496
     4  H    0.047823
     5  H    0.064773
     6  H    0.220943
 Sum of Mulliken charges =   0.00000

 Dipole moment (field-independent basis, Debye):
    X=             -0.8405    Y=             -1.5382    Z=              0.0415  Tot=              1.7534
 Quadrupole moment (field-independent basis, Debye-Ang):
   XX=            -12.9116   YY=            -12.3152   ZZ=            -13.8208
   XY=             -2.2513   XZ=              0.0668   YZ=             -0.0157

 Normal termination of Gaussian 09 at Thu Aug 27 00:06:26 2020.
