 Gaussian 09, Revision D.01,
 Gaussian 09:  ES64L-G09RevD.01 24-Apr-2013

 --------------------
 #p B2PLYPD3/Def2QZVP
 --------------------

 --------
 methanol
 --------
 Symbolic Z-matrix:
 Charge =  0 Multiplicity = 1

                         Standard orientation:
 ---------------------------------------------------------------------
 Center     Atomic      Atomic             Coordinates (Angstroms)
 Number     Number       Type             X           Y           Z
 ---------------------------------------------------------------------
      1          6           0        0.670466    0.016585   -0.009353
      2          8           0       -0.752387   -0.147028    0.004787
      3          1           0        1.004311    0.564980    0.851521
      4          1           0        1.049685    0.458145   -0.846493
      5          1           0        1.043382   -0.905124    0.053108
      6          1           0       -1.101082    0.958716   -0.040309
 ---------------------------------------------------------------------

 SCF Done:  E(RB2PLYPD3) =  -115.512979825     A.U. after   11 cycles
 E2(B2PLYPD3) =    -0.1509975832D+00 E(B2PLYPD3) =    -0.11566397740801D+03

 The electronic state is 1-A.
 Alpha  occ. eigenvalues --  -19.74098 -10.63372  -1.13001  -0.79205  -0.56542
 Alpha  occ. eigenvalues --   -0.52247  -0.49169  -0.41383  -0.35254
 Alpha virt. eigenvalues --    0.02995   0.07821   0.12548   0.12677   0.14805
 Alpha virt. eigenvalues --    0.17417   0.18321   0.27397   0.29605   0.33275
 Alpha virt. eigenvalues --    0.33999   0.38721   0.40621   0.42035   0.44075

 Mulliken charges:
               1
     1  C    0.086248
     2  O   -0.489976
     3  H    0.041229
     4  H    0.046150
     5  H    0.066700
     6  H    0.249649
 Sum of Mulliken charges =   0.00000

 Dipole moment (field-independent basis, Debye):
    X=              1.0915    Y=              1.6316    Z=             -0.1035  Tot=              1.9657
 Quadrupole moment (field-independent basis, Debye-Ang):
   XX=            -13.3317   YY=            -11.7054   ZZ=            -13.8297
   XY=             -2.2924   XZ=             -0.0007   YZ=             -0.1021

 Normal termination of Gaussian 09 at Wed Aug 26 18:32:10 2020.
