 Gaussian 09, Revision D.01,
 Gaussian 09:  ES64L-G09RevD.01 24-Apr-2013

 --------------------
 #p B2PLYPD3/Def2QZVP
 --------------------

 --------
 methanol
 --------
 Symbolic Z-matrix:
 Charge =  0 Multiplicity = 1

                         Standard orientation:
 ---------------------------------------------------------------------
 Center     Atomic      Atomic             Coordinates (Angstroms)
 Number     Number       Type             X           Y           Z
 ---------------------------------------------------------------------
      1          6           0       -0.643955    0.027773    0.000658
      2          8           0        0.738082   -0.150926   -0.011130
      3          1           0       -1.062762    0.589469   -0.790210
      4          1           0       -0.996837    0.454987    0.851810
      5          1           0       -1.105000   -0.934468   -0.022963
      6          1           0        1.123675    0.930782    0.046451
 ---------------------------------------------------------------------

 SCF Done:  E(RB2PLYPD3) =  -115.518975634     A.U. after   11 cycles
 E2(B2PLYPD3) =    -0.1503145815D+00 E(B2PLYPD3) =    -0.11566929021509D+03

 The electronic state is 1-A.
 Alpha  occ. eigenvalues --  -19.74274 -10.63598  -1.14513  -0.78652  -0.57094
 Alpha  occ. eigenvalues --   -0.52436  -0.49807  -0.40623  -0.35213
 Alpha virt. eigenvalues --    0.03008   0.07769   0.12552   0.12830   0.15081
 Alpha virt. eigenvalues --    0.17665   0.18383   0.27524   0.29586   0.33548
 Alpha virt. eigenvalues --    0.35279   0.38802   0.39935   0.42293   0.44177

 Mulliken charges:
               1
     1  C    0.083100
     2  O   -0.473912
     3  H    0.038936
     4  H    0.041858
     5  H    0.056814
     6  H    0.253204
 Sum of Mulliken charges =   0.00000

 Dipole moment (field-independent basis, Debye):
    X=             -0.8944    Y=              1.6892    Z=              0.1368  Tot=              1.9162
 Quadrupole moment (field-independent basis, Debye-Ang):
   XX=            -13.1366   YY=            -11.8458   ZZ=            -13.9564
   XY=              2.2926   XZ=              0.1032   YZ=              0.0624

 Normal termination of Gaussian 09 at Wed Aug 26 11:51:17 2020.
