 Gaussian 09, Revision D.01,
 Gaussian 09:  ES64L-G09RevD.01 24-Apr-2013

 --------------------
 #p B2PLYPD3/Def2QZVP
 --------------------

 --------
 methanol
 --------
 Symbolic Z-matrix:
 Charge =  0 Multiplicity = 1

                         Standard orientation:
 ---------------------------------------------------------------------
 Center     Atomic      Atomic             Coordinates (Angstroms)
 Number     Number       Type             X           Y           Z
 ---------------------------------------------------------------------
      1          6           0       -0.643616   -0.037117   -0.008724
      2          8           0        0.735610    0.123987   -0.008895
      3          1           0       -1.000340   -0.485578    0.923993
      4          1           0       -1.016127   -0.613944   -0.838836
      5          1           0       -1.172316    1.012699   -0.019634
      6          1           0        1.165595   -0.682374    0.057981
 ---------------------------------------------------------------------

 SCF Done:  E(RB2PLYPD3) =  -115.546571896     A.U. after   11 cycles
 E2(B2PLYPD3) =    -0.1463486712D+00 E(B2PLYPD3) =    -0.11569292056761D+03

 The electronic state is 1-A.
 Alpha  occ. eigenvalues --  -19.72330 -10.66241  -1.18118  -0.78687  -0.60197
 Alpha  occ. eigenvalues --   -0.52463  -0.49795  -0.39881  -0.35508
 Alpha virt. eigenvalues --    0.05128   0.08248   0.12278   0.12468   0.14813
 Alpha virt. eigenvalues --    0.17501   0.18204   0.29014   0.33220   0.34604
 Alpha virt. eigenvalues --    0.35365   0.37705   0.40172   0.41396   0.43768

 Mulliken charges:
               1
     1  C    0.064393
     2  O   -0.429577
     3  H    0.045597
     4  H    0.051723
     5  H    0.058073
     6  H    0.209791
 Sum of Mulliken charges =   0.00000

 Dipole moment (field-independent basis, Debye):
    X=             -0.6785    Y=             -1.5184    Z=              0.1197  Tot=              1.6674
 Quadrupole moment (field-independent basis, Debye-Ang):
   XX=            -12.7978   YY=            -12.5338   ZZ=            -13.8034
   XY=             -2.2178   XZ=              0.1829   YZ=             -0.0002

 Normal termination of Gaussian 09 at Wed Aug 26 16:04:18 2020.
