 Gaussian 09, Revision D.01,
 Gaussian 09:  ES64L-G09RevD.01 24-Apr-2013

 --------------------
 #p B2PLYPD3/Def2QZVP
 --------------------

 --------
 methanol
 --------
 Symbolic Z-matrix:
 Charge =  0 Multiplicity = 1

                         Standard orientation:
 ---------------------------------------------------------------------
 Center     Atomic      Atomic             Coordinates (Angstroms)
 Number     Number       Type             X           Y           Z
 ---------------------------------------------------------------------
      1          6           0        0.665367    0.023205    0.000468
      2          8           0       -0.734973   -0.144066    0.000797
      3          1           0        1.007002    0.500673    0.887449
      4          1           0        0.962168    0.574578   -0.860030
      5          1           0        1.102952   -0.904977   -0.046648
      6          1           0       -1.184537    0.843020    0.010047
 ---------------------------------------------------------------------

 SCF Done:  E(RB2PLYPD3) =  -115.535970672     A.U. after   11 cycles
 E2(B2PLYPD3) =    -0.1489183821D+00 E(B2PLYPD3) =    -0.11568488905427D+03

 The electronic state is 1-A.
 Alpha  occ. eigenvalues --  -19.73204 -10.64005  -1.14222  -0.78694  -0.57046
 Alpha  occ. eigenvalues --   -0.52432  -0.50359  -0.40548  -0.34977
 Alpha virt. eigenvalues --    0.03946   0.07980   0.12505   0.12815   0.14758
 Alpha virt. eigenvalues --    0.17494   0.18128   0.29063   0.30624   0.33237
 Alpha virt. eigenvalues --    0.34201   0.39440   0.40904   0.41919   0.43673

 Mulliken charges:
               1
     1  C    0.079852
     2  O   -0.487934
     3  H    0.045559
     4  H    0.043526
     5  H    0.068921
     6  H    0.250076
 Sum of Mulliken charges =   0.00000

 Dipole moment (field-independent basis, Debye):
    X=              0.8465    Y=              1.5805    Z=              0.0082  Tot=              1.7929
 Quadrupole moment (field-independent basis, Debye-Ang):
   XX=            -12.9004   YY=            -12.0850   ZZ=            -13.7706
   XY=             -2.5006   XZ=              0.0021   YZ=              0.0178

 Normal termination of Gaussian 09 at Wed Aug 26 21:19:39 2020.
