 Gaussian 09, Revision D.01,
 Gaussian 09:  ES64L-G09RevD.01 24-Apr-2013

 --------------------
 #p B2PLYPD3/Def2QZVP
 --------------------

 --------
 methanol
 --------
 Symbolic Z-matrix:
 Charge =  0 Multiplicity = 1

                         Standard orientation:
 ---------------------------------------------------------------------
 Center     Atomic      Atomic             Coordinates (Angstroms)
 Number     Number       Type             X           Y           Z
 ---------------------------------------------------------------------
      1          6           0        0.664658    0.025476    0.002290
      2          8           0       -0.740840   -0.144472   -0.003399
      3          1           0        1.036911    0.490910    0.836759
      4          1           0        1.035928    0.571950   -0.811226
      5          1           0        1.036781   -0.964631   -0.032021
      6          1           0       -1.170850    0.904691    0.019941
 ---------------------------------------------------------------------

 SCF Done:  E(RB2PLYPD3) =  -115.524254486     A.U. after   11 cycles
 E2(B2PLYPD3) =    -0.1501740884D+00 E(B2PLYPD3) =    -0.11567442857476D+03

 The electronic state is 1-A.
 Alpha  occ. eigenvalues --  -19.73865 -10.63725  -1.13651  -0.78746  -0.57269
 Alpha  occ. eigenvalues --   -0.52124  -0.49092  -0.41002  -0.35172
 Alpha virt. eigenvalues --    0.03360   0.07835   0.12401   0.12833   0.15189
 Alpha virt. eigenvalues --    0.17159   0.18218   0.28262   0.29822   0.33643
 Alpha virt. eigenvalues --    0.34440   0.38813   0.39424   0.42302   0.44636

 Mulliken charges:
               1
     1  C    0.081979
     2  O   -0.485390
     3  H    0.045705
     4  H    0.043008
     5  H    0.065741
     6  H    0.248957
 Sum of Mulliken charges =   0.00000

 Dipole moment (field-independent basis, Debye):
    X=              0.9067    Y=              1.6640    Z=              0.0560  Tot=              1.8958
 Quadrupole moment (field-independent basis, Debye-Ang):
   XX=            -13.0202   YY=            -11.8098   ZZ=            -13.9476
   XY=             -2.2794   XZ=             -0.0220   YZ=              0.0375

 Normal termination of Gaussian 09 at Wed Aug 26 12:41:49 2020.
