 Gaussian 09, Revision D.01,
 Gaussian 09:  ES64L-G09RevD.01 24-Apr-2013

 --------------------
 #p B2PLYPD3/Def2QZVP
 --------------------

 --------
 methanol
 --------
 Symbolic Z-matrix:
 Charge =  0 Multiplicity = 1

                         Standard orientation:
 ---------------------------------------------------------------------
 Center     Atomic      Atomic             Coordinates (Angstroms)
 Number     Number       Type             X           Y           Z
 ---------------------------------------------------------------------
      1          6           0       -0.695823   -0.016875    0.011702
      2          8           0        0.773786    0.052886   -0.009595
      3          1           0       -1.082752   -0.560751    0.960857
      4          1           0       -0.997499   -0.696842   -0.955045
      5          1           0       -1.147263    1.201297   -0.082678
      6          1           0        1.212166   -0.265545    0.083411
 ---------------------------------------------------------------------

 SCF Done:  E(RB2PLYPD3) =  -114.996253548     A.U. after   12 cycles
 E2(B2PLYPD3) =    -0.1446368571D+00 E(B2PLYPD3) =    -0.11514089040557D+03

 The electronic state is 1-A.
 Alpha  occ. eigenvalues --  -19.67300 -10.72368  -1.28491  -0.83981  -0.61900
 Alpha  occ. eigenvalues --   -0.50153  -0.48821  -0.38535  -0.36117
 Alpha virt. eigenvalues --    0.04453   0.09495   0.10629   0.11389   0.13688
 Alpha virt. eigenvalues --    0.16648   0.17197   0.28189   0.29616   0.31831
 Alpha virt. eigenvalues --    0.32424   0.36249   0.37096   0.40937   0.41878

 Mulliken charges:
               1
     1  C    0.067848
     2  O   -0.156258
     3  H    0.069770
     4  H    0.067644
     5  H    0.088232
     6  H   -0.137236
 Sum of Mulliken charges =   0.00000

 Dipole moment (field-independent basis, Debye):
    X=             -1.0860    Y=             -0.9047    Z=              0.3061  Tot=              1.4462
 Quadrupole moment (field-independent basis, Debye-Ang):
   XX=            -12.4077   YY=            -12.7488   ZZ=            -13.4934
   XY=             -1.4789   XZ=              0.2513   YZ=             -0.1496

 Normal termination of Gaussian 09 at Wed Aug 26 22:53:33 2020.
