 Gaussian 09, Revision D.01,
 Gaussian 09:  ES64L-G09RevD.01 24-Apr-2013

 --------------------
 #p B2PLYPD3/Def2QZVP
 --------------------

 --------
 methanol
 --------
 Symbolic Z-matrix:
 Charge =  0 Multiplicity = 1

                         Standard orientation:
 ---------------------------------------------------------------------
 Center     Atomic      Atomic             Coordinates (Angstroms)
 Number     Number       Type             X           Y           Z
 ---------------------------------------------------------------------
      1          6           0       -0.666080   -0.016011    0.024829
      2          8           0        0.740974    0.073220   -0.047335
      3          1           0       -0.942888   -0.092571    1.069265
      4          1           0       -1.069152   -0.897570   -0.698499
      5          1           0       -1.005799    0.998262   -0.379710
      6          1           0        1.086529   -0.497816    0.238655
 ---------------------------------------------------------------------

 SCF Done:  E(RB2PLYPD3) =  -115.451333783     A.U. after   11 cycles
 E2(B2PLYPD3) =    -0.1440911173D+00 E(B2PLYPD3) =    -0.11559542490038D+03

 The electronic state is 1-A.
 Alpha  occ. eigenvalues --  -19.69811 -10.67719  -1.23183  -0.81063  -0.61146
 Alpha  occ. eigenvalues --   -0.52123  -0.50077  -0.40689  -0.35944
 Alpha virt. eigenvalues --    0.05391   0.09210   0.11685   0.12079   0.14345
 Alpha virt. eigenvalues --    0.16735   0.17996   0.28711   0.32712   0.33058
 Alpha virt. eigenvalues --    0.36263   0.38094   0.40676   0.40914   0.43238

 Mulliken charges:
               1
     1  C    0.050832
     2  O   -0.270827
     3  H    0.060525
     4  H    0.044842
     5  H    0.075448
     6  H    0.039180
 Sum of Mulliken charges =   0.00000

 Dipole moment (field-independent basis, Debye):
    X=             -0.8499    Y=             -1.0566    Z=              0.6713  Tot=              1.5131
 Quadrupole moment (field-independent basis, Debye-Ang):
   XX=            -13.2886   YY=            -12.7045   ZZ=            -13.2246
   XY=             -1.7576   XZ=              0.8187   YZ=             -0.3267

 Normal termination of Gaussian 09 at Wed Aug 26 10:57:51 2020.
