 Gaussian 09, Revision D.01,
 Gaussian 09:  ES64L-G09RevD.01 24-Apr-2013

 --------------------
 #p B2PLYPD3/Def2QZVP
 --------------------

 --------
 methanol
 --------
 Symbolic Z-matrix:
 Charge =  0 Multiplicity = 1

                         Standard orientation:
 ---------------------------------------------------------------------
 Center     Atomic      Atomic             Coordinates (Angstroms)
 Number     Number       Type             X           Y           Z
 ---------------------------------------------------------------------
      1          6           0        0.665007   -0.031104    0.004820
      2          8           0       -0.735510    0.117480   -0.009285
      3          1           0        1.008235   -0.619509   -0.859818
      4          1           0        0.931834   -0.498718    0.930620
      5          1           0        1.124643    1.015984   -0.045281
      6          1           0       -1.170677   -0.650973    0.019842
 ---------------------------------------------------------------------

 SCF Done:  E(RB2PLYPD3) =  -115.544574591     A.U. after   10 cycles
 E2(B2PLYPD3) =    -0.1457563802D+00 E(B2PLYPD3) =    -0.11569033097118D+03

 The electronic state is 1-A.
 Alpha  occ. eigenvalues --  -19.71389 -10.66149  -1.17884  -0.79267  -0.59799
 Alpha  occ. eigenvalues --   -0.52582  -0.49839  -0.40226  -0.35401
 Alpha virt. eigenvalues --    0.05287   0.08578   0.12238   0.12366   0.14683
 Alpha virt. eigenvalues --    0.17230   0.17804   0.29146   0.33020   0.33759
 Alpha virt. eigenvalues --    0.36751   0.38385   0.40004   0.41153   0.44034

 Mulliken charges:
               1
     1  C    0.071261
     2  O   -0.430112
     3  H    0.048357
     4  H    0.052810
     5  H    0.068703
     6  H    0.188981
 Sum of Mulliken charges =   0.00000

 Dipole moment (field-independent basis, Debye):
    X=              0.7709    Y=             -1.4532    Z=              0.0829  Tot=              1.6471
 Quadrupole moment (field-independent basis, Debye-Ang):
   XX=            -12.8742   YY=            -12.4366   ZZ=            -13.6600
   XY=              2.2362   XZ=             -0.1259   YZ=             -0.0373

 Normal termination of Gaussian 09 at Wed Aug 26 14:03:19 2020.
