 Gaussian 09, Revision D.01,
 Gaussian 09:  ES64L-G09RevD.01 24-Apr-2013

 --------------------
 #p B2PLYPD3/Def2QZVP
 --------------------

 --------
 methanol
 --------
 Symbolic Z-matrix:
 Charge =  0 Multiplicity = 1

                         Standard orientation:
 ---------------------------------------------------------------------
 Center     Atomic      Atomic             Coordinates (Angstroms)
 Number     Number       Type             X           Y           Z
 ---------------------------------------------------------------------
      1          6           0        0.684105   -0.016352    0.049591
      2          8           0       -0.779662   -0.042300   -0.062387
      3          1           0        0.939348   -0.003188    1.067169
      4          1           0        1.231035    1.007415   -0.623708
      5          1           0        1.029389   -0.972908   -0.517748
      6          1           0       -1.067107    0.405191    0.275840
 ---------------------------------------------------------------------

 SCF Done:  E(RB2PLYPD3) =  -115.274011278     A.U. after   11 cycles
 E2(B2PLYPD3) =    -0.1445180142D+00 E(B2PLYPD3) =    -0.11541852929180D+03

 The electronic state is 1-A.
 Alpha  occ. eigenvalues --  -19.69208 -10.69692  -1.26727  -0.81706  -0.62095
 Alpha  occ. eigenvalues --   -0.51067  -0.48879  -0.42075  -0.36035
 Alpha virt. eigenvalues --    0.04992   0.08767   0.10975   0.11673   0.14425
 Alpha virt. eigenvalues --    0.16714   0.17940   0.28084   0.30159   0.30674
 Alpha virt. eigenvalues --    0.34323   0.36835   0.40614   0.41486   0.42335

 Mulliken charges:
               1
     1  C    0.049427
     2  O   -0.205531
     3  H    0.077124
     4  H    0.032183
     5  H    0.087494
     6  H   -0.040697
 Sum of Mulliken charges =   0.00000

 Dipole moment (field-independent basis, Debye):
    X=              1.0928    Y=              0.7157    Z=              0.9320  Tot=              1.6047
 Quadrupole moment (field-independent basis, Debye-Ang):
   XX=            -13.3067   YY=            -13.0071   ZZ=            -13.0153
   XY=             -1.5750   XZ=             -1.0190   YZ=              0.5432

 Normal termination of Gaussian 09 at Wed Aug 26 19:13:35 2020.
