 Gaussian 09, Revision D.01,
 Gaussian 09:  ES64L-G09RevD.01 24-Apr-2013

 --------------------
 #p B2PLYPD3/Def2QZVP
 --------------------

 --------
 methanol
 --------
 Symbolic Z-matrix:
 Charge =  0 Multiplicity = 1

                         Standard orientation:
 ---------------------------------------------------------------------
 Center     Atomic      Atomic             Coordinates (Angstroms)
 Number     Number       Type             X           Y           Z
 ---------------------------------------------------------------------
      1          6           0        0.614495    0.058237   -0.001805
      2          8           0       -0.728166   -0.198455    0.001205
      3          1           0        1.066937    0.451438    0.750890
      4          1           0        1.075010    0.490284   -0.713569
      5          1           0        1.136512   -0.896712   -0.027047
      6          1           0       -1.140096    1.193211   -0.009083
 ---------------------------------------------------------------------

 SCF Done:  E(RB2PLYPD3) =  -115.410742564     A.U. after   12 cycles
 E2(B2PLYPD3) =    -0.1568241177D+00 E(B2PLYPD3) =    -0.11556756668207D+03

 The electronic state is 1-A.
 Alpha  occ. eigenvalues --  -19.76560 -10.61837  -1.14142  -0.80784  -0.54736
 Alpha  occ. eigenvalues --   -0.53440  -0.50409  -0.37790  -0.35755
 Alpha virt. eigenvalues --   -0.02903   0.07168   0.12438   0.13265   0.15040
 Alpha virt. eigenvalues --    0.17940   0.18858   0.21206   0.29397   0.34603
 Alpha virt. eigenvalues --    0.36237   0.36553   0.39903   0.43642   0.44552

 Mulliken charges:
               1
     1  C    0.102211
     2  O   -0.438396
     3  H    0.039186
     4  H    0.038706
     5  H    0.030095
     6  H    0.228198
 Sum of Mulliken charges =   0.00000

 Dipole moment (field-independent basis, Debye):
    X=              1.0192    Y=              1.8583    Z=             -0.0212  Tot=              2.1196
 Quadrupole moment (field-independent basis, Debye-Ang):
   XX=            -13.2266   YY=            -11.4471   ZZ=            -14.1943
   XY=             -2.1187   XZ=              0.0008   YZ=             -0.0243

 Normal termination of Gaussian 09 at Wed Aug 26 21:33:40 2020.
