 Gaussian 09, Revision D.01,
 Gaussian 09:  ES64L-G09RevD.01 24-Apr-2013

 --------------------
 #p B2PLYPD3/Def2QZVP
 --------------------

 --------
 methanol
 --------
 Symbolic Z-matrix:
 Charge =  0 Multiplicity = 1

                         Standard orientation:
 ---------------------------------------------------------------------
 Center     Atomic      Atomic             Coordinates (Angstroms)
 Number     Number       Type             X           Y           Z
 ---------------------------------------------------------------------
      1          6           0        0.662963   -0.020617   -0.015677
      2          8           0       -0.751970    0.097978    0.011310
      3          1           0        1.028952   -0.510313   -0.904690
      4          1           0        1.068191   -0.594041    0.910290
      5          1           0        1.062339    1.066592    0.039679
      6          1           0       -1.121497   -0.622359   -0.041695
 ---------------------------------------------------------------------

 SCF Done:  E(RB2PLYPD3) =  -115.519368253     A.U. after   10 cycles
 E2(B2PLYPD3) =    -0.1452674245D+00 E(B2PLYPD3) =    -0.11566463567748D+03

 The electronic state is 1-A.
 Alpha  occ. eigenvalues --  -19.71188 -10.67304  -1.20031  -0.79683  -0.60916
 Alpha  occ. eigenvalues --   -0.51453  -0.49568  -0.41043  -0.35777
 Alpha virt. eigenvalues --    0.05355   0.08736   0.11943   0.12184   0.14878
 Alpha virt. eigenvalues --    0.16999   0.17974   0.28969   0.33025   0.33269
 Alpha virt. eigenvalues --    0.36924   0.38284   0.39666   0.40676   0.42408

 Mulliken charges:
               1
     1  C    0.059396
     2  O   -0.363243
     3  H    0.057787
     4  H    0.044244
     5  H    0.070766
     6  H    0.131049
 Sum of Mulliken charges =   0.00000

 Dipole moment (field-independent basis, Debye):
    X=              0.8544    Y=             -1.3704    Z=             -0.1814  Tot=              1.6251
 Quadrupole moment (field-independent basis, Debye-Ang):
   XX=            -13.0358   YY=            -12.4275   ZZ=            -13.7237
   XY=              2.0065   XZ=              0.0724   YZ=              0.1464

 Normal termination of Gaussian 09 at Wed Aug 26 10:06:15 2020.
