 Gaussian 09, Revision D.01,
 Gaussian 09:  ES64L-G09RevD.01 24-Apr-2013

 --------------------
 #p B2PLYPD3/Def2QZVP
 --------------------

 --------
 methanol
 --------
 Symbolic Z-matrix:
 Charge =  0 Multiplicity = 1

                         Standard orientation:
 ---------------------------------------------------------------------
 Center     Atomic      Atomic             Coordinates (Angstroms)
 Number     Number       Type             X           Y           Z
 ---------------------------------------------------------------------
      1          6           0        0.686021    0.006327   -0.000417
      2          8           0       -0.762818    0.069117   -0.011456
      3          1           0        1.028978   -0.790647   -0.826587
      4          1           0        1.068804   -0.320169    1.058678
      5          1           0        0.961835    1.036580   -0.244329
      6          1           0       -1.073196   -0.516666    0.106386
 ---------------------------------------------------------------------

 SCF Done:  E(RB2PLYPD3) =  -115.379046481     A.U. after   11 cycles
 E2(B2PLYPD3) =    -0.1439908645D+00 E(B2PLYPD3) =    -0.11552303734527D+03

 The electronic state is 1-A.
 Alpha  occ. eigenvalues --  -19.69124 -10.68608  -1.24476  -0.81513  -0.60856
 Alpha  occ. eigenvalues --   -0.50673  -0.50535  -0.41722  -0.35947
 Alpha virt. eigenvalues --    0.05322   0.09179   0.11507   0.12053   0.14380
 Alpha virt. eigenvalues --    0.16561   0.17605   0.28689   0.31219   0.32789
 Alpha virt. eigenvalues --    0.35949   0.37897   0.39807   0.41009   0.42213

 Mulliken charges:
               1
     1  C    0.053368
     2  O   -0.242020
     3  H    0.047438
     4  H    0.053169
     5  H    0.095423
     6  H   -0.007379
 Sum of Mulliken charges =   0.00000

 Dipole moment (field-independent basis, Debye):
    X=              1.0594    Y=             -1.1204    Z=              0.2442  Tot=              1.5611
 Quadrupole moment (field-independent basis, Debye-Ang):
   XX=            -13.3308   YY=            -12.3585   ZZ=            -13.4697
   XY=              1.8342   XZ=             -0.3025   YZ=             -0.2234

 Normal termination of Gaussian 09 at Wed Aug 26 12:59:41 2020.
