 Gaussian 09, Revision D.01,
 Gaussian 09:  ES64L-G09RevD.01 24-Apr-2013

 --------------------
 #p B2PLYPD3/Def2QZVP
 --------------------

 --------
 methanol
 --------
 Symbolic Z-matrix:
 Charge =  0 Multiplicity = 1

                         Standard orientation:
 ---------------------------------------------------------------------
 Center     Atomic      Atomic             Coordinates (Angstroms)
 Number     Number       Type             X           Y           Z
 ---------------------------------------------------------------------
      1          6           0        0.678649    0.003719    0.011818
      2          8           0       -0.760171   -0.123014   -0.017536
      3          1           0        1.069271    0.377722    0.907264
      4          1           0        1.016094    0.723621   -0.817893
      5          1           0        1.066770   -0.933201   -0.143322
      6          1           0       -1.142663    0.793656    0.123330
 ---------------------------------------------------------------------

 SCF Done:  E(RB2PLYPD3) =  -115.543844422     A.U. after   10 cycles
 E2(B2PLYPD3) =    -0.1482872994D+00 E(B2PLYPD3) =    -0.11569213172112D+03

 The electronic state is 1-A.
 Alpha  occ. eigenvalues --  -19.72935 -10.65213  -1.14558  -0.79122  -0.57906
 Alpha  occ. eigenvalues --   -0.50949  -0.50105  -0.41674  -0.35180
 Alpha virt. eigenvalues --    0.04655   0.08025   0.12309   0.12576   0.14842
 Alpha virt. eigenvalues --    0.17294   0.18084   0.29132   0.32408   0.33108
 Alpha virt. eigenvalues --    0.33986   0.38211   0.40249   0.40938   0.44428

 Mulliken charges:
               1
     1  C    0.077253
     2  O   -0.477999
     3  H    0.051527
     4  H    0.036911
     5  H    0.076914
     6  H    0.235394
 Sum of Mulliken charges =   0.00000

 Dipole moment (field-independent basis, Debye):
    X=              0.9867    Y=              1.4758    Z=              0.3196  Tot=              1.8038
 Quadrupole moment (field-independent basis, Debye-Ang):
   XX=            -13.0276   YY=            -12.0823   ZZ=            -13.8475
   XY=             -2.3307   XZ=             -0.1757   YZ=              0.2560

 Normal termination of Gaussian 09 at Wed Aug 26 12:36:19 2020.
