 Gaussian 09, Revision D.01,
 Gaussian 09:  ES64L-G09RevD.01 24-Apr-2013

 --------------------
 #p B2PLYPD3/Def2QZVP
 --------------------

 --------
 methanol
 --------
 Symbolic Z-matrix:
 Charge =  0 Multiplicity = 1

                         Standard orientation:
 ---------------------------------------------------------------------
 Center     Atomic      Atomic             Coordinates (Angstroms)
 Number     Number       Type             X           Y           Z
 ---------------------------------------------------------------------
      1          6           0       -0.676017    0.034313   -0.003577
      2          8           0        0.724710   -0.153306   -0.006155
      3          1           0       -1.017813    0.508670   -0.815590
      4          1           0       -0.822313    0.634322    0.815850
      5          1           0       -1.132018   -0.938796    0.095127
      6          1           0        1.230569    0.816375   -0.024685
 ---------------------------------------------------------------------

 SCF Done:  E(RB2PLYPD3) =  -115.525616106     A.U. after   11 cycles
 E2(B2PLYPD3) =    -0.1489048634D+00 E(B2PLYPD3) =    -0.11567452096903D+03

 The electronic state is 1-A.
 Alpha  occ. eigenvalues --  -19.72764 -10.63426  -1.13795  -0.78926  -0.57345
 Alpha  occ. eigenvalues --   -0.53388  -0.49637  -0.40254  -0.34673
 Alpha virt. eigenvalues --    0.03861   0.07999   0.12472   0.12811   0.14869
 Alpha virt. eigenvalues --    0.17417   0.17659   0.29331   0.30411   0.32793
 Alpha virt. eigenvalues --    0.34271   0.39322   0.39833   0.42662   0.44833

 Mulliken charges:
               1
     1  C    0.088865
     2  O   -0.496619
     3  H    0.045602
     4  H    0.044628
     5  H    0.069362
     6  H    0.248161
 Sum of Mulliken charges =   0.00000

 Dipole moment (field-independent basis, Debye):
    X=             -0.8101    Y=              1.6589    Z=             -0.0383  Tot=              1.8466
 Quadrupole moment (field-independent basis, Debye-Ang):
   XX=            -12.7219   YY=            -11.9911   ZZ=            -13.8227
   XY=              2.5233   XZ=              0.1327   YZ=             -0.0619

 Normal termination of Gaussian 09 at Wed Aug 26 19:33:02 2020.
