 Gaussian 09, Revision D.01,
 Gaussian 09:  ES64L-G09RevD.01 24-Apr-2013

 --------------------
 #p B2PLYPD3/Def2QZVP
 --------------------

 --------
 methanol
 --------
 Symbolic Z-matrix:
 Charge =  0 Multiplicity = 1

                         Standard orientation:
 ---------------------------------------------------------------------
 Center     Atomic      Atomic             Coordinates (Angstroms)
 Number     Number       Type             X           Y           Z
 ---------------------------------------------------------------------
      1          6           0        0.662291   -0.010267   -0.000341
      2          8           0       -0.748166    0.111732   -0.001769
      3          1           0        1.036091   -0.597922   -0.888652
      4          1           0        1.062300   -0.514792    0.922741
      5          1           0        1.077231    0.982650   -0.039959
      6          1           0       -1.164037   -0.702187    0.022071
 ---------------------------------------------------------------------

 SCF Done:  E(RB2PLYPD3) =  -115.549951826     A.U. after   10 cycles
 E2(B2PLYPD3) =    -0.1465750936D+00 E(B2PLYPD3) =    -0.11569652691918D+03

 The electronic state is 1-A.
 Alpha  occ. eigenvalues --  -19.72208 -10.66368  -1.17169  -0.78944  -0.59381
 Alpha  occ. eigenvalues --   -0.51006  -0.50498  -0.40955  -0.35259
 Alpha virt. eigenvalues --    0.05162   0.08291   0.12271   0.12469   0.14872
 Alpha virt. eigenvalues --    0.17207   0.18066   0.29104   0.33150   0.33683
 Alpha virt. eigenvalues --    0.36067   0.38937   0.39755   0.40022   0.43246

 Mulliken charges:
               1
     1  C    0.066773
     2  O   -0.439959
     3  H    0.043323
     4  H    0.044605
     5  H    0.077116
     6  H    0.208143
 Sum of Mulliken charges =   0.00000

 Dipole moment (field-independent basis, Debye):
    X=              0.7974    Y=             -1.4070    Z=              0.0424  Tot=              1.6178
 Quadrupole moment (field-independent basis, Debye-Ang):
   XX=            -12.8638   YY=            -12.3549   ZZ=            -13.8534
   XY=              2.2784   XZ=             -0.0422   YZ=             -0.0325

 Normal termination of Gaussian 09 at Thu Aug 27 00:15:10 2020.
