 Gaussian 09, Revision D.01,
 Gaussian 09:  ES64L-G09RevD.01 24-Apr-2013

 --------------------
 #p B2PLYPD3/Def2QZVP
 --------------------

 --------
 methanol
 --------
 Symbolic Z-matrix:
 Charge =  0 Multiplicity = 1

                         Standard orientation:
 ---------------------------------------------------------------------
 Center     Atomic      Atomic             Coordinates (Angstroms)
 Number     Number       Type             X           Y           Z
 ---------------------------------------------------------------------
      1          6           0        0.661974    0.008593    0.029209
      2          8           0       -0.751228   -0.065515   -0.057082
      3          1           0        0.983997   -0.158140    1.085303
      4          1           0        1.120937    1.047103   -0.469682
      5          1           0        1.112419   -0.845227   -0.608556
      6          1           0       -1.179373    0.428824    0.274341
 ---------------------------------------------------------------------

 SCF Done:  E(RB2PLYPD3) =  -115.452206320     A.U. after   11 cycles
 E2(B2PLYPD3) =    -0.1446418701D+00 E(B2PLYPD3) =    -0.11559684819000D+03

 The electronic state is 1-A.
 Alpha  occ. eigenvalues --  -19.70195 -10.68887  -1.22416  -0.81160  -0.61174
 Alpha  occ. eigenvalues --   -0.51473  -0.49995  -0.39529  -0.35958
 Alpha virt. eigenvalues --    0.05345   0.08831   0.11585   0.12206   0.14214
 Alpha virt. eigenvalues --    0.16959   0.18228   0.28632   0.32525   0.32717
 Alpha virt. eigenvalues --    0.35465   0.37456   0.40003   0.40347   0.42457

 Mulliken charges:
               1
     1  C    0.050547
     2  O   -0.280112
     3  H    0.063366
     4  H    0.039729
     5  H    0.078323
     6  H    0.048148
 Sum of Mulliken charges =   0.00000

 Dipole moment (field-independent basis, Debye):
    X=              0.7554    Y=              0.8861    Z=              0.7442  Tot=              1.3819
 Quadrupole moment (field-independent basis, Debye-Ang):
   XX=            -12.6919   YY=            -13.1446   ZZ=            -13.3228
   XY=             -1.7493   XZ=             -1.1500   YZ=              0.3058

 Normal termination of Gaussian 09 at Wed Aug 26 14:01:48 2020.
