 Gaussian 09, Revision D.01,
 Gaussian 09:  ES64L-G09RevD.01 24-Apr-2013

 --------------------
 #p B2PLYPD3/Def2QZVP
 --------------------

 --------
 methanol
 --------
 Symbolic Z-matrix:
 Charge =  0 Multiplicity = 1

                         Standard orientation:
 ---------------------------------------------------------------------
 Center     Atomic      Atomic             Coordinates (Angstroms)
 Number     Number       Type             X           Y           Z
 ---------------------------------------------------------------------
      1          6           0       -0.675823   -0.036686    0.005122
      2          8           0        0.745345    0.133756   -0.005011
      3          1           0       -0.998623   -0.494277    0.873075
      4          1           0       -1.022571   -0.564421   -0.851148
      5          1           0       -1.086261    0.991957   -0.029418
      6          1           0        1.199636   -0.783193    0.016846
 ---------------------------------------------------------------------

 SCF Done:  E(RB2PLYPD3) =  -115.545424673     A.U. after   10 cycles
 E2(B2PLYPD3) =    -0.1482609652D+00 E(B2PLYPD3) =    -0.11569368563836D+03

 The electronic state is 1-A.
 Alpha  occ. eigenvalues --  -19.72790 -10.64828  -1.14366  -0.78796  -0.57749
 Alpha  occ. eigenvalues --   -0.52634  -0.48968  -0.40593  -0.35440
 Alpha virt. eigenvalues --    0.04619   0.08007   0.12354   0.12575   0.14885
 Alpha virt. eigenvalues --    0.17153   0.18181   0.29136   0.32879   0.33498
 Alpha virt. eigenvalues --    0.33602   0.38307   0.39871   0.42202   0.44491

 Mulliken charges:
               1
     1  C    0.076653
     2  O   -0.486063
     3  H    0.054516
     4  H    0.051322
     5  H    0.065504
     6  H    0.238069
 Sum of Mulliken charges =   0.00000

 Dipole moment (field-independent basis, Debye):
    X=             -0.8715    Y=             -1.5939    Z=              0.0618  Tot=              1.8177
 Quadrupole moment (field-independent basis, Debye-Ang):
   XX=            -12.8149   YY=            -12.1948   ZZ=            -13.7552
   XY=             -2.3076   XZ=              0.0443   YZ=             -0.0408

 Normal termination of Gaussian 09 at Wed Aug 26 23:59:48 2020.
