 Gaussian 09, Revision D.01,
 Gaussian 09:  ES64L-G09RevD.01 24-Apr-2013

 --------------------
 #p B2PLYPD3/Def2QZVP
 --------------------

 --------
 methanol
 --------
 Symbolic Z-matrix:
 Charge =  0 Multiplicity = 1

                         Standard orientation:
 ---------------------------------------------------------------------
 Center     Atomic      Atomic             Coordinates (Angstroms)
 Number     Number       Type             X           Y           Z
 ---------------------------------------------------------------------
      1          6           0        0.666727   -0.006564    0.038331
      2          8           0       -0.740427   -0.155299   -0.021262
      3          1           0        1.109611    0.363559    0.834933
      4          1           0        1.000967    0.756018   -0.817823
      5          1           0        1.071385   -0.793722   -0.207723
      6          1           0       -1.258910    0.955923    0.130723
 ---------------------------------------------------------------------

 SCF Done:  E(RB2PLYPD3) =  -115.465038608     A.U. after   11 cycles
 E2(B2PLYPD3) =    -0.1522979609D+00 E(B2PLYPD3) =    -0.11561733656886D+03

 The electronic state is 1-A.
 Alpha  occ. eigenvalues --  -19.74640 -10.63341  -1.12695  -0.79996  -0.56796
 Alpha  occ. eigenvalues --   -0.51176  -0.50110  -0.40537  -0.34282
 Alpha virt. eigenvalues --    0.01552   0.07464   0.12492   0.13024   0.14815
 Alpha virt. eigenvalues --    0.17603   0.18551   0.25206   0.29648   0.32416
 Alpha virt. eigenvalues --    0.34653   0.36469   0.40923   0.41330   0.44865

 Mulliken charges:
               1
     1  C    0.077285
     2  O   -0.485952
     3  H    0.051198
     4  H    0.012910
     5  H    0.081899
     6  H    0.262660
 Sum of Mulliken charges =   0.00000

 Dipole moment (field-independent basis, Debye):
    X=              0.7722    Y=              1.5299    Z=              0.3857  Tot=              1.7566
 Quadrupole moment (field-independent basis, Debye-Ang):
   XX=            -12.5907   YY=            -11.9675   ZZ=            -14.0428
   XY=             -2.7677   XZ=             -0.0619   YZ=              0.4476

 Normal termination of Gaussian 09 at Wed Aug 26 19:30:36 2020.
