 Gaussian 09, Revision D.01,
 Gaussian 09:  ES64L-G09RevD.01 24-Apr-2013

 --------------------
 #p B2PLYPD3/Def2QZVP
 --------------------

 --------
 methanol
 --------
 Symbolic Z-matrix:
 Charge =  0 Multiplicity = 1

                         Standard orientation:
 ---------------------------------------------------------------------
 Center     Atomic      Atomic             Coordinates (Angstroms)
 Number     Number       Type             X           Y           Z
 ---------------------------------------------------------------------
      1          6           0       -0.666968   -0.023371   -0.002433
      2          8           0        0.752496    0.126423    0.002271
      3          1           0       -1.054971   -0.530017    0.873338
      4          1           0       -1.052491   -0.525084   -0.863269
      5          1           0       -1.053832    0.990753   -0.002252
      6          1           0        1.143138   -0.806815   -0.011388
 ---------------------------------------------------------------------

 SCF Done:  E(RB2PLYPD3) =  -115.548728891     A.U. after   10 cycles
 E2(B2PLYPD3) =    -0.1483163088D+00 E(B2PLYPD3) =    -0.11569704519974D+03

 The electronic state is 1-A.
 Alpha  occ. eigenvalues --  -19.73129 -10.65179  -1.15027  -0.78583  -0.58148
 Alpha  occ. eigenvalues --   -0.51696  -0.49274  -0.41257  -0.35463
 Alpha virt. eigenvalues --    0.04633   0.08022   0.12364   0.12526   0.15015
 Alpha virt. eigenvalues --    0.17175   0.18272   0.29055   0.32814   0.33623
 Alpha virt. eigenvalues --    0.34118   0.38464   0.39763   0.41254   0.43987

 Mulliken charges:
               1
     1  C    0.069704
     2  O   -0.471111
     3  H    0.048337
     4  H    0.049574
     5  H    0.067437
     6  H    0.236059
 Sum of Mulliken charges =   0.00000

 Dipole moment (field-independent basis, Debye):
    X=             -0.9145    Y=             -1.5639    Z=             -0.0375  Tot=              1.8121
 Quadrupole moment (field-independent basis, Debye-Ang):
   XX=            -13.0334   YY=            -12.1016   ZZ=            -13.8572
   XY=             -2.2185   XZ=             -0.0126   YZ=              0.0271

 Normal termination of Gaussian 09 at Wed Aug 26 23:39:35 2020.
