 Gaussian 09, Revision D.01,
 Gaussian 09:  ES64L-G09RevD.01 24-Apr-2013

 --------------------
 #p B2PLYPD3/Def2QZVP
 --------------------

 --------
 methanol
 --------
 Symbolic Z-matrix:
 Charge =  0 Multiplicity = 1

                         Standard orientation:
 ---------------------------------------------------------------------
 Center     Atomic      Atomic             Coordinates (Angstroms)
 Number     Number       Type             X           Y           Z
 ---------------------------------------------------------------------
      1          6           0       -0.674341    0.010165    0.013877
      2          8           0        0.735400   -0.054748   -0.057947
      3          1           0       -0.959627    1.181030   -0.309250
      4          1           0       -1.122208   -0.348738    0.980434
      5          1           0       -0.958061   -0.764912   -0.717506
      6          1           0        1.202742    0.309613    0.426639
 ---------------------------------------------------------------------

 SCF Done:  E(RB2PLYPD3) =  -115.476183505     A.U. after   11 cycles
 E2(B2PLYPD3) =    -0.1449394187D+00 E(B2PLYPD3) =    -0.11562112292410D+03

 The electronic state is 1-A.
 Alpha  occ. eigenvalues --  -19.70026 -10.68301  -1.20888  -0.81242  -0.60550
 Alpha  occ. eigenvalues --   -0.51603  -0.49759  -0.39604  -0.35345
 Alpha virt. eigenvalues --    0.05305   0.08867   0.11417   0.12297   0.14350
 Alpha virt. eigenvalues --    0.16375   0.18322   0.28942   0.31320   0.33958
 Alpha virt. eigenvalues --    0.35785   0.37891   0.39985   0.41112   0.42542

 Mulliken charges:
               1
     1  C    0.045289
     2  O   -0.311101
     3  H    0.044988
     4  H    0.057658
     5  H    0.084999
     6  H    0.078167
 Sum of Mulliken charges =   0.00000

 Dipole moment (field-independent basis, Debye):
    X=             -0.6502    Y=              0.5822    Z=              1.0034  Tot=              1.3298
 Quadrupole moment (field-independent basis, Debye-Ang):
   XX=            -12.7998   YY=            -13.0730   ZZ=            -13.2122
   XY=              1.5043   XZ=              1.3640   YZ=              0.3471

 Normal termination of Gaussian 09 at Wed Aug 26 21:34:20 2020.
