 Gaussian 09, Revision D.01,
 Gaussian 09:  ES64L-G09RevD.01 24-Apr-2013

 --------------------
 #p B2PLYPD3/Def2QZVP
 --------------------

 --------
 methanol
 --------
 Symbolic Z-matrix:
 Charge =  0 Multiplicity = 1

                         Standard orientation:
 ---------------------------------------------------------------------
 Center     Atomic      Atomic             Coordinates (Angstroms)
 Number     Number       Type             X           Y           Z
 ---------------------------------------------------------------------
      1          6           0        0.662962   -0.020670   -0.003644
      2          8           0       -0.750731    0.130219    0.002979
      3          1           0        1.034582   -0.533862   -0.847700
      4          1           0        0.977871   -0.570909    0.872508
      5          1           0        1.126029    0.975920    0.011835
      6          1           0       -1.110409   -0.788882   -0.038613
 ---------------------------------------------------------------------

 SCF Done:  E(RB2PLYPD3) =  -115.550089342     A.U. after   10 cycles
 E2(B2PLYPD3) =    -0.1477074523D+00 E(B2PLYPD3) =    -0.11569779679473D+03

 The electronic state is 1-A.
 Alpha  occ. eigenvalues --  -19.72852 -10.65164  -1.15705  -0.78679  -0.58473
 Alpha  occ. eigenvalues --   -0.52041  -0.49631  -0.41362  -0.35352
 Alpha virt. eigenvalues --    0.04740   0.08183   0.12391   0.12494   0.14870
 Alpha virt. eigenvalues --    0.17607   0.17947   0.29233   0.32745   0.33484
 Alpha virt. eigenvalues --    0.34491   0.38807   0.39954   0.41335   0.44538

 Mulliken charges:
               1
     1  C    0.076576
     2  O   -0.465488
     3  H    0.046273
     4  H    0.044956
     5  H    0.066812
     6  H    0.230870
 Sum of Mulliken charges =   0.00000

 Dipole moment (field-independent basis, Debye):
    X=              0.9499    Y=             -1.5749    Z=             -0.0939  Tot=              1.8416
 Quadrupole moment (field-independent basis, Debye-Ang):
   XX=            -13.1353   YY=            -12.0867   ZZ=            -13.8395
   XY=              2.2493   XZ=              0.0090   YZ=              0.0687

 Normal termination of Gaussian 09 at Thu Aug 27 00:14:28 2020.
