 Gaussian 09, Revision D.01,
 Gaussian 09:  ES64L-G09RevD.01 24-Apr-2013

 --------------------
 #p B2PLYPD3/Def2QZVP
 --------------------

 --------
 methanol
 --------
 Symbolic Z-matrix:
 Charge =  0 Multiplicity = 1

                         Standard orientation:
 ---------------------------------------------------------------------
 Center     Atomic      Atomic             Coordinates (Angstroms)
 Number     Number       Type             X           Y           Z
 ---------------------------------------------------------------------
      1          6           0       -0.667055   -0.023224    0.015995
      2          8           0        0.756248    0.104237   -0.013481
      3          1           0       -1.013912   -0.490882    0.920385
      4          1           0       -1.083158   -0.576261   -0.917578
      5          1           0       -1.072747    1.031289   -0.034036
      6          1           0        1.122159   -0.658699    0.043104
 ---------------------------------------------------------------------

 SCF Done:  E(RB2PLYPD3) =  -115.535029480     A.U. after   10 cycles
 E2(B2PLYPD3) =    -0.1458757523D+00 E(B2PLYPD3) =    -0.11568090523220D+03

 The electronic state is 1-A.
 Alpha  occ. eigenvalues --  -19.71596 -10.66947  -1.18695  -0.79303  -0.60074
 Alpha  occ. eigenvalues --   -0.51581  -0.49555  -0.41076  -0.35809
 Alpha virt. eigenvalues --    0.05339   0.08548   0.12108   0.12186   0.14707
 Alpha virt. eigenvalues --    0.17105   0.18174   0.28915   0.32848   0.33248
 Alpha virt. eigenvalues --    0.36943   0.38499   0.39311   0.40707   0.43044

 Mulliken charges:
               1
     1  C    0.061372
     2  O   -0.399781
     3  H    0.058628
     4  H    0.045876
     5  H    0.070556
     6  H    0.163350
 Sum of Mulliken charges =   0.00000

 Dipole moment (field-independent basis, Debye):
    X=             -0.9020    Y=             -1.3874    Z=              0.1863  Tot=              1.6653
 Quadrupole moment (field-independent basis, Debye-Ang):
   XX=            -13.0432   YY=            -12.4529   ZZ=            -13.6703
   XY=             -2.1009   XZ=              0.1040   YZ=             -0.1436

 Normal termination of Gaussian 09 at Wed Aug 26 21:21:41 2020.
