 Gaussian 09, Revision D.01,
 Gaussian 09:  ES64L-G09RevD.01 24-Apr-2013

 --------------------
 #p B2PLYPD3/Def2QZVP
 --------------------

 --------
 methanol
 --------
 Symbolic Z-matrix:
 Charge =  0 Multiplicity = 1

                         Standard orientation:
 ---------------------------------------------------------------------
 Center     Atomic      Atomic             Coordinates (Angstroms)
 Number     Number       Type             X           Y           Z
 ---------------------------------------------------------------------
      1          6           0        0.673782    0.022691    0.000161
      2          8           0       -0.733507   -0.142988   -0.004396
      3          1           0        1.049473    0.430712    0.874217
      4          1           0        0.920581    0.690962   -0.793529
      5          1           0        1.084886   -0.932820   -0.116904
      6          1           0       -1.229571    0.818901    0.070413
 ---------------------------------------------------------------------

 SCF Done:  E(RB2PLYPD3) =  -115.534609991     A.U. after   11 cycles
 E2(B2PLYPD3) =    -0.1489454898D+00 E(B2PLYPD3) =    -0.11568355548035D+03

 The electronic state is 1-A.
 Alpha  occ. eigenvalues --  -19.73011 -10.64023  -1.13806  -0.78780  -0.57393
 Alpha  occ. eigenvalues --   -0.52279  -0.49871  -0.40561  -0.34797
 Alpha virt. eigenvalues --    0.03964   0.07943   0.12543   0.12742   0.14958
 Alpha virt. eigenvalues --    0.17218   0.17963   0.29259   0.30737   0.33005
 Alpha virt. eigenvalues --    0.34218   0.39222   0.39984   0.42180   0.44335

 Mulliken charges:
               1
     1  C    0.084512
     2  O   -0.494765
     3  H    0.046579
     4  H    0.041867
     5  H    0.072620
     6  H    0.249187
 Sum of Mulliken charges =   0.00000

 Dipole moment (field-independent basis, Debye):
    X=              0.8076    Y=              1.5940    Z=              0.1452  Tot=              1.7928
 Quadrupole moment (field-independent basis, Debye-Ang):
   XX=            -12.7081   YY=            -12.0247   ZZ=            -13.8846
   XY=             -2.4885   XZ=             -0.0469   YZ=              0.0989

 Normal termination of Gaussian 09 at Wed Aug 26 11:03:28 2020.
