 Gaussian 09, Revision D.01,
 Gaussian 09:  ES64L-G09RevD.01 24-Apr-2013

 --------------------
 #p B2PLYPD3/Def2QZVP
 --------------------

 --------
 methanol
 --------
 Symbolic Z-matrix:
 Charge =  0 Multiplicity = 1

                         Standard orientation:
 ---------------------------------------------------------------------
 Center     Atomic      Atomic             Coordinates (Angstroms)
 Number     Number       Type             X           Y           Z
 ---------------------------------------------------------------------
      1          6           0        0.697217    0.018657   -0.004410
      2          8           0       -0.728786   -0.150328   -0.024699
      3          1           0        1.060460    0.211593    0.997403
      4          1           0        0.943831    0.807139   -0.730693
      5          1           0        0.994499   -0.785675   -0.234958
      6          1           0       -1.351803    0.857626    0.192295
 ---------------------------------------------------------------------

 SCF Done:  E(RB2PLYPD3) =  -115.474326766     A.U. after   11 cycles
 E2(B2PLYPD3) =    -0.1514804137D+00 E(B2PLYPD3) =    -0.11562580717953D+03

 The electronic state is 1-A.
 Alpha  occ. eigenvalues --  -19.73388 -10.63244  -1.11759  -0.79723  -0.55628
 Alpha  occ. eigenvalues --   -0.51909  -0.50451  -0.39605  -0.34525
 Alpha virt. eigenvalues --    0.02434   0.07666   0.12342   0.13201   0.14451
 Alpha virt. eigenvalues --    0.16791   0.18459   0.26649   0.29228   0.32969
 Alpha virt. eigenvalues --    0.33631   0.37488   0.41084   0.42325   0.43098

 Mulliken charges:
               1
     1  C    0.047402
     2  O   -0.517029
     3  H    0.053659
     4  H    0.051312
     5  H    0.107341
     6  H    0.257315
 Sum of Mulliken charges =   0.00000

 Dipole moment (field-independent basis, Debye):
    X=              0.7524    Y=              1.4798    Z=              0.3032  Tot=              1.6876
 Quadrupole moment (field-independent basis, Debye-Ang):
   XX=            -12.3330   YY=            -12.1656   ZZ=            -13.7013
   XY=             -2.7449   XZ=             -0.4930   YZ=              0.2283

 Normal termination of Gaussian 09 at Wed Aug 26 21:22:43 2020.
