 Gaussian 09, Revision D.01,
 Gaussian 09:  ES64L-G09RevD.01 24-Apr-2013

 --------------------
 #p B2PLYPD3/Def2QZVP
 --------------------

 --------
 methanol
 --------
 Symbolic Z-matrix:
 Charge =  0 Multiplicity = 1

                         Standard orientation:
 ---------------------------------------------------------------------
 Center     Atomic      Atomic             Coordinates (Angstroms)
 Number     Number       Type             X           Y           Z
 ---------------------------------------------------------------------
      1          6           0        0.699938    0.054146   -0.014591
      2          8           0       -0.741361   -0.160393    0.005188
      3          1           0        0.994089    0.435159    0.886727
      4          1           0        1.001145    0.560316   -0.747602
      5          1           0        1.033408   -0.952670   -0.069395
      6          1           0       -1.297385    0.915464   -0.023689
 ---------------------------------------------------------------------

 SCF Done:  E(RB2PLYPD3) =  -115.489350224     A.U. after   11 cycles
 E2(B2PLYPD3) =    -0.1519123721D+00 E(B2PLYPD3) =    -0.11564126259567D+03

 The electronic state is 1-A.
 Alpha  occ. eigenvalues --  -19.73748 -10.62811  -1.11193  -0.79756  -0.56221
 Alpha  occ. eigenvalues --   -0.53495  -0.47686  -0.40178  -0.35255
 Alpha virt. eigenvalues --    0.02546   0.07644   0.12304   0.12866   0.14867
 Alpha virt. eigenvalues --    0.16786   0.18350   0.26626   0.29238   0.32794
 Alpha virt. eigenvalues --    0.33857   0.38435   0.39617   0.43105   0.45774

 Mulliken charges:
               1
     1  C    0.086680
     2  O   -0.513158
     3  H    0.056972
     4  H    0.058256
     5  H    0.066301
     6  H    0.244950
 Sum of Mulliken charges =   0.00000

 Dipole moment (field-independent basis, Debye):
    X=              0.9682    Y=              1.6859    Z=             -0.0840  Tot=              1.9459
 Quadrupole moment (field-independent basis, Debye-Ang):
   XX=            -12.6044   YY=            -11.9108   ZZ=            -13.7543
   XY=             -2.4202   XZ=             -0.0104   YZ=             -0.1100

 Normal termination of Gaussian 09 at Wed Aug 26 20:47:36 2020.
