 Gaussian 09, Revision D.01,
 Gaussian 09:  ES64L-G09RevD.01 24-Apr-2013

 --------------------
 #p B2PLYPD3/Def2QZVP
 --------------------

 --------
 methanol
 --------
 Symbolic Z-matrix:
 Charge =  0 Multiplicity = 1

                         Standard orientation:
 ---------------------------------------------------------------------
 Center     Atomic      Atomic             Coordinates (Angstroms)
 Number     Number       Type             X           Y           Z
 ---------------------------------------------------------------------
      1          6           0        0.656228   -0.014630   -0.005223
      2          8           0       -0.745403    0.101921    0.004609
      3          1           0        1.002118   -0.564536   -0.925698
      4          1           0        1.038910   -0.557126    0.938982
      5          1           0        1.109244    1.008664   -0.009389
      6          1           0       -1.124417   -0.614595   -0.009429
 ---------------------------------------------------------------------

 SCF Done:  E(RB2PLYPD3) =  -115.521480927     A.U. after   10 cycles
 E2(B2PLYPD3) =    -0.1449947309D+00 E(B2PLYPD3) =    -0.11566647565806D+03

 The electronic state is 1-A.
 Alpha  occ. eigenvalues --  -19.71131 -10.67246  -1.20370  -0.79814  -0.60703
 Alpha  occ. eigenvalues --   -0.51525  -0.50622  -0.40723  -0.35556
 Alpha virt. eigenvalues --    0.05386   0.08776   0.12052   0.12338   0.14617
 Alpha virt. eigenvalues --    0.17264   0.17905   0.28892   0.32937   0.33636
 Alpha virt. eigenvalues --    0.37016   0.39228   0.39587   0.39872   0.43074

 Mulliken charges:
               1
     1  C    0.061069
     2  O   -0.360976
     3  H    0.047272
     4  H    0.043275
     5  H    0.076225
     6  H    0.133135
 Sum of Mulliken charges =   0.00000

 Dipole moment (field-independent basis, Debye):
    X=              0.8101    Y=             -1.3144    Z=             -0.0581  Tot=              1.5451
 Quadrupole moment (field-independent basis, Debye-Ang):
   XX=            -12.9866   YY=            -12.5208   ZZ=            -13.6966
   XY=              2.1687   XZ=              0.0289   YZ=              0.0426

 Normal termination of Gaussian 09 at Thu Aug 27 00:01:36 2020.
