 Gaussian 09, Revision D.01,
 Gaussian 09:  ES64L-G09RevD.01 24-Apr-2013

 --------------------
 #p B2PLYPD3/Def2QZVP
 --------------------

 --------
 methanol
 --------
 Symbolic Z-matrix:
 Charge =  0 Multiplicity = 1

                         Standard orientation:
 ---------------------------------------------------------------------
 Center     Atomic      Atomic             Coordinates (Angstroms)
 Number     Number       Type             X           Y           Z
 ---------------------------------------------------------------------
      1          6           0       -0.653943   -0.033996   -0.009476
      2          8           0        0.737720    0.142899    0.004796
      3          1           0       -1.006513   -0.552325    0.858177
      4          1           0       -1.026073   -0.508857   -0.832165
      5          1           0       -1.116215    0.960934    0.020455
      6          1           0        1.170698   -0.838969   -0.027973
 ---------------------------------------------------------------------

 SCF Done:  E(RB2PLYPD3) =  -115.537045013     A.U. after   11 cycles
 E2(B2PLYPD3) =    -0.1488748187D+00 E(B2PLYPD3) =    -0.11568591983163D+03

 The electronic state is 1-A.
 Alpha  occ. eigenvalues --  -19.73514 -10.64307  -1.14830  -0.78564  -0.57773
 Alpha  occ. eigenvalues --   -0.52507  -0.49582  -0.40526  -0.35280
 Alpha virt. eigenvalues --    0.04044   0.07892   0.12526   0.12684   0.15010
 Alpha virt. eigenvalues --    0.17502   0.18292   0.29023   0.30844   0.33483
 Alpha virt. eigenvalues --    0.34762   0.38569   0.39873   0.42207   0.44553

 Mulliken charges:
               1
     1  C    0.077151
     2  O   -0.476652
     3  H    0.043553
     4  H    0.047949
     5  H    0.059849
     6  H    0.248149
 Sum of Mulliken charges =   0.00000

 Dipole moment (field-independent basis, Debye):
    X=             -0.8174    Y=             -1.6412    Z=             -0.0942  Tot=              1.8359
 Quadrupole moment (field-independent basis, Debye-Ang):
   XX=            -12.9001   YY=            -12.1089   ZZ=            -13.8623
   XY=             -2.3399   XZ=             -0.0036   YZ=              0.0827

 Normal termination of Gaussian 09 at Thu Aug 27 00:09:07 2020.
