 Gaussian 09, Revision D.01,
 Gaussian 09:  ES64L-G09RevD.01 24-Apr-2013

 --------------------
 #p B2PLYPD3/Def2QZVP
 --------------------

 --------
 methanol
 --------
 Symbolic Z-matrix:
 Charge =  0 Multiplicity = 1

                         Standard orientation:
 ---------------------------------------------------------------------
 Center     Atomic      Atomic             Coordinates (Angstroms)
 Number     Number       Type             X           Y           Z
 ---------------------------------------------------------------------
      1          6           0        0.662633    0.017998   -0.002045
      2          8           0       -0.735904   -0.139477   -0.001109
      3          1           0        1.022444    0.485956    0.883673
      4          1           0        0.959330    0.604864   -0.840038
      5          1           0        1.080462   -0.925627   -0.054641
      6          1           0       -1.150806    0.842634    0.032147
 ---------------------------------------------------------------------

 SCF Done:  E(RB2PLYPD3) =  -115.539477215     A.U. after   11 cycles
 E2(B2PLYPD3) =    -0.1486301457D+00 E(B2PLYPD3) =    -0.11568810736078D+03

 The electronic state is 1-A.
 Alpha  occ. eigenvalues --  -19.73161 -10.64089  -1.14680  -0.78661  -0.57622
 Alpha  occ. eigenvalues --   -0.52268  -0.50215  -0.40974  -0.34953
 Alpha virt. eigenvalues --    0.04096   0.08081   0.12540   0.12687   0.14904
 Alpha virt. eigenvalues --    0.17430   0.18025   0.29163   0.31195   0.33180
 Alpha virt. eigenvalues --    0.34423   0.39413   0.40541   0.41799   0.43994

 Mulliken charges:
               1
     1  C    0.080153
     2  O   -0.481422
     3  H    0.042869
     4  H    0.041877
     5  H    0.069939
     6  H    0.246584
 Sum of Mulliken charges =   0.00000

 Dipole moment (field-independent basis, Debye):
    X=              0.8719    Y=              1.5824    Z=              0.0508  Tot=              1.8074
 Quadrupole moment (field-independent basis, Debye-Ang):
   XX=            -13.0581   YY=            -11.9789   ZZ=            -13.8196
   XY=             -2.4032   XZ=             -0.0282   YZ=              0.0342

 Normal termination of Gaussian 09 at Wed Aug 26 22:49:50 2020.
