 Gaussian 09, Revision D.01,
 Gaussian 09:  ES64L-G09RevD.01 24-Apr-2013

 --------------------
 #p B2PLYPD3/Def2QZVP
 --------------------

 --------
 methanol
 --------
 Symbolic Z-matrix:
 Charge =  0 Multiplicity = 1

                         Standard orientation:
 ---------------------------------------------------------------------
 Center     Atomic      Atomic             Coordinates (Angstroms)
 Number     Number       Type             X           Y           Z
 ---------------------------------------------------------------------
      1          6           0        0.657259   -0.027066    0.007367
      2          8           0       -0.748258    0.101014   -0.003646
      3          1           0        1.001164   -0.629579   -0.890961
      4          1           0        1.056654   -0.459547    0.936625
      5          1           0        1.091546    1.054447   -0.098140
      6          1           0       -1.106855   -0.611035    0.037445
 ---------------------------------------------------------------------

 SCF Done:  E(RB2PLYPD3) =  -115.513744278     A.U. after   10 cycles
 E2(B2PLYPD3) =    -0.1449617291D+00 E(B2PLYPD3) =    -0.11565870600669D+03

 The electronic state is 1-A.
 Alpha  occ. eigenvalues --  -19.71055 -10.67289  -1.20783  -0.79766  -0.61027
 Alpha  occ. eigenvalues --   -0.52005  -0.49705  -0.40704  -0.35938
 Alpha virt. eigenvalues --    0.05372   0.08840   0.11996   0.12161   0.14712
 Alpha virt. eigenvalues --    0.17137   0.18020   0.28871   0.33058   0.33560
 Alpha virt. eigenvalues --    0.36658   0.38599   0.39953   0.40488   0.42765

 Mulliken charges:
               1
     1  C    0.057502
     2  O   -0.346752
     3  H    0.048021
     4  H    0.056204
     5  H    0.066609
     6  H    0.118416
 Sum of Mulliken charges =   0.00000

 Dipole moment (field-independent basis, Debye):
    X=              0.8475    Y=             -1.3734    Z=              0.1084  Tot=              1.6174
 Quadrupole moment (field-independent basis, Debye-Ang):
   XX=            -13.0695   YY=            -12.5075   ZZ=            -13.6428
   XY=              2.0185   XZ=             -0.0298   YZ=             -0.0811

 Normal termination of Gaussian 09 at Thu Aug 27 00:09:17 2020.
