 Gaussian 09, Revision D.01,
 Gaussian 09:  ES64L-G09RevD.01 24-Apr-2013

 --------------------
 #p B2PLYPD3/Def2QZVP
 --------------------

 --------
 methanol
 --------
 Symbolic Z-matrix:
 Charge =  0 Multiplicity = 1

                         Standard orientation:
 ---------------------------------------------------------------------
 Center     Atomic      Atomic             Coordinates (Angstroms)
 Number     Number       Type             X           Y           Z
 ---------------------------------------------------------------------
      1          6           0       -0.665888    0.008864    0.007912
      2          8           0        0.746650   -0.137759   -0.018938
      3          1           0       -1.065729    0.639463   -0.795698
      4          1           0       -0.944033    0.464113    0.857778
      5          1           0       -1.059323   -0.947474   -0.028237
      6          1           0        1.091216    0.892791    0.070192
 ---------------------------------------------------------------------

 SCF Done:  E(RB2PLYPD3) =  -115.529401075     A.U. after   11 cycles
 E2(B2PLYPD3) =    -0.1494416760D+00 E(B2PLYPD3) =    -0.11567884275108D+03

 The electronic state is 1-A.
 Alpha  occ. eigenvalues --  -19.73525 -10.63861  -1.14187  -0.78910  -0.57751
 Alpha  occ. eigenvalues --   -0.51863  -0.49561  -0.41754  -0.35011
 Alpha virt. eigenvalues --    0.03796   0.08030   0.12417   0.12674   0.15041
 Alpha virt. eigenvalues --    0.17373   0.17969   0.29017   0.30418   0.33181
 Alpha virt. eigenvalues --    0.34183   0.39172   0.40218   0.41152   0.44637

 Mulliken charges:
               1
     1  C    0.086450
     2  O   -0.482972
     3  H    0.036517
     4  H    0.044234
     5  H    0.069807
     6  H    0.245963
 Sum of Mulliken charges =   0.00000

 Dipole moment (field-independent basis, Debye):
    X=             -1.0180    Y=              1.6200    Z=              0.2347  Tot=              1.9276
 Quadrupole moment (field-independent basis, Debye-Ang):
   XX=            -13.3508   YY=            -11.7029   ZZ=            -13.9124
   XY=              2.2346   XZ=              0.1579   YZ=              0.1498

 Normal termination of Gaussian 09 at Wed Aug 26 09:57:39 2020.
