 Gaussian 09, Revision D.01,
 Gaussian 09:  ES64L-G09RevD.01 24-Apr-2013

 --------------------
 #p B2PLYPD3/Def2QZVP
 --------------------

 --------
 methanol
 --------
 Symbolic Z-matrix:
 Charge =  0 Multiplicity = 1

                         Standard orientation:
 ---------------------------------------------------------------------
 Center     Atomic      Atomic             Coordinates (Angstroms)
 Number     Number       Type             X           Y           Z
 ---------------------------------------------------------------------
      1          6           0        0.674651   -0.015506   -0.003400
      2          8           0       -0.757096    0.103149   -0.004585
      3          1           0        1.014370   -0.653716   -0.856781
      4          1           0        1.079710   -0.427205    0.954754
      5          1           0        1.027388    1.028004   -0.103395
      6          1           0       -1.112608   -0.679236    0.062508
 ---------------------------------------------------------------------

 SCF Done:  E(RB2PLYPD3) =  -115.541132367     A.U. after   10 cycles
 E2(B2PLYPD3) =    -0.1460910473D+00 E(B2PLYPD3) =    -0.11568722341405D+03

 The electronic state is 1-A.
 Alpha  occ. eigenvalues --  -19.71581 -10.66708  -1.18029  -0.79191  -0.59664
 Alpha  occ. eigenvalues --   -0.51421  -0.49493  -0.41499  -0.35672
 Alpha virt. eigenvalues --    0.05300   0.08558   0.12109   0.12228   0.14794
 Alpha virt. eigenvalues --    0.16939   0.18021   0.29004   0.32539   0.33371
 Alpha virt. eigenvalues --    0.37523   0.38497   0.39807   0.40141   0.42798

 Mulliken charges:
               1
     1  C    0.063766
     2  O   -0.414133
     3  H    0.050985
     4  H    0.051423
     5  H    0.075558
     6  H    0.172401
 Sum of Mulliken charges =   0.00000

 Dipole moment (field-independent basis, Debye):
    X=              0.9502    Y=             -1.4009    Z=              0.1175  Tot=              1.6968
 Quadrupole moment (field-independent basis, Debye-Ang):
   XX=            -13.1559   YY=            -12.2709   ZZ=            -13.7156
   XY=              2.0728   XZ=             -0.1166   YZ=             -0.0654

 Normal termination of Gaussian 09 at Thu Aug 27 00:13:47 2020.
