 Gaussian 09, Revision D.01,
 Gaussian 09:  ES64L-G09RevD.01 24-Apr-2013

 --------------------
 #p B2PLYPD3/Def2QZVP
 --------------------

 --------
 methanol
 --------
 Symbolic Z-matrix:
 Charge =  0 Multiplicity = 1

                         Standard orientation:
 ---------------------------------------------------------------------
 Center     Atomic      Atomic             Coordinates (Angstroms)
 Number     Number       Type             X           Y           Z
 ---------------------------------------------------------------------
      1          6           0       -0.663984    0.018160    0.012807
      2          8           0        0.740064   -0.142779   -0.013937
      3          1           0       -1.046147    0.599738   -0.832793
      4          1           0       -0.966868    0.495322    0.845800
      5          1           0       -1.083113   -0.934456   -0.024520
      6          1           0        1.159518    0.872668    0.046166
 ---------------------------------------------------------------------

 SCF Done:  E(RB2PLYPD3) =  -115.530037418     A.U. after   11 cycles
 E2(B2PLYPD3) =    -0.1493728716D+00 E(B2PLYPD3) =    -0.11567941028985D+03

 The electronic state is 1-A.
 Alpha  occ. eigenvalues --  -19.73517 -10.63875  -1.14077  -0.78815  -0.57472
 Alpha  occ. eigenvalues --   -0.52001  -0.49839  -0.41097  -0.34991
 Alpha virt. eigenvalues --    0.03737   0.07928   0.12576   0.12680   0.15016
 Alpha virt. eigenvalues --    0.17446   0.18043   0.28945   0.30255   0.33282
 Alpha virt. eigenvalues --    0.34313   0.39221   0.40060   0.41565   0.44541

 Mulliken charges:
               1
     1  C    0.084602
     2  O   -0.486266
     3  H    0.037900
     4  H    0.045660
     5  H    0.068613
     6  H    0.249491
 Sum of Mulliken charges =   0.00000

 Dipole moment (field-independent basis, Debye):
    X=             -0.8975    Y=              1.6194    Z=              0.1767  Tot=              1.8599
 Quadrupole moment (field-independent basis, Debye-Ang):
   XX=            -13.0244   YY=            -11.8924   ZZ=            -13.8936
   XY=              2.3821   XZ=              0.0922   YZ=              0.1328

 Normal termination of Gaussian 09 at Wed Aug 26 10:24:57 2020.
