 Gaussian 09, Revision D.01,
 Gaussian 09:  ES64L-G09RevD.01 24-Apr-2013

 --------------------
 #p B2PLYPD3/Def2QZVP
 --------------------

 --------
 methanol
 --------
 Symbolic Z-matrix:
 Charge =  0 Multiplicity = 1

                         Standard orientation:
 ---------------------------------------------------------------------
 Center     Atomic      Atomic             Coordinates (Angstroms)
 Number     Number       Type             X           Y           Z
 ---------------------------------------------------------------------
      1          6           0       -0.672631   -0.031970    0.008000
      2          8           0        0.740845    0.082486   -0.005426
      3          1           0       -0.951715   -0.563801    0.931666
      4          1           0       -1.054209   -0.572181   -0.917839
      5          1           0       -1.045875    1.147868   -0.002225
      6          1           0        1.160824   -0.479959   -0.016195
 ---------------------------------------------------------------------

 SCF Done:  E(RB2PLYPD3) =  -115.416764883     A.U. after   11 cycles
 E2(B2PLYPD3) =    -0.1439615504D+00 E(B2PLYPD3) =    -0.11556072643356D+03

 The electronic state is 1-A.
 Alpha  occ. eigenvalues --  -19.69190 -10.68486  -1.23319  -0.81792  -0.61662
 Alpha  occ. eigenvalues --   -0.52272  -0.49080  -0.39601  -0.36072
 Alpha virt. eigenvalues --    0.05275   0.09282   0.11366   0.12108   0.14597
 Alpha virt. eigenvalues --    0.16602   0.17610   0.28951   0.32428   0.33141
 Alpha virt. eigenvalues --    0.35025   0.38849   0.40238   0.40450   0.42242

 Mulliken charges:
               1
     1  C    0.053649
     2  O   -0.253724
     3  H    0.061994
     4  H    0.055389
     5  H    0.072345
     6  H    0.010347
 Sum of Mulliken charges =   0.00000

 Dipole moment (field-independent basis, Debye):
    X=             -0.7866    Y=             -1.2720    Z=              0.0079  Tot=              1.4956
 Quadrupole moment (field-independent basis, Debye-Ang):
   XX=            -12.9051   YY=            -12.5664   ZZ=            -13.5282
   XY=             -1.7967   XZ=              0.0332   YZ=             -0.0239

 Normal termination of Gaussian 09 at Wed Aug 26 14:15:02 2020.
