 Gaussian 09, Revision D.01,
 Gaussian 09:  ES64L-G09RevD.01 24-Apr-2013

 --------------------
 #p B2PLYPD3/Def2QZVP
 --------------------

 --------
 methanol
 --------
 Symbolic Z-matrix:
 Charge =  0 Multiplicity = 1

                         Standard orientation:
 ---------------------------------------------------------------------
 Center     Atomic      Atomic             Coordinates (Angstroms)
 Number     Number       Type             X           Y           Z
 ---------------------------------------------------------------------
      1          6           0        0.639625    0.002182    0.026757
      2          8           0       -0.730728    0.086066   -0.018596
      3          1           0        1.102929   -0.636349   -0.879071
      4          1           0        0.892171   -0.511204    0.926705
      5          1           0        0.975370    1.074354   -0.064917
      6          1           0       -0.962396   -0.628419    0.005512
 ---------------------------------------------------------------------

 SCF Done:  E(RB2PLYPD3) =  -115.474267250     A.U. after   11 cycles
 E2(B2PLYPD3) =    -0.1440042657D+00 E(B2PLYPD3) =    -0.11561827151560D+03

 The electronic state is 1-A.
 Alpha  occ. eigenvalues --  -19.70561 -10.66838  -1.24334  -0.80231  -0.62306
 Alpha  occ. eigenvalues --   -0.52616  -0.50455  -0.42254  -0.35301
 Alpha virt. eigenvalues --    0.05319   0.09295   0.11809   0.12107   0.15114
 Alpha virt. eigenvalues --    0.16947   0.17435   0.28638   0.32167   0.34352
 Alpha virt. eigenvalues --    0.36843   0.38323   0.40522   0.41841   0.43875

 Mulliken charges:
               1
     1  C    0.056345
     2  O   -0.274828
     3  H    0.022396
     4  H    0.050859
     5  H    0.075386
     6  H    0.069842
 Sum of Mulliken charges =   0.00000

 Dipole moment (field-independent basis, Debye):
    X=              0.8585    Y=             -1.2837    Z=              0.1819  Tot=              1.5550
 Quadrupole moment (field-independent basis, Debye-Ang):
   XX=            -13.8102   YY=            -12.0778   ZZ=            -13.6852
   XY=              1.7996   XZ=             -0.0827   YZ=             -0.1920

 Normal termination of Gaussian 09 at Wed Aug 26 19:58:39 2020.
