 Gaussian 09, Revision D.01,
 Gaussian 09:  ES64L-G09RevD.01 24-Apr-2013

 --------------------
 #p B2PLYPD3/Def2QZVP
 --------------------

 --------
 methanol
 --------
 Symbolic Z-matrix:
 Charge =  0 Multiplicity = 1

                         Standard orientation:
 ---------------------------------------------------------------------
 Center     Atomic      Atomic             Coordinates (Angstroms)
 Number     Number       Type             X           Y           Z
 ---------------------------------------------------------------------
      1          6           0       -0.669159   -0.018157    0.001216
      2          8           0        0.749636    0.104977   -0.002903
      3          1           0       -0.958962   -0.565634    0.938901
      4          1           0       -1.032417   -0.552369   -0.924005
      5          1           0       -1.105955    1.011581    0.014608
      6          1           0        1.115200   -0.624451   -0.013574
 ---------------------------------------------------------------------

 SCF Done:  E(RB2PLYPD3) =  -115.524697634     A.U. after   10 cycles
 E2(B2PLYPD3) =    -0.1451540937D+00 E(B2PLYPD3) =    -0.11566985172797D+03

 The electronic state is 1-A.
 Alpha  occ. eigenvalues --  -19.70918 -10.67046  -1.19632  -0.79683  -0.60138
 Alpha  occ. eigenvalues --   -0.51832  -0.50232  -0.40910  -0.35632
 Alpha virt. eigenvalues --    0.05381   0.08813   0.12017   0.12296   0.14470
 Alpha virt. eigenvalues --    0.17223   0.17800   0.28962   0.32662   0.33190
 Alpha virt. eigenvalues --    0.37298   0.39168   0.39686   0.40013   0.43313

 Mulliken charges:
               1
     1  C    0.065337
     2  O   -0.376387
     3  H    0.050021
     4  H    0.049266
     5  H    0.076168
     6  H    0.135595
 Sum of Mulliken charges =   0.00000

 Dipole moment (field-independent basis, Debye):
    X=             -0.9106    Y=             -1.3476    Z=             -0.0136  Tot=              1.6265
 Quadrupole moment (field-independent basis, Debye-Ang):
   XX=            -13.0934   YY=            -12.4430   ZZ=            -13.6109
   XY=             -2.1714   XZ=              0.0365   YZ=              0.0160

 Normal termination of Gaussian 09 at Thu Aug 27 00:13:49 2020.
