 Gaussian 09, Revision D.01,
 Gaussian 09:  ES64L-G09RevD.01 24-Apr-2013

 --------------------
 #p B2PLYPD3/Def2QZVP
 --------------------

 --------
 methanol
 --------
 Symbolic Z-matrix:
 Charge =  0 Multiplicity = 1

                         Standard orientation:
 ---------------------------------------------------------------------
 Center     Atomic      Atomic             Coordinates (Angstroms)
 Number     Number       Type             X           Y           Z
 ---------------------------------------------------------------------
      1          6           0        0.671898    0.013977    0.002524
      2          8           0       -0.738498   -0.138033   -0.004659
      3          1           0        1.034681    0.466076    0.896184
      4          1           0        0.985563    0.624219   -0.845621
      5          1           0        1.055267   -0.910789   -0.073485
      6          1           0       -1.198918    0.840895    0.045044
 ---------------------------------------------------------------------

 SCF Done:  E(RB2PLYPD3) =  -115.534412529     A.U. after   11 cycles
 E2(B2PLYPD3) =    -0.1490519768D+00 E(B2PLYPD3) =    -0.11568346450537D+03

 The electronic state is 1-A.
 Alpha  occ. eigenvalues --  -19.73192 -10.64162  -1.13920  -0.78812  -0.57186
 Alpha  occ. eigenvalues --   -0.51734  -0.50399  -0.40831  -0.34877
 Alpha virt. eigenvalues --    0.03974   0.07956   0.12517   0.12759   0.14873
 Alpha virt. eigenvalues --    0.17230   0.18117   0.29111   0.30836   0.33235
 Alpha virt. eigenvalues --    0.34025   0.38853   0.40894   0.41447   0.43721

 Mulliken charges:
               1
     1  C    0.078963
     2  O   -0.490743
     3  H    0.046199
     4  H    0.041566
     5  H    0.074475
     6  H    0.249539
 Sum of Mulliken charges =   0.00000

 Dipole moment (field-independent basis, Debye):
    X=              0.8457    Y=              1.5515    Z=              0.0956  Tot=              1.7696
 Quadrupole moment (field-independent basis, Debye-Ang):
   XX=            -12.8665   YY=            -12.0258   ZZ=            -13.8359
   XY=             -2.4779   XZ=             -0.0583   YZ=              0.0829

 Normal termination of Gaussian 09 at Thu Aug 27 00:13:57 2020.
