 Gaussian 09, Revision D.01,
 Gaussian 09:  ES64L-G09RevD.01 24-Apr-2013

 --------------------
 #p B2PLYPD3/Def2QZVP
 --------------------

 --------
 methanol
 --------
 Symbolic Z-matrix:
 Charge =  0 Multiplicity = 1

                         Standard orientation:
 ---------------------------------------------------------------------
 Center     Atomic      Atomic             Coordinates (Angstroms)
 Number     Number       Type             X           Y           Z
 ---------------------------------------------------------------------
      1          6           0        0.662674   -0.024687    0.007657
      2          8           0       -0.740875    0.104456   -0.005828
      3          1           0        0.997292   -0.610078   -0.893346
      4          1           0        1.011261   -0.503699    0.913291
      5          1           0        1.071785    1.052378   -0.054242
      6          1           0       -1.129384   -0.626131    0.034976
 ---------------------------------------------------------------------

 SCF Done:  E(RB2PLYPD3) =  -115.529197779     A.U. after   10 cycles
 E2(B2PLYPD3) =    -0.1451281296D+00 E(B2PLYPD3) =    -0.11567432590826D+03

 The electronic state is 1-A.
 Alpha  occ. eigenvalues --  -19.71052 -10.66739  -1.19595  -0.79681  -0.60662
 Alpha  occ. eigenvalues --   -0.52121  -0.49757  -0.40720  -0.35629
 Alpha virt. eigenvalues --    0.05359   0.08833   0.12050   0.12251   0.14811
 Alpha virt. eigenvalues --    0.17033   0.17828   0.29047   0.33083   0.33645
 Alpha virt. eigenvalues --    0.37281   0.38559   0.39919   0.40882   0.43009

 Mulliken charges:
               1
     1  C    0.064499
     2  O   -0.381879
     3  H    0.047035
     4  H    0.053992
     5  H    0.069955
     6  H    0.146398
 Sum of Mulliken charges =   0.00000

 Dipole moment (field-independent basis, Debye):
    X=              0.8138    Y=             -1.3989    Z=              0.1166  Tot=              1.6226
 Quadrupole moment (field-independent basis, Debye-Ang):
   XX=            -13.0491   YY=            -12.3960   ZZ=            -13.6594
   XY=              2.0682   XZ=             -0.0479   YZ=             -0.0870

 Normal termination of Gaussian 09 at Wed Aug 26 21:48:30 2020.
