 Gaussian 09, Revision D.01,
 Gaussian 09:  ES64L-G09RevD.01 24-Apr-2013

 --------------------
 #p B2PLYPD3/Def2QZVP
 --------------------

 --------
 methanol
 --------
 Symbolic Z-matrix:
 Charge =  0 Multiplicity = 1

                         Standard orientation:
 ---------------------------------------------------------------------
 Center     Atomic      Atomic             Coordinates (Angstroms)
 Number     Number       Type             X           Y           Z
 ---------------------------------------------------------------------
      1          6           0       -0.672444   -0.021902    0.005801
      2          8           0        0.754694    0.109796   -0.005959
      3          1           0       -1.038862   -0.492174    0.915831
      4          1           0       -1.018466   -0.625246   -0.877681
      5          1           0       -1.106613    1.027261   -0.064503
      6          1           0        1.161054   -0.656801    0.039222
 ---------------------------------------------------------------------

 SCF Done:  E(RB2PLYPD3) =  -115.541993315     A.U. after   10 cycles
 E2(B2PLYPD3) =    -0.1460585990D+00 E(B2PLYPD3) =    -0.11568805191425D+03

 The electronic state is 1-A.
 Alpha  occ. eigenvalues --  -19.71579 -10.66807  -1.17718  -0.79229  -0.59774
 Alpha  occ. eigenvalues --   -0.51487  -0.49570  -0.40848  -0.35630
 Alpha virt. eigenvalues --    0.05307   0.08463   0.12152   0.12279   0.14746
 Alpha virt. eigenvalues --    0.17171   0.17930   0.29102   0.32710   0.33332
 Alpha virt. eigenvalues --    0.36956   0.38462   0.39457   0.40540   0.42880

 Mulliken charges:
               1
     1  C    0.068425
     2  O   -0.423503
     3  H    0.054786
     4  H    0.048554
     5  H    0.072556
     6  H    0.179183
 Sum of Mulliken charges =   0.00000

 Dipole moment (field-independent basis, Debye):
    X=             -0.8825    Y=             -1.4259    Z=              0.1159  Tot=              1.6809
 Quadrupole moment (field-independent basis, Debye-Ang):
   XX=            -12.8698   YY=            -12.4059   ZZ=            -13.7548
   XY=             -2.1756   XZ=              0.0649   YZ=             -0.0808

 Normal termination of Gaussian 09 at Thu Aug 27 00:10:29 2020.
