 Gaussian 09, Revision D.01,
 Gaussian 09:  ES64L-G09RevD.01 24-Apr-2013

 --------------------
 #p B2PLYPD3/Def2QZVP
 --------------------

 --------
 methanol
 --------
 Symbolic Z-matrix:
 Charge =  0 Multiplicity = 1

                         Standard orientation:
 ---------------------------------------------------------------------
 Center     Atomic      Atomic             Coordinates (Angstroms)
 Number     Number       Type             X           Y           Z
 ---------------------------------------------------------------------
      1          6           0       -0.638561   -0.040209    0.003236
      2          8           0        0.755294    0.125803   -0.013157
      3          1           0       -0.953830   -0.550481    0.846710
      4          1           0       -1.099899   -0.564997   -0.825288
      5          1           0       -1.199538    1.082078    0.033614
      6          1           0        1.042281   -0.731774    0.030800
 ---------------------------------------------------------------------

 SCF Done:  E(RB2PLYPD3) =  -115.531756950     A.U. after   11 cycles
 E2(B2PLYPD3) =    -0.1469676532D+00 E(B2PLYPD3) =    -0.11567872460348D+03

 The electronic state is 1-A.
 Alpha  occ. eigenvalues --  -19.72903 -10.66588  -1.18863  -0.78532  -0.60568
 Alpha  occ. eigenvalues --   -0.52539  -0.49179  -0.40535  -0.36015
 Alpha virt. eigenvalues --    0.04920   0.08242   0.11578   0.12569   0.14959
 Alpha virt. eigenvalues --    0.17904   0.18013   0.28939   0.32808   0.33476
 Alpha virt. eigenvalues --    0.34353   0.36823   0.40398   0.41269   0.44191

 Mulliken charges:
               1
     1  C    0.063496
     2  O   -0.409303
     3  H    0.053308
     4  H    0.049678
     5  H    0.043289
     6  H    0.199534
 Sum of Mulliken charges =   0.00000

 Dipole moment (field-independent basis, Debye):
    X=             -0.8890    Y=             -1.6703    Z=              0.1244  Tot=              1.8962
 Quadrupole moment (field-independent basis, Debye-Ang):
   XX=            -13.3401   YY=            -12.2759   ZZ=            -13.9343
   XY=             -1.8954   XZ=              0.1521   YZ=             -0.0818

 Normal termination of Gaussian 09 at Wed Aug 26 22:23:09 2020.
