 Gaussian 09, Revision D.01,
 Gaussian 09:  ES64L-G09RevD.01 24-Apr-2013

 --------------------
 #p B2PLYPD3/Def2QZVP
 --------------------

 --------
 methanol
 --------
 Symbolic Z-matrix:
 Charge =  0 Multiplicity = 1

                         Standard orientation:
 ---------------------------------------------------------------------
 Center     Atomic      Atomic             Coordinates (Angstroms)
 Number     Number       Type             X           Y           Z
 ---------------------------------------------------------------------
      1          6           0        0.655620   -0.024891    0.001938
      2          8           0       -0.745888    0.109614    0.000027
      3          1           0        1.015352   -0.564006   -0.894173
      4          1           0        1.056873   -0.495970    0.908863
      5          1           0        1.053338    1.030932   -0.041525
      6          1           0       -1.092180   -0.698522    0.014994
 ---------------------------------------------------------------------

 SCF Done:  E(RB2PLYPD3) =  -115.545467512     A.U. after   10 cycles
 E2(B2PLYPD3) =    -0.1460140168D+00 E(B2PLYPD3) =    -0.11569148152877D+03

 The electronic state is 1-A.
 Alpha  occ. eigenvalues --  -19.71966 -10.66259  -1.18625  -0.78962  -0.60103
 Alpha  occ. eigenvalues --   -0.52081  -0.49705  -0.41091  -0.35714
 Alpha virt. eigenvalues --    0.05246   0.08598   0.12197   0.12284   0.14889
 Alpha virt. eigenvalues --    0.17163   0.18152   0.28970   0.33325   0.33775
 Alpha virt. eigenvalues --    0.37372   0.37943   0.40100   0.40817   0.43302

 Mulliken charges:
               1
     1  C    0.060918
     2  O   -0.411041
     3  H    0.048514
     4  H    0.051120
     5  H    0.065660
     6  H    0.184829
 Sum of Mulliken charges =   0.00000

 Dipole moment (field-independent basis, Debye):
    X=              0.8629    Y=             -1.4532    Z=              0.0315  Tot=              1.6904
 Quadrupole moment (field-independent basis, Debye-Ang):
   XX=            -13.1980   YY=            -12.3178   ZZ=            -13.7038
   XY=              2.0613   XZ=              0.0049   YZ=             -0.0283

 Normal termination of Gaussian 09 at Wed Aug 26 23:59:23 2020.
