 Gaussian 09, Revision D.01,
 Gaussian 09:  ES64L-G09RevD.01 24-Apr-2013

 --------------------
 #p B2PLYPD3/Def2QZVP
 --------------------

 --------
 methanol
 --------
 Symbolic Z-matrix:
 Charge =  0 Multiplicity = 1

                         Standard orientation:
 ---------------------------------------------------------------------
 Center     Atomic      Atomic             Coordinates (Angstroms)
 Number     Number       Type             X           Y           Z
 ---------------------------------------------------------------------
      1          6           0       -0.684268   -0.034125    0.015313
      2          8           0        0.762439    0.049700   -0.029917
      3          1           0       -0.941839   -0.118848    1.081890
      4          1           0       -1.073071   -0.981192   -0.649482
      5          1           0       -1.114635    1.172441   -0.395939
      6          1           0        1.135642   -0.265250    0.110991
 ---------------------------------------------------------------------

 SCF Done:  E(RB2PLYPD3) =  -114.794696960     A.U. after   12 cycles
 E2(B2PLYPD3) =    -0.1440407288D+00 E(B2PLYPD3) =    -0.11493873768887D+03

 The electronic state is 1-A.
 Alpha  occ. eigenvalues --  -19.67764 -10.71599  -1.31630  -0.84956  -0.62442
 Alpha  occ. eigenvalues --   -0.51821  -0.48402  -0.38495  -0.36973
 Alpha virt. eigenvalues --    0.04349   0.09832   0.10309   0.11537   0.13880
 Alpha virt. eigenvalues --    0.16285   0.17605   0.28387   0.30319   0.30602
 Alpha virt. eigenvalues --    0.32621   0.35703   0.39834   0.41104   0.42192

 Mulliken charges:
               1
     1  C    0.060791
     2  O   -0.083510
     3  H    0.075824
     4  H    0.066252
     5  H    0.072397
     6  H   -0.191754
 Sum of Mulliken charges =   0.00000

 Dipole moment (field-independent basis, Debye):
    X=             -1.0409    Y=             -0.9369    Z=              0.5350  Tot=              1.4991
 Quadrupole moment (field-independent basis, Debye-Ang):
   XX=            -12.8131   YY=            -12.6213   ZZ=            -13.3136
   XY=             -1.3515   XZ=              0.5667   YZ=             -0.0606

 Normal termination of Gaussian 09 at Wed Aug 26 22:50:12 2020.
