 Gaussian 09, Revision D.01,
 Gaussian 09:  ES64L-G09RevD.01 24-Apr-2013

 --------------------
 #p B2PLYPD3/Def2QZVP
 --------------------

 --------
 methanol
 --------
 Symbolic Z-matrix:
 Charge =  0 Multiplicity = 1

                         Standard orientation:
 ---------------------------------------------------------------------
 Center     Atomic      Atomic             Coordinates (Angstroms)
 Number     Number       Type             X           Y           Z
 ---------------------------------------------------------------------
      1          6           0        0.661718    0.020172   -0.013992
      2          8           0       -0.751113   -0.161847   -0.008581
      3          1           0        1.042669    0.465393    0.829579
      4          1           0        0.883275    0.699254   -0.763751
      5          1           0        1.277963   -0.877877   -0.034901
      6          1           0       -1.165309    0.886978    0.121670
 ---------------------------------------------------------------------

 SCF Done:  E(RB2PLYPD3) =  -115.516798526     A.U. after   11 cycles
 E2(B2PLYPD3) =    -0.1503772232D+00 E(B2PLYPD3) =    -0.11566717574960D+03

 The electronic state is 1-A.
 Alpha  occ. eigenvalues --  -19.73947 -10.64088  -1.13407  -0.78933  -0.56319
 Alpha  occ. eigenvalues --   -0.52732  -0.49225  -0.40621  -0.34899
 Alpha virt. eigenvalues --    0.03160   0.07534   0.12549   0.12839   0.14602
 Alpha virt. eigenvalues --    0.17516   0.19032   0.27953   0.29885   0.32603
 Alpha virt. eigenvalues --    0.33667   0.39030   0.40000   0.41926   0.43167

 Mulliken charges:
               1
     1  C    0.092786
     2  O   -0.489857
     3  H    0.035495
     4  H    0.040159
     5  H    0.065493
     6  H    0.255923
 Sum of Mulliken charges =   0.00000

 Dipole moment (field-independent basis, Debye):
    X=              0.9565    Y=              1.7254    Z=              0.2518  Tot=              1.9887
 Quadrupole moment (field-independent basis, Debye-Ang):
   XX=            -12.8266   YY=            -11.9522   ZZ=            -14.0702
   XY=             -2.5418   XZ=             -0.0739   YZ=              0.0785

 Normal termination of Gaussian 09 at Wed Aug 26 23:03:07 2020.
