 Gaussian 09, Revision D.01,
 Gaussian 09:  ES64L-G09RevD.01 24-Apr-2013

 --------------------
 #p B2PLYPD3/Def2QZVP
 --------------------

 --------
 methanol
 --------
 Symbolic Z-matrix:
 Charge =  0 Multiplicity = 1

                         Standard orientation:
 ---------------------------------------------------------------------
 Center     Atomic      Atomic             Coordinates (Angstroms)
 Number     Number       Type             X           Y           Z
 ---------------------------------------------------------------------
      1          6           0        0.677136   -0.017652   -0.000792
      2          8           0       -0.749167    0.129736   -0.004830
      3          1           0        1.010942   -0.578692   -0.869567
      4          1           0        1.055384   -0.495405    0.884249
      5          1           0        1.041473    0.957497   -0.020764
      6          1           0       -1.177284   -0.815376    0.049474
 ---------------------------------------------------------------------

 SCF Done:  E(RB2PLYPD3) =  -115.544572880     A.U. after   10 cycles
 E2(B2PLYPD3) =    -0.1486641118D+00 E(B2PLYPD3) =    -0.11569323699157D+03

 The electronic state is 1-A.
 Alpha  occ. eigenvalues --  -19.73014 -10.64830  -1.14137  -0.78723  -0.57522
 Alpha  occ. eigenvalues --   -0.51675  -0.49586  -0.41151  -0.35190
 Alpha virt. eigenvalues --    0.04446   0.07985   0.12464   0.12544   0.14885
 Alpha virt. eigenvalues --    0.17083   0.18172   0.29105   0.32404   0.33225
 Alpha virt. eigenvalues --    0.33677   0.38922   0.39992   0.41233   0.43856

 Mulliken charges:
               1
     1  C    0.074501
     2  O   -0.486176
     3  H    0.048424
     4  H    0.047958
     5  H    0.073840
     6  H    0.241454
 Sum of Mulliken charges =   0.00000

 Dipole moment (field-independent basis, Debye):
    X=              0.9107    Y=             -1.5431    Z=              0.1032  Tot=              1.7947
 Quadrupole moment (field-independent basis, Debye-Ang):
   XX=            -12.9528   YY=            -12.0655   ZZ=            -13.8227
   XY=              2.3409   XZ=             -0.0656   YZ=             -0.0548

 Normal termination of Gaussian 09 at Wed Aug 26 14:31:45 2020.
