 Gaussian 09, Revision D.01,
 Gaussian 09:  ES64L-G09RevD.01 24-Apr-2013

 --------------------
 #p B2PLYPD3/Def2QZVP
 --------------------

 --------
 methanol
 --------
 Symbolic Z-matrix:
 Charge =  0 Multiplicity = 1

                         Standard orientation:
 ---------------------------------------------------------------------
 Center     Atomic      Atomic             Coordinates (Angstroms)
 Number     Number       Type             X           Y           Z
 ---------------------------------------------------------------------
      1          6           0        0.668222   -0.027260    0.048283
      2          8           0       -0.746751   -0.052437   -0.056284
      3          1           0        0.953650   -0.119177    1.025153
      4          1           0        1.180717    1.079795   -0.519739
      5          1           0        0.949666   -0.864114   -0.618550
      6          1           0       -1.119359    0.486553    0.273710
 ---------------------------------------------------------------------

 SCF Done:  E(RB2PLYPD3) =  -115.439334467     A.U. after   11 cycles
 E2(B2PLYPD3) =    -0.1446964928D+00 E(B2PLYPD3) =    -0.11558403095992D+03

 The electronic state is 1-A.
 Alpha  occ. eigenvalues --  -19.70227 -10.68173  -1.22708  -0.81758  -0.61796
 Alpha  occ. eigenvalues --   -0.52122  -0.49553  -0.40903  -0.35402
 Alpha virt. eigenvalues --    0.05201   0.08785   0.11192   0.12094   0.14659
 Alpha virt. eigenvalues --    0.16579   0.18098   0.28526   0.30607   0.32592
 Alpha virt. eigenvalues --    0.34671   0.39096   0.40389   0.41794   0.43439

 Mulliken charges:
               1
     1  C    0.050055
     2  O   -0.273606
     3  H    0.073758
     4  H    0.013258
     5  H    0.088378
     6  H    0.048156
 Sum of Mulliken charges =   0.00000

 Dipole moment (field-independent basis, Debye):
    X=              0.7494    Y=              0.7634    Z=              0.8559  Tot=              1.3700
 Quadrupole moment (field-independent basis, Debye-Ang):
   XX=            -13.2328   YY=            -13.0225   ZZ=            -13.1197
   XY=             -1.8406   XZ=             -0.8654   YZ=              0.5391

 Normal termination of Gaussian 09 at Wed Aug 26 22:37:05 2020.
