 Gaussian 09, Revision D.01,
 Gaussian 09:  ES64L-G09RevD.01 24-Apr-2013

 --------------------
 #p B2PLYPD3/Def2QZVP
 --------------------

 --------
 methanol
 --------
 Symbolic Z-matrix:
 Charge =  0 Multiplicity = 1

                         Standard orientation:
 ---------------------------------------------------------------------
 Center     Atomic      Atomic             Coordinates (Angstroms)
 Number     Number       Type             X           Y           Z
 ---------------------------------------------------------------------
      1          6           0       -0.657318   -0.013451   -0.003551
      2          8           0        0.745587    0.103232   -0.002417
      3          1           0       -0.994104   -0.572419    0.919524
      4          1           0       -1.053983   -0.527599   -0.914214
      5          1           0       -1.048930    1.023847    0.040973
      6          1           0        1.076230   -0.668980   -0.005641
 ---------------------------------------------------------------------

 SCF Done:  E(RB2PLYPD3) =  -115.535067741     A.U. after   10 cycles
 E2(B2PLYPD3) =    -0.1454056633D+00 E(B2PLYPD3) =    -0.11568047340400D+03

 The electronic state is 1-A.
 Alpha  occ. eigenvalues --  -19.71475 -10.66646  -1.19707  -0.79305  -0.60405
 Alpha  occ. eigenvalues --   -0.51726  -0.50242  -0.41405  -0.35556
 Alpha virt. eigenvalues --    0.05313   0.08788   0.12133   0.12239   0.14808
 Alpha virt. eigenvalues --    0.17142   0.17918   0.28955   0.33025   0.33690
 Alpha virt. eigenvalues --    0.37446   0.38802   0.40012   0.40238   0.43219

 Mulliken charges:
               1
     1  C    0.061691
     2  O   -0.383718
     3  H    0.043764
     4  H    0.048218
     5  H    0.073131
     6  H    0.156914
 Sum of Mulliken charges =   0.00000

 Dipole moment (field-independent basis, Debye):
    X=             -0.8801    Y=             -1.3801    Z=             -0.0123  Tot=              1.6369
 Quadrupole moment (field-independent basis, Debye-Ang):
   XX=            -13.2817   YY=            -12.2966   ZZ=            -13.6971
   XY=             -2.0683   XZ=              0.0514   YZ=              0.0369

 Normal termination of Gaussian 09 at Thu Aug 27 00:00:05 2020.
