 Gaussian 09, Revision D.01,
 Gaussian 09:  ES64L-G09RevD.01 24-Apr-2013

 --------------------
 #p B2PLYPD3/Def2QZVP
 --------------------

 --------
 methanol
 --------
 Symbolic Z-matrix:
 Charge =  0 Multiplicity = 1

                         Standard orientation:
 ---------------------------------------------------------------------
 Center     Atomic      Atomic             Coordinates (Angstroms)
 Number     Number       Type             X           Y           Z
 ---------------------------------------------------------------------
      1          6           0        0.668290   -0.010591    0.005025
      2          8           0       -0.752895    0.110216   -0.016020
      3          1           0        1.019878   -0.692400   -0.843817
      4          1           0        1.019263   -0.391242    0.966805
      5          1           0        1.066716    0.973186   -0.124479
      6          1           0       -1.092437   -0.707726    0.099498
 ---------------------------------------------------------------------

 SCF Done:  E(RB2PLYPD3) =  -115.547319210     A.U. after   10 cycles
 E2(B2PLYPD3) =    -0.1463205594D+00 E(B2PLYPD3) =    -0.11569363976928D+03

 The electronic state is 1-A.
 Alpha  occ. eigenvalues --  -19.71916 -10.66144  -1.17596  -0.79104  -0.59254
 Alpha  occ. eigenvalues --   -0.51555  -0.50291  -0.41525  -0.35471
 Alpha virt. eigenvalues --    0.05202   0.08540   0.12086   0.12477   0.14676
 Alpha virt. eigenvalues --    0.17251   0.17993   0.29035   0.32912   0.33213
 Alpha virt. eigenvalues --    0.36565   0.38935   0.39953   0.40648   0.43905

 Mulliken charges:
               1
     1  C    0.068222
     2  O   -0.430381
     3  H    0.042909
     4  H    0.050169
     5  H    0.075745
     6  H    0.193335
 Sum of Mulliken charges =   0.00000

 Dipole moment (field-independent basis, Debye):
    X=              0.9572    Y=             -1.3922    Z=              0.2472  Tot=              1.7075
 Quadrupole moment (field-independent basis, Debye-Ang):
   XX=            -13.2339   YY=            -12.2629   ZZ=            -13.6755
   XY=              2.1850   XZ=             -0.2344   YZ=             -0.1668

 Normal termination of Gaussian 09 at Thu Aug 27 00:03:39 2020.
