 Gaussian 09, Revision D.01,
 Gaussian 09:  ES64L-G09RevD.01 24-Apr-2013

 --------------------
 #p B2PLYPD3/Def2QZVP
 --------------------

 --------
 methanol
 --------
 Symbolic Z-matrix:
 Charge =  0 Multiplicity = 1

                         Standard orientation:
 ---------------------------------------------------------------------
 Center     Atomic      Atomic             Coordinates (Angstroms)
 Number     Number       Type             X           Y           Z
 ---------------------------------------------------------------------
      1          6           0       -0.671603   -0.001810    0.003821
      2          8           0        0.752182    0.103248   -0.023391
      3          1           0       -1.004357   -0.328895    0.999011
      4          1           0       -0.979631   -0.785941   -0.805350
      5          1           0       -1.070089    0.958845   -0.188163
      6          1           0        1.066237   -0.659135    0.158704
 ---------------------------------------------------------------------

 SCF Done:  E(RB2PLYPD3) =  -115.533689065     A.U. after   10 cycles
 E2(B2PLYPD3) =    -0.1455740446D+00 E(B2PLYPD3) =    -0.11567926311009D+03

 The electronic state is 1-A.
 Alpha  occ. eigenvalues --  -19.71272 -10.66481  -1.18903  -0.79550  -0.59687
 Alpha  occ. eigenvalues --   -0.51524  -0.50783  -0.41741  -0.35365
 Alpha virt. eigenvalues --    0.05273   0.08801   0.11892   0.12462   0.14563
 Alpha virt. eigenvalues --    0.17219   0.17746   0.29006   0.32410   0.33103
 Alpha virt. eigenvalues --    0.36786   0.39488   0.39674   0.40912   0.43918

 Mulliken charges:
               1
     1  C    0.069554
     2  O   -0.399145
     3  H    0.048389
     4  H    0.040163
     5  H    0.081156
     6  H    0.159882
 Sum of Mulliken charges =   0.00000

 Dipole moment (field-independent basis, Debye):
    X=             -0.9977    Y=             -1.2987    Z=              0.3821  Tot=              1.6817
 Quadrupole moment (field-independent basis, Debye-Ang):
   XX=            -13.3660   YY=            -12.2760   ZZ=            -13.5967
   XY=             -2.1537   XZ=              0.3761   YZ=             -0.2692

 Normal termination of Gaussian 09 at Wed Aug 26 16:39:55 2020.
