 Gaussian 09, Revision D.01,
 Gaussian 09:  ES64L-G09RevD.01 24-Apr-2013

 --------------------
 #p B2PLYPD3/Def2QZVP
 --------------------

 --------
 methanol
 --------
 Symbolic Z-matrix:
 Charge =  0 Multiplicity = 1

                         Standard orientation:
 ---------------------------------------------------------------------
 Center     Atomic      Atomic             Coordinates (Angstroms)
 Number     Number       Type             X           Y           Z
 ---------------------------------------------------------------------
      1          6           0        0.688099    0.026282   -0.008153
      2          8           0       -0.745864   -0.181150    0.001054
      3          1           0        0.922381    0.529110    0.821088
      4          1           0        1.025252    0.421045   -0.801640
      5          1           0        1.008414   -0.812546    0.060199
      6          1           0       -1.117731    1.153901   -0.039164
 ---------------------------------------------------------------------

 SCF Done:  E(RB2PLYPD3) =  -115.413919167     A.U. after   12 cycles
 E2(B2PLYPD3) =    -0.1556957547D+00 E(B2PLYPD3) =    -0.11556961492146D+03

 The electronic state is 1-A.
 Alpha  occ. eigenvalues --  -19.74972 -10.60598  -1.11031  -0.81263  -0.56232
 Alpha  occ. eigenvalues --   -0.54500  -0.47708  -0.40054  -0.35401
 Alpha virt. eigenvalues --   -0.00826   0.07676   0.12640   0.12766   0.14405
 Alpha virt. eigenvalues --    0.17338   0.18338   0.22720   0.29380   0.32676
 Alpha virt. eigenvalues --    0.33828   0.38807   0.40918   0.43900   0.44978

 Mulliken charges:
               1
     1  C    0.092220
     2  O   -0.492719
     3  H    0.045167
     4  H    0.045111
     5  H    0.081976
     6  H    0.228244
 Sum of Mulliken charges =   0.00000

 Dipole moment (field-independent basis, Debye):
    X=              1.3450    Y=              1.6777    Z=             -0.0623  Tot=              2.1512
 Quadrupole moment (field-independent basis, Debye-Ang):
   XX=            -13.4691   YY=            -11.2416   ZZ=            -13.6767
   XY=             -2.2974   XZ=             -0.0530   YZ=             -0.0787

 Normal termination of Gaussian 09 at Wed Aug 26 22:23:40 2020.
