 Gaussian 09, Revision D.01,
 Gaussian 09:  ES64L-G09RevD.01 24-Apr-2013

 --------------------
 #p B2PLYPD3/Def2QZVP
 --------------------

 --------
 methanol
 --------
 Symbolic Z-matrix:
 Charge =  0 Multiplicity = 1

                         Standard orientation:
 ---------------------------------------------------------------------
 Center     Atomic      Atomic             Coordinates (Angstroms)
 Number     Number       Type             X           Y           Z
 ---------------------------------------------------------------------
      1          6           0        0.668685    0.027484    0.001531
      2          8           0       -0.755564   -0.144221   -0.005855
      3          1           0        1.147629    0.374103    0.877590
      4          1           0        0.926558    0.744454   -0.772792
      5          1           0        1.200264   -0.926257   -0.170345
      6          1           0       -1.242045    0.796568    0.103202
 ---------------------------------------------------------------------

 SCF Done:  E(RB2PLYPD3) =  -115.536373065     A.U. after   11 cycles
 E2(B2PLYPD3) =    -0.1493919669D+00 E(B2PLYPD3) =    -0.11568576503151D+03

 The electronic state is 1-A.
 Alpha  occ. eigenvalues --  -19.73547 -10.65409  -1.13762  -0.78491  -0.57159
 Alpha  occ. eigenvalues --   -0.51772  -0.49048  -0.40373  -0.35161
 Alpha virt. eigenvalues --    0.04133   0.07480   0.12474   0.12708   0.14728
 Alpha virt. eigenvalues --    0.17619   0.18393   0.29129   0.30816   0.32390
 Alpha virt. eigenvalues --    0.33881   0.38520   0.39520   0.41250   0.43818

 Mulliken charges:
               1
     1  C    0.077071
     2  O   -0.486612
     3  H    0.049351
     4  H    0.042229
     5  H    0.066465
     6  H    0.251496
 Sum of Mulliken charges =   0.00000

 Dipole moment (field-independent basis, Debye):
    X=              0.8163    Y=              1.6003    Z=              0.2079  Tot=              1.8084
 Quadrupole moment (field-independent basis, Debye-Ang):
   XX=            -12.4387   YY=            -12.3051   ZZ=            -14.0606
   XY=             -2.5368   XZ=             -0.0782   YZ=              0.1066

 Normal termination of Gaussian 09 at Wed Aug 26 19:10:00 2020.
