 Gaussian 09, Revision D.01,
 Gaussian 09:  ES64L-G09RevD.01 24-Apr-2013

 --------------------
 #p B2PLYPD3/Def2QZVP
 --------------------

 --------
 methanol
 --------
 Symbolic Z-matrix:
 Charge =  0 Multiplicity = 1

                         Standard orientation:
 ---------------------------------------------------------------------
 Center     Atomic      Atomic             Coordinates (Angstroms)
 Number     Number       Type             X           Y           Z
 ---------------------------------------------------------------------
      1          6           0        0.664145    0.032657   -0.003163
      2          8           0       -0.747454   -0.150690   -0.006857
      3          1           0        1.017235    0.443611    0.876877
      4          1           0        1.011958    0.606554   -0.798925
      5          1           0        1.138741   -0.927322   -0.050497
      6          1           0       -1.173167    0.886736    0.046379
 ---------------------------------------------------------------------

 SCF Done:  E(RB2PLYPD3) =  -115.527338369     A.U. after   11 cycles
 E2(B2PLYPD3) =    -0.1500118339D+00 E(B2PLYPD3) =    -0.11567735020312D+03

 The electronic state is 1-A.
 Alpha  occ. eigenvalues --  -19.73844 -10.63975  -1.13513  -0.78822  -0.56531
 Alpha  occ. eigenvalues --   -0.52535  -0.49372  -0.40660  -0.35336
 Alpha virt. eigenvalues --    0.03508   0.07733   0.12550   0.12750   0.14824
 Alpha virt. eigenvalues --    0.17620   0.18342   0.28399   0.29782   0.33569
 Alpha virt. eigenvalues --    0.33908   0.39108   0.40004   0.42353   0.43727

 Mulliken charges:
               1
     1  C    0.084448
     2  O   -0.490104
     3  H    0.047018
     4  H    0.045996
     5  H    0.060710
     6  H    0.251932
 Sum of Mulliken charges =   0.00000

 Dipole moment (field-independent basis, Debye):
    X=              0.9331    Y=              1.6678    Z=              0.0990  Tot=              1.9137
 Quadrupole moment (field-independent basis, Debye-Ang):
   XX=            -12.9081   YY=            -12.0043   ZZ=            -13.8731
   XY=             -2.4078   XZ=             -0.0948   YZ=              0.0253

 Normal termination of Gaussian 09 at Wed Aug 26 10:59:19 2020.
