 Gaussian 09, Revision D.01,
 Gaussian 09:  ES64L-G09RevD.01 24-Apr-2013

 --------------------
 #p B2PLYPD3/Def2QZVP
 --------------------

 --------
 methanol
 --------
 Symbolic Z-matrix:
 Charge =  0 Multiplicity = 1

                         Standard orientation:
 ---------------------------------------------------------------------
 Center     Atomic      Atomic             Coordinates (Angstroms)
 Number     Number       Type             X           Y           Z
 ---------------------------------------------------------------------
      1          6           0        0.669334    0.029748    0.009111
      2          8           0       -0.752885   -0.143553   -0.007821
      3          1           0        1.029396    0.475675    0.842791
      4          1           0        1.052180    0.586828   -0.822076
      5          1           0        1.099550   -0.967578   -0.044570
      6          1           0       -1.174046    0.875015    0.031759
 ---------------------------------------------------------------------

 SCF Done:  E(RB2PLYPD3) =  -115.530525896     A.U. after   11 cycles
 E2(B2PLYPD3) =    -0.1499144236D+00 E(B2PLYPD3) =    -0.11568044031953D+03

 The electronic state is 1-A.
 Alpha  occ. eigenvalues --  -19.73798 -10.64362  -1.13466  -0.78803  -0.56972
 Alpha  occ. eigenvalues --   -0.52016  -0.48937  -0.40986  -0.35407
 Alpha virt. eigenvalues --    0.03766   0.07732   0.12386   0.12729   0.14992
 Alpha virt. eigenvalues --    0.17388   0.18273   0.28721   0.30202   0.33601
 Alpha virt. eigenvalues --    0.33736   0.38461   0.39609   0.41940   0.44395

 Mulliken charges:
               1
     1  C    0.081096
     2  O   -0.488656
     3  H    0.050935
     4  H    0.044670
     5  H    0.062918
     6  H    0.249036
 Sum of Mulliken charges =   0.00000

 Dipole moment (field-independent basis, Debye):
    X=              0.9423    Y=              1.6612    Z=              0.1119  Tot=              1.9131
 Quadrupole moment (field-independent basis, Debye-Ang):
   XX=            -12.9258   YY=            -11.9699   ZZ=            -13.9319
   XY=             -2.3166   XZ=             -0.0432   YZ=              0.0843

 Normal termination of Gaussian 09 at Wed Aug 26 12:44:46 2020.
