 Gaussian 09, Revision D.01,
 Gaussian 09:  ES64L-G09RevD.01 24-Apr-2013

 --------------------
 #p B2PLYPD3/Def2QZVP
 --------------------

 --------
 methanol
 --------
 Symbolic Z-matrix:
 Charge =  0 Multiplicity = 1

                         Standard orientation:
 ---------------------------------------------------------------------
 Center     Atomic      Atomic             Coordinates (Angstroms)
 Number     Number       Type             X           Y           Z
 ---------------------------------------------------------------------
      1          6           0        0.664118    0.022607    0.003563
      2          8           0       -0.749338   -0.134686   -0.014277
      3          1           0        1.006678    0.407561    0.929610
      4          1           0        1.036143    0.638377   -0.830291
      5          1           0        1.115304   -0.922812   -0.080738
      6          1           0       -1.148130    0.818722    0.074255
 ---------------------------------------------------------------------

 SCF Done:  E(RB2PLYPD3) =  -115.544595642     A.U. after   10 cycles
 E2(B2PLYPD3) =    -0.1485432741D+00 E(B2PLYPD3) =    -0.11569313891627D+03

 The electronic state is 1-A.
 Alpha  occ. eigenvalues --  -19.73235 -10.64823  -1.14722  -0.78685  -0.57391
 Alpha  occ. eigenvalues --   -0.52014  -0.50043  -0.40860  -0.35337
 Alpha virt. eigenvalues --    0.04424   0.07957   0.12361   0.12753   0.14699
 Alpha virt. eigenvalues --    0.17539   0.18336   0.29047   0.31966   0.33416
 Alpha virt. eigenvalues --    0.33786   0.39026   0.40432   0.41345   0.43815

 Mulliken charges:
               1
     1  C    0.073695
     2  O   -0.478153
     3  H    0.049081
     4  H    0.044340
     5  H    0.067280
     6  H    0.243757
 Sum of Mulliken charges =   0.00000

 Dipole moment (field-independent basis, Debye):
    X=              0.9135    Y=              1.5397    Z=              0.1828  Tot=              1.7996
 Quadrupole moment (field-independent basis, Debye-Ang):
   XX=            -12.9832   YY=            -12.1877   ZZ=            -13.7744
   XY=             -2.3942   XZ=             -0.1900   YZ=              0.1006

 Normal termination of Gaussian 09 at Thu Aug 27 00:15:09 2020.
