 Gaussian 09, Revision D.01,
 Gaussian 09:  ES64L-G09RevD.01 24-Apr-2013

 --------------------
 #p B2PLYPD3/Def2QZVP
 --------------------

 --------
 methanol
 --------
 Symbolic Z-matrix:
 Charge =  0 Multiplicity = 1

                         Standard orientation:
 ---------------------------------------------------------------------
 Center     Atomic      Atomic             Coordinates (Angstroms)
 Number     Number       Type             X           Y           Z
 ---------------------------------------------------------------------
      1          6           0        0.664129   -0.000321   -0.006204
      2          8           0       -0.764305    0.069700   -0.016782
      3          1           0        1.086877   -0.874082   -0.731468
      4          1           0        1.093354   -0.218249    1.093251
      5          1           0        1.050054    1.026075   -0.319733
      6          1           0       -1.100615   -0.489422    0.129430
 ---------------------------------------------------------------------

 SCF Done:  E(RB2PLYPD3) =  -115.366968291     A.U. after   11 cycles
 E2(B2PLYPD3) =    -0.1441846414D+00 E(B2PLYPD3) =    -0.11551115293243D+03

 The electronic state is 1-A.
 Alpha  occ. eigenvalues --  -19.69745 -10.69482  -1.25382  -0.81530  -0.61593
 Alpha  occ. eigenvalues --   -0.50695  -0.50145  -0.41141  -0.35935
 Alpha virt. eigenvalues --    0.05240   0.09061   0.11504   0.11925   0.14526
 Alpha virt. eigenvalues --    0.16807   0.17829   0.28578   0.32217   0.32534
 Alpha virt. eigenvalues --    0.35434   0.37426   0.38286   0.40658   0.42082

 Mulliken charges:
               1
     1  C    0.049242
     2  O   -0.223883
     3  H    0.044611
     4  H    0.046226
     5  H    0.089652
     6  H   -0.005849
 Sum of Mulliken charges =   0.00000

 Dipole moment (field-independent basis, Debye):
    X=              0.9295    Y=             -1.0782    Z=              0.2819  Tot=              1.4512
 Quadrupole moment (field-independent basis, Debye-Ang):
   XX=            -13.0451   YY=            -12.5790   ZZ=            -13.6754
   XY=              1.8555   XZ=             -0.4790   YZ=             -0.2237

 Normal termination of Gaussian 09 at Wed Aug 26 18:30:33 2020.
