 Gaussian 09, Revision D.01,
 Gaussian 09:  ES64L-G09RevD.01 24-Apr-2013

 --------------------
 #p B2PLYPD3/Def2QZVP
 --------------------

 --------
 methanol
 --------
 Symbolic Z-matrix:
 Charge =  0 Multiplicity = 1

                         Standard orientation:
 ---------------------------------------------------------------------
 Center     Atomic      Atomic             Coordinates (Angstroms)
 Number     Number       Type             X           Y           Z
 ---------------------------------------------------------------------
      1          6           0        0.665248    0.031984    0.017169
      2          8           0       -0.732756   -0.167974   -0.012121
      3          1           0        0.996787    0.402562    0.850894
      4          1           0        1.023841    0.624230   -0.798441
      5          1           0        1.081437   -0.864119   -0.104763
      6          1           0       -1.231507    0.989215    0.046261
 ---------------------------------------------------------------------

 SCF Done:  E(RB2PLYPD3) =  -115.483331661     A.U. after   11 cycles
 E2(B2PLYPD3) =    -0.1523500270D+00 E(B2PLYPD3) =    -0.11563568168759D+03

 The electronic state is 1-A.
 Alpha  occ. eigenvalues --  -19.74462 -10.62489  -1.12570  -0.79414  -0.55797
 Alpha  occ. eigenvalues --   -0.52757  -0.49540  -0.40019  -0.35124
 Alpha virt. eigenvalues --    0.01384   0.07643   0.12756   0.12848   0.14879
 Alpha virt. eigenvalues --    0.17403   0.18456   0.24864   0.29462   0.33550
 Alpha virt. eigenvalues --    0.34602   0.38823   0.40359   0.42603   0.44654

 Mulliken charges:
               1
     1  C    0.092738
     2  O   -0.492754
     3  H    0.048494
     4  H    0.038924
     5  H    0.061945
     6  H    0.250652
 Sum of Mulliken charges =   0.00000

 Dipole moment (field-independent basis, Debye):
    X=              0.9187    Y=              1.6659    Z=              0.1472  Tot=              1.9081
 Quadrupole moment (field-independent basis, Debye-Ang):
   XX=            -12.8147   YY=            -11.8078   ZZ=            -13.8487
   XY=             -2.5529   XZ=             -0.0676   YZ=              0.1317

 Normal termination of Gaussian 09 at Wed Aug 26 11:30:38 2020.
