 Gaussian 09, Revision D.01,
 Gaussian 09:  ES64L-G09RevD.01 24-Apr-2013

 --------------------
 #p B2PLYPD3/Def2QZVP
 --------------------

 --------
 methanol
 --------
 Symbolic Z-matrix:
 Charge =  0 Multiplicity = 1

                         Standard orientation:
 ---------------------------------------------------------------------
 Center     Atomic      Atomic             Coordinates (Angstroms)
 Number     Number       Type             X           Y           Z
 ---------------------------------------------------------------------
      1          6           0        0.656946   -0.005695    0.006164
      2          8           0       -0.745647    0.082909   -0.019129
      3          1           0        1.041750   -0.848814   -0.740895
      4          1           0        0.978393   -0.288299    1.025698
      5          1           0        1.060688    1.048372   -0.258990
      6          1           0       -1.057333   -0.540359    0.090233
 ---------------------------------------------------------------------

 SCF Done:  E(RB2PLYPD3) =  -115.429435263     A.U. after   11 cycles
 E2(B2PLYPD3) =    -0.1437705207D+00 E(B2PLYPD3) =    -0.11557320578396D+03

 The electronic state is 1-A.
 Alpha  occ. eigenvalues --  -19.69854 -10.67991  -1.24480  -0.81110  -0.61843
 Alpha  occ. eigenvalues --   -0.51594  -0.50489  -0.41353  -0.35775
 Alpha virt. eigenvalues --    0.05333   0.09302   0.11679   0.12103   0.14767
 Alpha virt. eigenvalues --    0.16823   0.17595   0.28742   0.32601   0.33297
 Alpha virt. eigenvalues --    0.36871   0.37715   0.40018   0.40817   0.42752

 Mulliken charges:
               1
     1  C    0.057760
     2  O   -0.252266
     3  H    0.036248
     4  H    0.053321
     5  H    0.079076
     6  H    0.025861
 Sum of Mulliken charges =   0.00000

 Dipole moment (field-independent basis, Debye):
    X=              0.8973    Y=             -1.2067    Z=              0.2937  Tot=              1.5321
 Quadrupole moment (field-independent basis, Debye-Ang):
   XX=            -13.3108   YY=            -12.3559   ZZ=            -13.6280
   XY=              1.8938   XZ=             -0.2975   YZ=             -0.2019

 Normal termination of Gaussian 09 at Wed Aug 26 12:04:07 2020.
