 Gaussian 09, Revision D.01,
 Gaussian 09:  ES64L-G09RevD.01 24-Apr-2013

 --------------------
 #p B2PLYPD3/Def2QZVP
 --------------------

 --------
 methanol
 --------
 Symbolic Z-matrix:
 Charge =  0 Multiplicity = 1

                         Standard orientation:
 ---------------------------------------------------------------------
 Center     Atomic      Atomic             Coordinates (Angstroms)
 Number     Number       Type             X           Y           Z
 ---------------------------------------------------------------------
      1          6           0        0.667558   -0.024453   -0.008600
      2          8           0       -0.751089    0.110951    0.005121
      3          1           0        0.975293   -0.537776   -0.876617
      4          1           0        0.985470   -0.576655    0.888912
      5          1           0        1.091801    1.050581    0.019819
      6          1           0       -1.049200   -0.677041   -0.021481
 ---------------------------------------------------------------------

 SCF Done:  E(RB2PLYPD3) =  -115.533237725     A.U. after   10 cycles
 E2(B2PLYPD3) =    -0.1455113205D+00 E(B2PLYPD3) =    -0.11567874904515D+03

 The electronic state is 1-A.
 Alpha  occ. eigenvalues --  -19.71280 -10.66220  -1.19194  -0.79339  -0.60308
 Alpha  occ. eigenvalues --   -0.52585  -0.49249  -0.41700  -0.35777
 Alpha virt. eigenvalues --    0.05273   0.08881   0.11948   0.12261   0.14808
 Alpha virt. eigenvalues --    0.17295   0.17629   0.29063   0.32707   0.33210
 Alpha virt. eigenvalues --    0.37225   0.38159   0.40298   0.41314   0.43911

 Mulliken charges:
               1
     1  C    0.072024
     2  O   -0.396156
     3  H    0.053880
     4  H    0.048280
     5  H    0.066843
     6  H    0.155130
 Sum of Mulliken charges =   0.00000

 Dipole moment (field-independent basis, Debye):
    X=              1.0160    Y=             -1.4781    Z=             -0.0856  Tot=              1.7956
 Quadrupole moment (field-independent basis, Debye-Ang):
   XX=            -13.4189   YY=            -12.1563   ZZ=            -13.6412
   XY=              2.0019   XZ=              0.0250   YZ=              0.0776

 Normal termination of Gaussian 09 at Wed Aug 26 16:12:45 2020.
