 Gaussian 09, Revision D.01,
 Gaussian 09:  ES64L-G09RevD.01 24-Apr-2013

 --------------------
 #p B2PLYPD3/Def2QZVP
 --------------------

 --------
 methanol
 --------
 Symbolic Z-matrix:
 Charge =  0 Multiplicity = 1

                         Standard orientation:
 ---------------------------------------------------------------------
 Center     Atomic      Atomic             Coordinates (Angstroms)
 Number     Number       Type             X           Y           Z
 ---------------------------------------------------------------------
      1          6           0       -0.661841    0.008250   -0.023430
      2          8           0        0.742142   -0.150216    0.011598
      3          1           0       -1.098168    0.425540   -0.835783
      4          1           0       -1.024308    0.658046    0.836895
      5          1           0       -1.054625   -0.875181    0.123158
      6          1           0        1.211014    0.943825   -0.076469
 ---------------------------------------------------------------------

 SCF Done:  E(RB2PLYPD3) =  -115.500256555     A.U. after   11 cycles
 E2(B2PLYPD3) =    -0.1514107116D+00 E(B2PLYPD3) =    -0.11565166726689D+03

 The electronic state is 1-A.
 Alpha  occ. eigenvalues --  -19.74425 -10.63654  -1.13178  -0.79077  -0.56714
 Alpha  occ. eigenvalues --   -0.50871  -0.50275  -0.40834  -0.34738
 Alpha virt. eigenvalues --    0.02387   0.07593   0.12672   0.12791   0.15010
 Alpha virt. eigenvalues --    0.17372   0.18452   0.26469   0.29590   0.33105
 Alpha virt. eigenvalues --    0.34710   0.37717   0.40421   0.41228   0.44437

 Mulliken charges:
               1
     1  C    0.081659
     2  O   -0.484944
     3  H    0.047754
     4  H    0.027224
     5  H    0.071080
     6  H    0.257228
 Sum of Mulliken charges =   0.00000

 Dipole moment (field-independent basis, Debye):
    X=             -0.8406    Y=              1.5923    Z=             -0.2304  Tot=              1.8153
 Quadrupole moment (field-independent basis, Debye-Ang):
   XX=            -12.8149   YY=            -11.8701   ZZ=            -14.0413
   XY=              2.5411   XZ=             -0.0077   YZ=             -0.2503

 Normal termination of Gaussian 09 at Wed Aug 26 14:17:46 2020.
