 Gaussian 09, Revision D.01,
 Gaussian 09:  ES64L-G09RevD.01 24-Apr-2013

 --------------------
 #p B2PLYPD3/Def2QZVP
 --------------------

 --------
 methanol
 --------
 Symbolic Z-matrix:
 Charge =  0 Multiplicity = 1

                         Standard orientation:
 ---------------------------------------------------------------------
 Center     Atomic      Atomic             Coordinates (Angstroms)
 Number     Number       Type             X           Y           Z
 ---------------------------------------------------------------------
      1          6           0        0.671658    0.032532    0.003677
      2          8           0       -0.739502   -0.146351   -0.003783
      3          1           0        1.024277    0.435007    0.880375
      4          1           0        0.994482    0.611666   -0.812701
      5          1           0        1.071696   -0.938611   -0.088906
      6          1           0       -1.204391    0.867554    0.029435
 ---------------------------------------------------------------------

 SCF Done:  E(RB2PLYPD3) =  -115.529222609     A.U. after   11 cycles
 E2(B2PLYPD3) =    -0.1497193772D+00 E(B2PLYPD3) =    -0.11567894198594D+03

 The electronic state is 1-A.
 Alpha  occ. eigenvalues --  -19.73486 -10.63812  -1.13432  -0.78794  -0.56796
 Alpha  occ. eigenvalues --   -0.52662  -0.49296  -0.40589  -0.35211
 Alpha virt. eigenvalues --    0.03658   0.07855   0.12555   0.12703   0.14927
 Alpha virt. eigenvalues --    0.17208   0.18268   0.28714   0.30007   0.33537
 Alpha virt. eigenvalues --    0.34018   0.39182   0.39777   0.42592   0.44179

 Mulliken charges:
               1
     1  C    0.082175
     2  O   -0.493883
     3  H    0.050619
     4  H    0.045659
     5  H    0.065888
     6  H    0.249543
 Sum of Mulliken charges =   0.00000

 Dipole moment (field-independent basis, Debye):
    X=              0.8847    Y=              1.6307    Z=              0.0665  Tot=              1.8564
 Quadrupole moment (field-independent basis, Debye-Ang):
   XX=            -12.8544   YY=            -12.0071   ZZ=            -13.8056
   XY=             -2.4102   XZ=             -0.0382   YZ=              0.0457

 Normal termination of Gaussian 09 at Thu Aug 27 00:00:56 2020.
