 Gaussian 09, Revision D.01,
 Gaussian 09:  ES64L-G09RevD.01 24-Apr-2013

 --------------------
 #p B2PLYPD3/Def2QZVP
 --------------------

 --------
 methanol
 --------
 Symbolic Z-matrix:
 Charge =  0 Multiplicity = 1

                         Standard orientation:
 ---------------------------------------------------------------------
 Center     Atomic      Atomic             Coordinates (Angstroms)
 Number     Number       Type             X           Y           Z
 ---------------------------------------------------------------------
      1          6           0        0.696783    0.044637   -0.013338
      2          8           0       -0.748897   -0.162848    0.004721
      3          1           0        1.039754    0.442595    0.835356
      4          1           0        0.813699    0.636687   -0.764619
      5          1           0        1.154416   -0.932729   -0.083527
      6          1           0       -1.197392    0.888407    0.055057
 ---------------------------------------------------------------------

 SCF Done:  E(RB2PLYPD3) =  -115.505095620     A.U. after   11 cycles
 E2(B2PLYPD3) =    -0.1506513434D+00 E(B2PLYPD3) =    -0.11565574696380D+03

 The electronic state is 1-A.
 Alpha  occ. eigenvalues --  -19.73293 -10.63086  -1.11915  -0.79669  -0.56171
 Alpha  occ. eigenvalues --   -0.54165  -0.48103  -0.40688  -0.35138
 Alpha virt. eigenvalues --    0.03362   0.07765   0.12239   0.12810   0.14633
 Alpha virt. eigenvalues --    0.17378   0.17842   0.28138   0.29679   0.31807
 Alpha virt. eigenvalues --    0.33574   0.38788   0.40412   0.43364   0.43835

 Mulliken charges:
               1
     1  C    0.095364
     2  O   -0.513202
     3  H    0.048763
     4  H    0.056968
     5  H    0.066663
     6  H    0.245444
 Sum of Mulliken charges =   0.00000

 Dipole moment (field-independent basis, Debye):
    X=              1.0799    Y=              1.7229    Z=              0.0751  Tot=              2.0348
 Quadrupole moment (field-independent basis, Debye-Ang):
   XX=            -12.9273   YY=            -11.8140   ZZ=            -13.7892
   XY=             -2.4891   XZ=              0.0872   YZ=             -0.0133

 Normal termination of Gaussian 09 at Wed Aug 26 22:49:20 2020.
