 Gaussian 09, Revision D.01,
 Gaussian 09:  ES64L-G09RevD.01 24-Apr-2013

 --------------------
 #p B2PLYPD3/Def2QZVP
 --------------------

 --------
 methanol
 --------
 Symbolic Z-matrix:
 Charge =  0 Multiplicity = 1

                         Standard orientation:
 ---------------------------------------------------------------------
 Center     Atomic      Atomic             Coordinates (Angstroms)
 Number     Number       Type             X           Y           Z
 ---------------------------------------------------------------------
      1          6           0       -0.644375    0.007729    0.016562
      2          8           0        0.746371   -0.181124   -0.013688
      3          1           0       -1.094062    0.588249   -0.782409
      4          1           0       -1.005280    0.394609    0.843985
      5          1           0       -1.127768   -0.746839   -0.087081
      6          1           0        1.122393    1.166596    0.035634
 ---------------------------------------------------------------------

 SCF Done:  E(RB2PLYPD3) =  -115.419280586     A.U. after   11 cycles
 E2(B2PLYPD3) =    -0.1556873880D+00 E(B2PLYPD3) =    -0.11557496797400D+03

 The electronic state is 1-A.
 Alpha  occ. eigenvalues --  -19.75800 -10.61630  -1.12567  -0.81086  -0.54939
 Alpha  occ. eigenvalues --   -0.51905  -0.50527  -0.39466  -0.35219
 Alpha virt. eigenvalues --   -0.01687   0.07346   0.12758   0.13040   0.14651
 Alpha virt. eigenvalues --    0.18394   0.18654   0.22299   0.29557   0.33407
 Alpha virt. eigenvalues --    0.34737   0.37766   0.41105   0.41905   0.44236

 Mulliken charges:
               1
     1  C    0.085365
     2  O   -0.471887
     3  H    0.028069
     4  H    0.039956
     5  H    0.070796
     6  H    0.247701
 Sum of Mulliken charges =   0.00000

 Dipole moment (field-independent basis, Debye):
    X=             -1.1110    Y=              1.6806    Z=              0.1328  Tot=              2.0190
 Quadrupole moment (field-independent basis, Debye-Ang):
   XX=            -13.1853   YY=            -11.4162   ZZ=            -13.9999
   XY=              2.5165   XZ=              0.0725   YZ=              0.1452

 Normal termination of Gaussian 09 at Wed Aug 26 19:27:32 2020.
