 Gaussian 09, Revision D.01,
 Gaussian 09:  ES64L-G09RevD.01 24-Apr-2013

 --------------------
 #p B2PLYPD3/Def2QZVP
 --------------------

 --------
 methanol
 --------
 Symbolic Z-matrix:
 Charge =  0 Multiplicity = 1

                         Standard orientation:
 ---------------------------------------------------------------------
 Center     Atomic      Atomic             Coordinates (Angstroms)
 Number     Number       Type             X           Y           Z
 ---------------------------------------------------------------------
      1          6           0        0.679902    0.053156   -0.019361
      2          8           0       -0.711255   -0.200254    0.032789
      3          1           0        1.072595    0.650311    0.734489
      4          1           0        0.942498    0.408838   -0.725992
      5          1           0        1.019521   -0.867706   -0.023826
      6          1           0       -1.423985    1.091656   -0.130814
 ---------------------------------------------------------------------

 SCF Done:  E(RB2PLYPD3) =  -115.366751181     A.U. after   12 cycles
 E2(B2PLYPD3) =    -0.1570568036D+00 E(B2PLYPD3) =    -0.11552380798428D+03

 The electronic state is 1-A.
 Alpha  occ. eigenvalues --  -19.75329 -10.60557  -1.11674  -0.81724  -0.56500
 Alpha  occ. eigenvalues --   -0.53489  -0.48396  -0.38533  -0.35278
 Alpha virt. eigenvalues --   -0.02675   0.07422   0.12449   0.13256   0.15104
 Alpha virt. eigenvalues --    0.16835   0.18410   0.21456   0.29499   0.33611
 Alpha virt. eigenvalues --    0.34749   0.38073   0.39241   0.42522   0.46606

 Mulliken charges:
               1
     1  C    0.020849
     2  O   -0.476961
     3  H    0.049688
     4  H    0.120449
     5  H    0.068907
     6  H    0.217069
 Sum of Mulliken charges =   0.00000

 Dipole moment (field-independent basis, Debye):
    X=              0.9461    Y=              1.6739    Z=             -0.3795  Tot=              1.9599
 Quadrupole moment (field-independent basis, Debye-Ang):
   XX=            -12.2968   YY=            -11.5553   ZZ=            -13.9774
   XY=             -2.5231   XZ=              0.1567   YZ=             -0.1720

 Normal termination of Gaussian 09 at Wed Aug 26 23:03:35 2020.
