 Gaussian 09, Revision D.01,
 Gaussian 09:  ES64L-G09RevD.01 24-Apr-2013

 --------------------
 #p B2PLYPD3/Def2QZVP
 --------------------

 --------
 methanol
 --------
 Symbolic Z-matrix:
 Charge =  0 Multiplicity = 1

                         Standard orientation:
 ---------------------------------------------------------------------
 Center     Atomic      Atomic             Coordinates (Angstroms)
 Number     Number       Type             X           Y           Z
 ---------------------------------------------------------------------
      1          6           0        0.645554   -0.015907   -0.023369
      2          8           0       -0.760037   -0.153702    0.016384
      3          1           0        1.078765    0.608576    0.837028
      4          1           0        1.031978    0.483675   -0.801095
      5          1           0        1.127154   -0.828789    0.039975
      6          1           0       -1.030924    1.061592   -0.066767
 ---------------------------------------------------------------------

 SCF Done:  E(RB2PLYPD3) =  -115.473211091     A.U. after   11 cycles
 E2(B2PLYPD3) =    -0.1529811831D+00 E(B2PLYPD3) =    -0.11562619227363D+03

 The electronic state is 1-A.
 Alpha  occ. eigenvalues --  -19.75271 -10.63349  -1.13287  -0.79784  -0.56430
 Alpha  occ. eigenvalues --   -0.50692  -0.50459  -0.41345  -0.34701
 Alpha virt. eigenvalues --    0.01183   0.07458   0.12622   0.12767   0.14778
 Alpha virt. eigenvalues --    0.18176   0.18598   0.24903   0.29734   0.32864
 Alpha virt. eigenvalues --    0.34254   0.37420   0.40372   0.41613   0.43528

 Mulliken charges:
               1
     1  C    0.096356
     2  O   -0.474935
     3  H    0.016766
     4  H    0.035779
     5  H    0.066627
     6  H    0.259407
 Sum of Mulliken charges =   0.00000

 Dipole moment (field-independent basis, Debye):
    X=              1.1035    Y=              1.6490    Z=             -0.2614  Tot=              2.0013
 Quadrupole moment (field-independent basis, Debye-Ang):
   XX=            -13.5133   YY=            -11.4428   ZZ=            -14.1862
   XY=             -2.3294   XZ=             -0.0080   YZ=             -0.2525

 Normal termination of Gaussian 09 at Wed Aug 26 21:32:06 2020.
