 Gaussian 09, Revision D.01,
 Gaussian 09:  ES64L-G09RevD.01 24-Apr-2013

 --------------------
 #p B2PLYPD3/Def2QZVP
 --------------------

 --------
 methanol
 --------
 Symbolic Z-matrix:
 Charge =  0 Multiplicity = 1

                         Standard orientation:
 ---------------------------------------------------------------------
 Center     Atomic      Atomic             Coordinates (Angstroms)
 Number     Number       Type             X           Y           Z
 ---------------------------------------------------------------------
      1          6           0       -0.656654   -0.012437    0.000534
      2          8           0        0.743352    0.110227   -0.014150
      3          1           0       -1.017689   -0.438559    0.968486
      4          1           0       -1.023944   -0.681785   -0.853325
      5          1           0       -1.113398    0.976531   -0.090221
      6          1           0        1.148141   -0.663381    0.085057
 ---------------------------------------------------------------------

 SCF Done:  E(RB2PLYPD3) =  -115.544564989     A.U. after   10 cycles
 E2(B2PLYPD3) =    -0.1458952206D+00 E(B2PLYPD3) =    -0.11569046020911D+03

 The electronic state is 1-A.
 Alpha  occ. eigenvalues --  -19.71827 -10.66626  -1.18385  -0.79166  -0.59915
 Alpha  occ. eigenvalues --   -0.51402  -0.50722  -0.40693  -0.35285
 Alpha virt. eigenvalues --    0.05257   0.08488   0.12157   0.12508   0.14715
 Alpha virt. eigenvalues --    0.17339   0.17985   0.29038   0.32972   0.33872
 Alpha virt. eigenvalues --    0.36462   0.39344   0.39589   0.40148   0.43359

 Mulliken charges:
               1
     1  C    0.065933
     2  O   -0.417206
     3  H    0.044407
     4  H    0.041557
     5  H    0.076183
     6  H    0.189125
 Sum of Mulliken charges =   0.00000

 Dipole moment (field-independent basis, Debye):
    X=             -0.7767    Y=             -1.3600    Z=              0.2081  Tot=              1.5799
 Quadrupole moment (field-independent basis, Debye-Ang):
   XX=            -12.9113   YY=            -12.4581   ZZ=            -13.7752
   XY=             -2.2715   XZ=              0.2399   YZ=             -0.1158

 Normal termination of Gaussian 09 at Wed Aug 26 20:01:20 2020.
