 Gaussian 09, Revision D.01,
 Gaussian 09:  ES64L-G09RevD.01 24-Apr-2013

 --------------------
 #p B2PLYPD3/Def2QZVP
 --------------------

 --------
 methanol
 --------
 Symbolic Z-matrix:
 Charge =  0 Multiplicity = 1

                         Standard orientation:
 ---------------------------------------------------------------------
 Center     Atomic      Atomic             Coordinates (Angstroms)
 Number     Number       Type             X           Y           Z
 ---------------------------------------------------------------------
      1          6           0       -0.636144   -0.009366    0.025115
      2          8           0        0.722380   -0.175227   -0.039200
      3          1           0       -1.083897    0.744415   -0.796959
      4          1           0       -0.963455    0.397042    0.835494
      5          1           0       -1.172363   -0.727691   -0.044090
      6          1           0        1.257539    1.044245    0.168465
 ---------------------------------------------------------------------

 SCF Done:  E(RB2PLYPD3) =  -115.421654458     A.U. after   11 cycles
 E2(B2PLYPD3) =    -0.1539530833D+00 E(B2PLYPD3) =    -0.11557560754175D+03

 The electronic state is 1-A.
 Alpha  occ. eigenvalues --  -19.75368 -10.62456  -1.13886  -0.80487  -0.55733
 Alpha  occ. eigenvalues --   -0.52574  -0.50415  -0.39487  -0.34021
 Alpha virt. eigenvalues --   -0.00975   0.07329   0.12685   0.13190   0.14869
 Alpha virt. eigenvalues --    0.18198   0.18865   0.22744   0.29715   0.32254
 Alpha virt. eigenvalues --    0.35328   0.37453   0.40599   0.42068   0.44787

 Mulliken charges:
               1
     1  C    0.077556
     2  O   -0.468829
     3  H    0.008203
     4  H    0.038562
     5  H    0.079426
     6  H    0.265082
 Sum of Mulliken charges =   0.00000

 Dipole moment (field-independent basis, Debye):
    X=             -0.6528    Y=              1.5730    Z=              0.5646  Tot=              1.7942
 Quadrupole moment (field-independent basis, Debye-Ang):
   XX=            -12.6134   YY=            -11.8192   ZZ=            -14.1532
   XY=              2.9454   XZ=              0.1515   YZ=              0.4205

 Normal termination of Gaussian 09 at Wed Aug 26 21:55:12 2020.
