 Gaussian 09, Revision D.01,
 Gaussian 09:  ES64L-G09RevD.01 24-Apr-2013

 --------------------
 #p B2PLYPD3/Def2QZVP
 --------------------

 --------
 methanol
 --------
 Symbolic Z-matrix:
 Charge =  0 Multiplicity = 1

                         Standard orientation:
 ---------------------------------------------------------------------
 Center     Atomic      Atomic             Coordinates (Angstroms)
 Number     Number       Type             X           Y           Z
 ---------------------------------------------------------------------
      1          6           0       -0.662909   -0.012987   -0.001099
      2          8           0        0.755899    0.104981   -0.007428
      3          1           0       -1.040746   -0.480246    0.956739
      4          1           0       -1.006595   -0.629240   -0.896265
      5          1           0       -1.118679    0.993575   -0.057795
      6          1           0        1.096279   -0.646011    0.063342
 ---------------------------------------------------------------------

 SCF Done:  E(RB2PLYPD3) =  -115.529532416     A.U. after   10 cycles
 E2(B2PLYPD3) =    -0.1454495719D+00 E(B2PLYPD3) =    -0.11567498198825D+03

 The electronic state is 1-A.
 Alpha  occ. eigenvalues --  -19.71393 -10.67080  -1.19561  -0.79433  -0.60171
 Alpha  occ. eigenvalues --   -0.51468  -0.50359  -0.41208  -0.35682
 Alpha virt. eigenvalues --    0.05350   0.08685   0.12008   0.12371   0.14549
 Alpha virt. eigenvalues --    0.17397   0.17935   0.28909   0.32773   0.33202
 Alpha virt. eigenvalues --    0.36906   0.39175   0.39613   0.39814   0.43370

 Mulliken charges:
               1
     1  C    0.063819
     2  O   -0.381270
     3  H    0.046696
     4  H    0.046952
     5  H    0.075979
     6  H    0.147825
 Sum of Mulliken charges =   0.00000

 Dipole moment (field-independent basis, Debye):
    X=             -0.9361    Y=             -1.3427    Z=              0.1392  Tot=              1.6427
 Quadrupole moment (field-independent basis, Debye-Ang):
   XX=            -13.1130   YY=            -12.4405   ZZ=            -13.6841
   XY=             -2.1694   XZ=              0.1420   YZ=             -0.0761

 Normal termination of Gaussian 09 at Thu Aug 27 00:15:16 2020.
