 Gaussian 09, Revision D.01,
 Gaussian 09:  ES64L-G09RevD.01 24-Apr-2013

 --------------------
 #p B2PLYPD3/Def2QZVP
 --------------------

 --------
 methanol
 --------
 Symbolic Z-matrix:
 Charge =  0 Multiplicity = 1

                         Standard orientation:
 ---------------------------------------------------------------------
 Center     Atomic      Atomic             Coordinates (Angstroms)
 Number     Number       Type             X           Y           Z
 ---------------------------------------------------------------------
      1          6           0       -0.666149    0.009860    0.012079
      2          8           0        0.729997   -0.151552   -0.031730
      3          1           0       -1.123800    0.651962   -0.736354
      4          1           0       -0.891549    0.471156    0.770422
      5          1           0       -0.962609   -0.974023    0.035389
      6          1           0        1.134871    1.004167    0.111906
 ---------------------------------------------------------------------

 SCF Done:  E(RB2PLYPD3) =  -115.471583294     A.U. after   11 cycles
 E2(B2PLYPD3) =    -0.1521616588D+00 E(B2PLYPD3) =    -0.11562374495297D+03

 The electronic state is 1-A.
 Alpha  occ. eigenvalues --  -19.74302 -10.62417  -1.13340  -0.79483  -0.58274
 Alpha  occ. eigenvalues --   -0.51830  -0.48566  -0.41202  -0.34691
 Alpha virt. eigenvalues --    0.01788   0.07800   0.12106   0.13070   0.15420
 Alpha virt. eigenvalues --    0.16759   0.17981   0.25614   0.29760   0.32853
 Alpha virt. eigenvalues --    0.34967   0.39067   0.39127   0.40499   0.46233

 Mulliken charges:
               1
     1  C    0.075796
     2  O   -0.481374
     3  H    0.035324
     4  H    0.056934
     5  H    0.071947
     6  H    0.241373
 Sum of Mulliken charges =   0.00000

 Dipole moment (field-independent basis, Debye):
    X=             -0.9851    Y=              1.7036    Z=              0.3869  Tot=              2.0056
 Quadrupole moment (field-independent basis, Debye-Ang):
   XX=            -13.3996   YY=            -11.2858   ZZ=            -14.0808
   XY=              2.1143   XZ=              0.1943   YZ=              0.2298

 Normal termination of Gaussian 09 at Wed Aug 26 23:55:55 2020.
