 Gaussian 09, Revision D.01,
 Gaussian 09:  ES64L-G09RevD.01 24-Apr-2013

 --------------------
 #p B2PLYPD3/Def2QZVP
 --------------------

 --------
 methanol
 --------
 Symbolic Z-matrix:
 Charge =  0 Multiplicity = 1

                         Standard orientation:
 ---------------------------------------------------------------------
 Center     Atomic      Atomic             Coordinates (Angstroms)
 Number     Number       Type             X           Y           Z
 ---------------------------------------------------------------------
      1          6           0       -0.672747   -0.023939    0.009354
      2          8           0        0.754834    0.091475   -0.041613
      3          1           0       -0.929434   -0.154694    1.065224
      4          1           0       -1.032045   -0.838660   -0.723183
      5          1           0       -1.071647    0.987383   -0.285376
      6          1           0        1.030931   -0.582198    0.220113
 ---------------------------------------------------------------------

 SCF Done:  E(RB2PLYPD3) =  -115.497463765     A.U. after   10 cycles
 E2(B2PLYPD3) =    -0.1448573910D+00 E(B2PLYPD3) =    -0.11564232115624D+03

 The electronic state is 1-A.
 Alpha  occ. eigenvalues --  -19.70447 -10.67105  -1.21287  -0.79793  -0.60189
 Alpha  occ. eigenvalues --   -0.52577  -0.49741  -0.41390  -0.36059
 Alpha virt. eigenvalues --    0.05393   0.09054   0.11726   0.12236   0.14139
 Alpha virt. eigenvalues --    0.17121   0.18017   0.28690   0.32139   0.33088
 Alpha virt. eigenvalues --    0.36949   0.38478   0.39931   0.40940   0.44008

 Mulliken charges:
               1
     1  C    0.061127
     2  O   -0.331317
     3  H    0.056552
     4  H    0.053333
     5  H    0.070903
     6  H    0.089401
 Sum of Mulliken charges =   0.00000

 Dipole moment (field-independent basis, Debye):
    X=             -1.0634    Y=             -1.2217    Z=              0.5380  Tot=              1.7067
 Quadrupole moment (field-independent basis, Debye-Ang):
   XX=            -13.5074   YY=            -12.4749   ZZ=            -13.3123
   XY=             -1.8749   XZ=              0.7363   YZ=             -0.2373

 Normal termination of Gaussian 09 at Wed Aug 26 15:25:40 2020.
