 Gaussian 09, Revision D.01,
 Gaussian 09:  ES64L-G09RevD.01 24-Apr-2013

 --------------------
 #p B2PLYPD3/Def2QZVP
 --------------------

 --------
 methanol
 --------
 Symbolic Z-matrix:
 Charge =  0 Multiplicity = 1

                         Standard orientation:
 ---------------------------------------------------------------------
 Center     Atomic      Atomic             Coordinates (Angstroms)
 Number     Number       Type             X           Y           Z
 ---------------------------------------------------------------------
      1          6           0       -0.684890   -0.017113    0.004413
      2          8           0        0.754855    0.111355   -0.025379
      3          1           0       -0.935493   -0.326681    1.018687
      4          1           0       -1.067511   -0.745677   -0.777622
      5          1           0       -1.094810    0.961696   -0.163319
      6          1           0        1.168315   -0.677495    0.098812
 ---------------------------------------------------------------------

 SCF Done:  E(RB2PLYPD3) =  -115.546779677     A.U. after   10 cycles
 E2(B2PLYPD3) =    -0.1465167439D+00 E(B2PLYPD3) =    -0.11569329642040D+03

 The electronic state is 1-A.
 Alpha  occ. eigenvalues --  -19.71563 -10.66299  -1.16407  -0.79278  -0.58559
 Alpha  occ. eigenvalues --   -0.51681  -0.50164  -0.40785  -0.35396
 Alpha virt. eigenvalues --    0.05262   0.08382   0.12054   0.12553   0.14426
 Alpha virt. eigenvalues --    0.17108   0.17999   0.29129   0.32052   0.33303
 Alpha virt. eigenvalues --    0.36547   0.38935   0.40139   0.40214   0.43927

 Mulliken charges:
               1
     1  C    0.072245
     2  O   -0.451359
     3  H    0.055092
     4  H    0.048693
     5  H    0.078082
     6  H    0.197248
 Sum of Mulliken charges =   0.00000

 Dipole moment (field-independent basis, Debye):
    X=             -0.9394    Y=             -1.3830    Z=              0.2623  Tot=              1.6924
 Quadrupole moment (field-independent basis, Debye-Ang):
   XX=            -12.9130   YY=            -12.3850   ZZ=            -13.6404
   XY=             -2.2736   XZ=              0.4338   YZ=             -0.1287

 Normal termination of Gaussian 09 at Wed Aug 26 13:57:33 2020.
