 Gaussian 09, Revision D.01,
 Gaussian 09:  ES64L-G09RevD.01 24-Apr-2013

 --------------------
 #p B2PLYPD3/Def2QZVP
 --------------------

 --------
 methanol
 --------
 Symbolic Z-matrix:
 Charge =  0 Multiplicity = 1

                         Standard orientation:
 ---------------------------------------------------------------------
 Center     Atomic      Atomic             Coordinates (Angstroms)
 Number     Number       Type             X           Y           Z
 ---------------------------------------------------------------------
      1          6           0       -0.655671   -0.048107   -0.010850
      2          8           0        0.725776    0.149934    0.009896
      3          1           0       -0.965224   -0.540675    0.868976
      4          1           0       -0.984561   -0.511372   -0.811448
      5          1           0       -1.118024    0.974214   -0.010932
      6          1           0        1.195631   -0.832994   -0.060661
 ---------------------------------------------------------------------

 SCF Done:  E(RB2PLYPD3) =  -115.527457668     A.U. after   11 cycles
 E2(B2PLYPD3) =    -0.1489325086D+00 E(B2PLYPD3) =    -0.11567639017685D+03

 The electronic state is 1-A.
 Alpha  occ. eigenvalues --  -19.73323 -10.63841  -1.14714  -0.78631  -0.57702
 Alpha  occ. eigenvalues --   -0.53522  -0.49219  -0.40041  -0.35229
 Alpha virt. eigenvalues --    0.03882   0.07925   0.12463   0.12683   0.14982
 Alpha virt. eigenvalues --    0.17412   0.18226   0.28928   0.30410   0.33365
 Alpha virt. eigenvalues --    0.35054   0.37956   0.40180   0.42755   0.45249

 Mulliken charges:
               1
     1  C    0.080141
     2  O   -0.480570
     3  H    0.048055
     4  H    0.048811
     5  H    0.055681
     6  H    0.247881
 Sum of Mulliken charges =   0.00000

 Dipole moment (field-independent basis, Debye):
    X=             -0.7653    Y=             -1.6788    Z=             -0.1748  Tot=              1.8532
 Quadrupole moment (field-independent basis, Debye-Ang):
   XX=            -12.8823   YY=            -12.1341   ZZ=            -13.7523
   XY=             -2.3453   XZ=             -0.0526   YZ=              0.1263

 Normal termination of Gaussian 09 at Wed Aug 26 15:08:04 2020.
