 Gaussian 09, Revision D.01,
 Gaussian 09:  ES64L-G09RevD.01 24-Apr-2013

 --------------------
 #p B2PLYPD3/Def2QZVP
 --------------------

 --------
 methanol
 --------
 Symbolic Z-matrix:
 Charge =  0 Multiplicity = 1

                         Standard orientation:
 ---------------------------------------------------------------------
 Center     Atomic      Atomic             Coordinates (Angstroms)
 Number     Number       Type             X           Y           Z
 ---------------------------------------------------------------------
      1          6           0       -0.654095    0.022887    0.008303
      2          8           0        0.739965   -0.140930   -0.011237
      3          1           0       -1.066105    0.566489   -0.856239
      4          1           0       -1.004508    0.510743    0.856939
      5          1           0       -1.111455   -0.933039   -0.000141
      6          1           0        1.186911    0.845923    0.039523
 ---------------------------------------------------------------------

 SCF Done:  E(RB2PLYPD3) =  -115.536538778     A.U. after   11 cycles
 E2(B2PLYPD3) =    -0.1491354308D+00 E(B2PLYPD3) =    -0.11568567420853D+03

 The electronic state is 1-A.
 Alpha  occ. eigenvalues --  -19.73658 -10.64479  -1.14628  -0.78474  -0.57531
 Alpha  occ. eigenvalues --   -0.51725  -0.50128  -0.40634  -0.35087
 Alpha virt. eigenvalues --    0.03906   0.07795   0.12641   0.12678   0.15008
 Alpha virt. eigenvalues --    0.17516   0.18303   0.28965   0.30522   0.33390
 Alpha virt. eigenvalues --    0.34629   0.39169   0.39903   0.41327   0.44047

 Mulliken charges:
               1
     1  C    0.075246
     2  O   -0.478487
     3  H    0.039998
     4  H    0.045383
     5  H    0.065916
     6  H    0.251943
 Sum of Mulliken charges =   0.00000

 Dipole moment (field-independent basis, Debye):
    X=             -0.7921    Y=              1.5945    Z=              0.1467  Tot=              1.7864
 Quadrupole moment (field-independent basis, Debye-Ang):
   XX=            -12.8119   YY=            -12.1196   ZZ=            -13.9329
   XY=              2.4319   XZ=              0.0798   YZ=              0.0965

 Normal termination of Gaussian 09 at Thu Aug 27 00:12:14 2020.
