 Gaussian 09, Revision D.01,
 Gaussian 09:  ES64L-G09RevD.01 24-Apr-2013

 --------------------
 #p B2PLYPD3/Def2QZVP
 --------------------

 --------
 methanol
 --------
 Symbolic Z-matrix:
 Charge =  0 Multiplicity = 1

                         Standard orientation:
 ---------------------------------------------------------------------
 Center     Atomic      Atomic             Coordinates (Angstroms)
 Number     Number       Type             X           Y           Z
 ---------------------------------------------------------------------
      1          6           0       -0.675641   -0.015144    0.015212
      2          8           0        0.767631   -0.004891    0.038665
      3          1           0       -1.091596   -0.747150   -0.924755
      4          1           0       -1.105393    1.250546   -0.200422
      5          1           0       -1.098730   -0.427641    0.989253
      6          1           0        1.208513    0.054232   -0.264668
 ---------------------------------------------------------------------

 SCF Done:  E(RB2PLYPD3) =  -114.935604299     A.U. after   12 cycles
 E2(B2PLYPD3) =    -0.1449610231D+00 E(B2PLYPD3) =    -0.11508056532241D+03

 The electronic state is 1-A.
 Alpha  occ. eigenvalues --  -19.68055 -10.73110  -1.29811  -0.85429  -0.61986
 Alpha  occ. eigenvalues --   -0.51122  -0.49014  -0.38372  -0.35584
 Alpha virt. eigenvalues --    0.04337   0.09437   0.10172   0.11599   0.13479
 Alpha virt. eigenvalues --    0.16820   0.17488   0.28617   0.29401   0.30638
 Alpha virt. eigenvalues --    0.32619   0.35069   0.36703   0.41487   0.42298

 Mulliken charges:
               1
     1  C    0.060308
     2  O   -0.123674
     3  H    0.051498
     4  H    0.046001
     5  H    0.113017
     6  H   -0.147150
 Sum of Mulliken charges =   0.00000

 Dipole moment (field-independent basis, Debye):
    X=             -0.8947    Y=             -0.0299    Z=             -0.6553  Tot=              1.1094
 Quadrupole moment (field-independent basis, Debye-Ang):
   XX=            -12.4220   YY=            -13.4771   ZZ=            -13.0927
   XY=              0.5322   XZ=             -1.6034   YZ=             -0.1838

 Normal termination of Gaussian 09 at Wed Aug 26 22:23:18 2020.
