 Gaussian 09, Revision D.01,
 Gaussian 09:  ES64L-G09RevD.01 24-Apr-2013

 --------------------
 #p B2PLYPD3/Def2QZVP
 --------------------

 --------
 methanol
 --------
 Symbolic Z-matrix:
 Charge =  0 Multiplicity = 1

                         Standard orientation:
 ---------------------------------------------------------------------
 Center     Atomic      Atomic             Coordinates (Angstroms)
 Number     Number       Type             X           Y           Z
 ---------------------------------------------------------------------
      1          6           0       -0.657069    0.031701   -0.014325
      2          8           0        0.749888   -0.159989    0.011613
      3          1           0       -0.980715    0.495827   -0.792244
      4          1           0       -1.017850    0.564174    0.823760
      5          1           0       -1.174642   -0.921854    0.009467
      6          1           0        1.116516    0.951558   -0.047935
 ---------------------------------------------------------------------

 SCF Done:  E(RB2PLYPD3) =  -115.505753080     A.U. after   11 cycles
 E2(B2PLYPD3) =    -0.1510191794D+00 E(B2PLYPD3) =    -0.11565677225946D+03

 The electronic state is 1-A.
 Alpha  occ. eigenvalues --  -19.74356 -10.63415  -1.13356  -0.79281  -0.56335
 Alpha  occ. eigenvalues --   -0.52724  -0.49237  -0.40786  -0.35374
 Alpha virt. eigenvalues --    0.02725   0.07663   0.12552   0.12758   0.14796
 Alpha virt. eigenvalues --    0.18090   0.18184   0.26870   0.29579   0.33439
 Alpha virt. eigenvalues --    0.34108   0.38745   0.39942   0.42158   0.44184

 Mulliken charges:
               1
     1  C    0.092928
     2  O   -0.486609
     3  H    0.045911
     4  H    0.040181
     5  H    0.055061
     6  H    0.252527
 Sum of Mulliken charges =   0.00000

 Dipole moment (field-independent basis, Debye):
    X=             -1.0265    Y=              1.7475    Z=             -0.1634  Tot=              2.0333
 Quadrupole moment (field-independent basis, Debye-Ang):
   XX=            -13.1676   YY=            -11.7898   ZZ=            -13.9241
   XY=              2.3170   XZ=             -0.0488   YZ=             -0.1343

 Normal termination of Gaussian 09 at Wed Aug 26 10:48:00 2020.
