 Gaussian 09, Revision D.01,
 Gaussian 09:  ES64L-G09RevD.01 24-Apr-2013

 --------------------
 #p B2PLYPD3/Def2QZVP
 --------------------

 --------
 methanol
 --------
 Symbolic Z-matrix:
 Charge =  0 Multiplicity = 1

                         Standard orientation:
 ---------------------------------------------------------------------
 Center     Atomic      Atomic             Coordinates (Angstroms)
 Number     Number       Type             X           Y           Z
 ---------------------------------------------------------------------
      1          6           0       -0.658515    0.025002    0.001808
      2          8           0        0.738592   -0.151598   -0.005368
      3          1           0       -1.024151    0.566444   -0.858833
      4          1           0       -1.098401    0.454087    0.866668
      5          1           0       -1.066473   -0.879698   -0.035408
      6          1           0        1.231380    0.921941    0.059667
 ---------------------------------------------------------------------

 SCF Done:  E(RB2PLYPD3) =  -115.510377736     A.U. after   11 cycles
 E2(B2PLYPD3) =    -0.1510566019D+00 E(B2PLYPD3) =    -0.11566143433754D+03

 The electronic state is 1-A.
 Alpha  occ. eigenvalues --  -19.74298 -10.63651  -1.13365  -0.78836  -0.56095
 Alpha  occ. eigenvalues --   -0.51818  -0.50068  -0.40311  -0.35070
 Alpha virt. eigenvalues --    0.02641   0.07595   0.12652   0.12900   0.14991
 Alpha virt. eigenvalues --    0.17264   0.18686   0.26799   0.29436   0.33515
 Alpha virt. eigenvalues --    0.34840   0.38578   0.40283   0.41791   0.43546

 Mulliken charges:
               1
     1  C    0.073305
     2  O   -0.486025
     3  H    0.043462
     4  H    0.044803
     5  H    0.067428
     6  H    0.257027
 Sum of Mulliken charges =   0.00000

 Dipole moment (field-independent basis, Debye):
    X=             -0.8080    Y=              1.5880    Z=              0.1158  Tot=              1.7855
 Quadrupole moment (field-independent basis, Debye-Ang):
   XX=            -12.6825   YY=            -12.0415   ZZ=            -13.9251
   XY=              2.5627   XZ=              0.0582   YZ=              0.0725

 Normal termination of Gaussian 09 at Wed Aug 26 12:10:31 2020.
