 Gaussian 09, Revision D.01,
 Gaussian 09:  ES64L-G09RevD.01 24-Apr-2013

 --------------------
 #p B2PLYPD3/Def2QZVP
 --------------------

 --------
 methanol
 --------
 Symbolic Z-matrix:
 Charge =  0 Multiplicity = 1

                         Standard orientation:
 ---------------------------------------------------------------------
 Center     Atomic      Atomic             Coordinates (Angstroms)
 Number     Number       Type             X           Y           Z
 ---------------------------------------------------------------------
      1          6           0       -0.670884    0.005888    0.005474
      2          8           0        0.735444   -0.137268   -0.018100
      3          1           0       -1.052505    0.637069   -0.843354
      4          1           0       -1.004180    0.475846    0.886509
      5          1           0       -1.027834   -0.905510   -0.020733
      6          1           0        1.226268    0.855410    0.089535
 ---------------------------------------------------------------------

 SCF Done:  E(RB2PLYPD3) =  -115.523529039     A.U. after   11 cycles
 E2(B2PLYPD3) =    -0.1495960862D+00 E(B2PLYPD3) =    -0.11567312512505D+03

 The electronic state is 1-A.
 Alpha  occ. eigenvalues --  -19.73421 -10.64061  -1.13698  -0.78836  -0.57211
 Alpha  occ. eigenvalues --   -0.51187  -0.50596  -0.40820  -0.34648
 Alpha virt. eigenvalues --    0.03605   0.07848   0.12547   0.12782   0.15003
 Alpha virt. eigenvalues --    0.17118   0.18129   0.28883   0.30048   0.33181
 Alpha virt. eigenvalues --    0.34327   0.38466   0.40533   0.41090   0.43877

 Mulliken charges:
               1
     1  C    0.078312
     2  O   -0.492085
     3  H    0.039005
     4  H    0.043172
     5  H    0.078105
     6  H    0.253491
 Sum of Mulliken charges =   0.00000

 Dipole moment (field-independent basis, Debye):
    X=             -0.7845    Y=              1.5365    Z=              0.2523  Tot=              1.7436
 Quadrupole moment (field-independent basis, Debye-Ang):
   XX=            -12.7809   YY=            -11.9741   ZZ=            -13.9261
   XY=              2.5031   XZ=              0.1802   YZ=              0.1481

 Normal termination of Gaussian 09 at Wed Aug 26 14:23:24 2020.
