 Gaussian 09, Revision D.01,
 Gaussian 09:  ES64L-G09RevD.01 24-Apr-2013

 --------------------
 #p B2PLYPD3/Def2QZVP
 --------------------

 --------
 methanol
 --------
 Symbolic Z-matrix:
 Charge =  0 Multiplicity = 1

                         Standard orientation:
 ---------------------------------------------------------------------
 Center     Atomic      Atomic             Coordinates (Angstroms)
 Number     Number       Type             X           Y           Z
 ---------------------------------------------------------------------
      1          6           0        0.673737    0.015666   -0.004373
      2          8           0       -0.744583   -0.163265    0.006396
      3          1           0        1.022794    0.534343    0.850566
      4          1           0        0.939286    0.562058   -0.833148
      5          1           0        1.148870   -0.840650   -0.035084
      6          1           0       -1.196711    0.956372   -0.007263
 ---------------------------------------------------------------------

 SCF Done:  E(RB2PLYPD3) =  -115.500380103     A.U. after   11 cycles
 E2(B2PLYPD3) =    -0.1514503923D+00 E(B2PLYPD3) =    -0.11565183049507D+03

 The electronic state is 1-A.
 Alpha  occ. eigenvalues --  -19.74088 -10.63066  -1.12336  -0.79351  -0.55612
 Alpha  occ. eigenvalues --   -0.52120  -0.50218  -0.40524  -0.34881
 Alpha virt. eigenvalues --    0.02221   0.07677   0.12654   0.12888   0.14595
 Alpha virt. eigenvalues --    0.17972   0.18048   0.26233   0.29636   0.33132
 Alpha virt. eigenvalues --    0.33572   0.39345   0.41529   0.41857   0.43353

 Mulliken charges:
               1
     1  C    0.094417
     2  O   -0.500711
     3  H    0.041324
     4  H    0.041804
     5  H    0.067689
     6  H    0.255478
 Sum of Mulliken charges =   0.00000

 Dipole moment (field-independent basis, Debye):
    X=              0.9806    Y=              1.6686    Z=             -0.0567  Tot=              1.9362
 Quadrupole moment (field-independent basis, Debye-Ang):
   XX=            -12.8786   YY=            -11.8058   ZZ=            -13.8976
   XY=             -2.6213   XZ=              0.0454   YZ=             -0.0288

 Normal termination of Gaussian 09 at Wed Aug 26 16:24:12 2020.
