 Gaussian 09, Revision D.01,
 Gaussian 09:  ES64L-G09RevD.01 24-Apr-2013

 --------------------
 #p B2PLYPD3/Def2QZVP
 --------------------

 --------
 methanol
 --------
 Symbolic Z-matrix:
 Charge =  0 Multiplicity = 1

                         Standard orientation:
 ---------------------------------------------------------------------
 Center     Atomic      Atomic             Coordinates (Angstroms)
 Number     Number       Type             X           Y           Z
 ---------------------------------------------------------------------
      1          6           0        0.679213    0.023668    0.004286
      2          8           0       -0.748903   -0.136775   -0.000604
      3          1           0        1.012693    0.507227    0.887132
      4          1           0        1.004959    0.562857   -0.869691
      5          1           0        1.097127   -0.930571   -0.039819
      6          1           0       -1.198829    0.812679    0.001490
 ---------------------------------------------------------------------

 SCF Done:  E(RB2PLYPD3) =  -115.542711945     A.U. after   11 cycles
 E2(B2PLYPD3) =    -0.1487379954D+00 E(B2PLYPD3) =    -0.11569144994039D+03

 The electronic state is 1-A.
 Alpha  occ. eigenvalues --  -19.72980 -10.64602  -1.13748  -0.78884  -0.57017
 Alpha  occ. eigenvalues --   -0.52069  -0.49845  -0.40756  -0.35213
 Alpha virt. eigenvalues --    0.04371   0.07927   0.12463   0.12680   0.14703
 Alpha virt. eigenvalues --    0.17317   0.18166   0.29146   0.31878   0.33118
 Alpha virt. eigenvalues --    0.33460   0.39248   0.40378   0.41594   0.43821

 Mulliken charges:
               1
     1  C    0.079414
     2  O   -0.494142
     3  H    0.051301
     4  H    0.047246
     5  H    0.071523
     6  H    0.244658
 Sum of Mulliken charges =   0.00000

 Dipole moment (field-independent basis, Debye):
    X=              0.9151    Y=              1.5597    Z=              0.0110  Tot=              1.8084
 Quadrupole moment (field-independent basis, Debye-Ang):
   XX=            -12.8109   YY=            -12.1538   ZZ=            -13.7657
   XY=             -2.4500   XZ=              0.0047   YZ=              0.0280

 Normal termination of Gaussian 09 at Thu Aug 27 00:01:37 2020.
