 Gaussian 09, Revision D.01,
 Gaussian 09:  ES64L-G09RevD.01 24-Apr-2013

 --------------------
 #p B2PLYPD3/Def2QZVP
 --------------------

 --------
 methanol
 --------
 Symbolic Z-matrix:
 Charge =  0 Multiplicity = 1

                         Standard orientation:
 ---------------------------------------------------------------------
 Center     Atomic      Atomic             Coordinates (Angstroms)
 Number     Number       Type             X           Y           Z
 ---------------------------------------------------------------------
      1          6           0        0.667247    0.008871   -0.007845
      2          8           0       -0.739003   -0.149061    0.004640
      3          1           0        1.074737    0.510264    0.889809
      4          1           0        1.048125    0.571216   -0.828595
      5          1           0        1.045675   -0.863552   -0.040592
      6          1           0       -1.259997    0.921331   -0.010672
 ---------------------------------------------------------------------

 SCF Done:  E(RB2PLYPD3) =  -115.501655061     A.U. after   11 cycles
 E2(B2PLYPD3) =    -0.1511691903D+00 E(B2PLYPD3) =    -0.11565282425148D+03

 The electronic state is 1-A.
 Alpha  occ. eigenvalues --  -19.74167 -10.63621  -1.12942  -0.79083  -0.56306
 Alpha  occ. eigenvalues --   -0.50830  -0.50685  -0.40603  -0.34706
 Alpha virt. eigenvalues --    0.02495   0.07590   0.12684   0.12924   0.14999
 Alpha virt. eigenvalues --    0.17271   0.18397   0.26699   0.29522   0.33362
 Alpha virt. eigenvalues --    0.34460   0.38230   0.40743   0.41060   0.43443

 Mulliken charges:
               1
     1  C    0.075338
     2  O   -0.493870
     3  H    0.039577
     4  H    0.041928
     5  H    0.078358
     6  H    0.258669
 Sum of Mulliken charges =   0.00000

 Dipole moment (field-independent basis, Debye):
    X=              0.7835    Y=              1.5804    Z=             -0.0750  Tot=              1.7656
 Quadrupole moment (field-independent basis, Debye-Ang):
   XX=            -12.5914   YY=            -11.9336   ZZ=            -14.0238
   XY=             -2.6157   XZ=             -0.0181   YZ=             -0.0423

 Normal termination of Gaussian 09 at Wed Aug 26 14:47:16 2020.
