 Gaussian 09, Revision D.01,
 Gaussian 09:  ES64L-G09RevD.01 24-Apr-2013

 --------------------
 #p B2PLYPD3/Def2QZVP
 --------------------

 --------
 methanol
 --------
 Symbolic Z-matrix:
 Charge =  0 Multiplicity = 1

                         Standard orientation:
 ---------------------------------------------------------------------
 Center     Atomic      Atomic             Coordinates (Angstroms)
 Number     Number       Type             X           Y           Z
 ---------------------------------------------------------------------
      1          6           0       -0.681930   -0.007093   -0.008585
      2          8           0        0.735344   -0.012585    0.042888
      3          1           0       -1.039108   -0.924698   -0.713230
      4          1           0       -0.921583    1.186465   -0.412504
      5          1           0       -1.005706   -0.145295    1.095406
      6          1           0        1.175225    0.026762   -0.261267
 ---------------------------------------------------------------------

 SCF Done:  E(RB2PLYPD3) =  -114.940565583     A.U. after   11 cycles
 E2(B2PLYPD3) =    -0.1438368093D+00 E(B2PLYPD3) =    -0.11508440239241D+03

 The electronic state is 1-A.
 Alpha  occ. eigenvalues --  -19.67133 -10.71605  -1.29799  -0.86307  -0.60894
 Alpha  occ. eigenvalues --   -0.51441  -0.50914  -0.37835  -0.35555
 Alpha virt. eigenvalues --    0.04670   0.09854   0.10809   0.11706   0.13161
 Alpha virt. eigenvalues --    0.16292   0.17484   0.28802   0.30100   0.31996
 Alpha virt. eigenvalues --    0.34456   0.36632   0.36984   0.41235   0.42680

 Mulliken charges:
               1
     1  C    0.055422
     2  O   -0.108296
     3  H    0.063278
     4  H    0.050627
     5  H    0.100592
     6  H   -0.161624
 Sum of Mulliken charges =   0.00000

 Dipole moment (field-independent basis, Debye):
    X=             -0.7783    Y=              0.0133    Z=             -0.7191  Tot=              1.0597
 Quadrupole moment (field-independent basis, Debye-Ang):
   XX=            -12.7887   YY=            -13.1537   ZZ=            -12.9145
   XY=              0.4485   XZ=             -1.5620   YZ=              0.0419

 Normal termination of Gaussian 09 at Wed Aug 26 21:25:06 2020.
