 Gaussian 09, Revision D.01,
 Gaussian 09:  ES64L-G09RevD.01 24-Apr-2013

 --------------------
 #p B2PLYPD3/Def2QZVP
 --------------------

 --------
 methanol
 --------
 Symbolic Z-matrix:
 Charge =  0 Multiplicity = 1

                         Standard orientation:
 ---------------------------------------------------------------------
 Center     Atomic      Atomic             Coordinates (Angstroms)
 Number     Number       Type             X           Y           Z
 ---------------------------------------------------------------------
      1          6           0        0.682409   -0.005404    0.002699
      2          8           0       -0.762173    0.099149   -0.012203
      3          1           0        1.043775   -0.665821   -0.867073
      4          1           0        1.034783   -0.395378    0.995221
      5          1           0        1.013699    0.978609   -0.124181
      6          1           0       -1.089326   -0.678180    0.077464
 ---------------------------------------------------------------------

 SCF Done:  E(RB2PLYPD3) =  -115.534787219     A.U. after   10 cycles
 E2(B2PLYPD3) =    -0.1459287816D+00 E(B2PLYPD3) =    -0.11568071600101D+03

 The electronic state is 1-A.
 Alpha  occ. eigenvalues --  -19.71327 -10.66556  -1.18121  -0.79651  -0.59241
 Alpha  occ. eigenvalues --   -0.51192  -0.50288  -0.41824  -0.35663
 Alpha virt. eigenvalues --    0.05341   0.08614   0.11910   0.12482   0.14527
 Alpha virt. eigenvalues --    0.16974   0.18027   0.28934   0.32012   0.33210
 Alpha virt. eigenvalues --    0.36824   0.39187   0.39564   0.40774   0.43860

 Mulliken charges:
               1
     1  C    0.065440
     2  O   -0.409651
     3  H    0.047915
     4  H    0.052511
     5  H    0.082125
     6  H    0.161660
 Sum of Mulliken charges =   0.00000

 Dipole moment (field-independent basis, Debye):
    X=              1.0428    Y=             -1.3313    Z=              0.1767  Tot=              1.7003
 Quadrupole moment (field-independent basis, Debye-Ang):
   XX=            -13.2673   YY=            -12.2785   ZZ=            -13.5831
   XY=              2.1083   XZ=             -0.2206   YZ=             -0.1339

 Normal termination of Gaussian 09 at Wed Aug 26 13:08:53 2020.
