 Gaussian 09, Revision D.01,
 Gaussian 09:  ES64L-G09RevD.01 24-Apr-2013

 --------------------
 #p B2PLYPD3/Def2QZVP
 --------------------

 --------
 methanol
 --------
 Symbolic Z-matrix:
 Charge =  0 Multiplicity = 1

                         Standard orientation:
 ---------------------------------------------------------------------
 Center     Atomic      Atomic             Coordinates (Angstroms)
 Number     Number       Type             X           Y           Z
 ---------------------------------------------------------------------
      1          6           0       -0.666692   -0.025334    0.010038
      2          8           0        0.756752    0.108885   -0.017666
      3          1           0       -1.030328   -0.422412    0.931133
      4          1           0       -1.066668   -0.639239   -0.863721
      5          1           0       -1.077585    1.028767   -0.077258
      6          1           0        1.120718   -0.686190    0.090946
 ---------------------------------------------------------------------

 SCF Done:  E(RB2PLYPD3) =  -115.543789732     A.U. after   10 cycles
 E2(B2PLYPD3) =    -0.1463609044D+00 E(B2PLYPD3) =    -0.11569015063598D+03

 The electronic state is 1-A.
 Alpha  occ. eigenvalues --  -19.71977 -10.66579  -1.17807  -0.79026  -0.59727
 Alpha  occ. eigenvalues --   -0.51675  -0.49346  -0.41116  -0.35823
 Alpha virt. eigenvalues --    0.05258   0.08436   0.12132   0.12262   0.14799
 Alpha virt. eigenvalues --    0.17156   0.18196   0.28967   0.32875   0.33442
 Alpha virt. eigenvalues --    0.36999   0.37938   0.39420   0.40888   0.43258

 Mulliken charges:
               1
     1  C    0.063172
     2  O   -0.422086
     3  H    0.057053
     4  H    0.048513
     5  H    0.067282
     6  H    0.186066
 Sum of Mulliken charges =   0.00000

 Dipole moment (field-independent basis, Debye):
    X=             -0.9146    Y=             -1.4329    Z=              0.2679  Tot=              1.7209
 Quadrupole moment (field-independent basis, Debye-Ang):
   XX=            -13.0570   YY=            -12.3916   ZZ=            -13.7007
   XY=             -2.0943   XZ=              0.2102   YZ=             -0.1542

 Normal termination of Gaussian 09 at Wed Aug 26 09:55:43 2020.
