 Gaussian 09, Revision D.01,
 Gaussian 09:  ES64L-G09RevD.01 24-Apr-2013

 --------------------
 #p B2PLYPD3/Def2QZVP
 --------------------

 --------
 methanol
 --------
 Symbolic Z-matrix:
 Charge =  0 Multiplicity = 1

                         Standard orientation:
 ---------------------------------------------------------------------
 Center     Atomic      Atomic             Coordinates (Angstroms)
 Number     Number       Type             X           Y           Z
 ---------------------------------------------------------------------
      1          6           0        0.679800    0.016590    0.002582
      2          8           0       -0.747043   -0.156713   -0.004384
      3          1           0        1.013509    0.444701    0.871279
      4          1           0        1.096637    0.576702   -0.781254
      5          1           0        0.979396   -0.888427   -0.067700
      6          1           0       -1.191999    1.021186   -0.002748
 ---------------------------------------------------------------------

 SCF Done:  E(RB2PLYPD3) =  -115.481678877     A.U. after   11 cycles
 E2(B2PLYPD3) =    -0.1529881153D+00 E(B2PLYPD3) =    -0.11563466699275D+03

 The electronic state is 1-A.
 Alpha  occ. eigenvalues --  -19.74573 -10.62673  -1.11902  -0.79523  -0.56388
 Alpha  occ. eigenvalues --   -0.51964  -0.48580  -0.40918  -0.35140
 Alpha virt. eigenvalues --    0.01520   0.07621   0.12617   0.12832   0.14927
 Alpha virt. eigenvalues --    0.16965   0.18404   0.25059   0.29433   0.33348
 Alpha virt. eigenvalues --    0.34105   0.38411   0.40015   0.42289   0.44211

 Mulliken charges:
               1
     1  C    0.081779
     2  O   -0.494848
     3  H    0.048457
     4  H    0.042658
     5  H    0.076016
     6  H    0.245938
 Sum of Mulliken charges =   0.00000

 Dipole moment (field-independent basis, Debye):
    X=              1.0521    Y=              1.6546    Z=              0.0155  Tot=              1.9608
 Quadrupole moment (field-independent basis, Debye-Ang):
   XX=            -13.0652   YY=            -11.5614   ZZ=            -13.9371
   XY=             -2.3539   XZ=             -0.0530   YZ=              0.0284

 Normal termination of Gaussian 09 at Wed Aug 26 14:59:00 2020.
