 Gaussian 09, Revision D.01,
 Gaussian 09:  ES64L-G09RevD.01 24-Apr-2013

 --------------------
 #p B2PLYPD3/Def2QZVP
 --------------------

 --------
 methanol
 --------
 Symbolic Z-matrix:
 Charge =  0 Multiplicity = 1

                         Standard orientation:
 ---------------------------------------------------------------------
 Center     Atomic      Atomic             Coordinates (Angstroms)
 Number     Number       Type             X           Y           Z
 ---------------------------------------------------------------------
      1          6           0        0.665142    0.017580    0.002372
      2          8           0       -0.751698   -0.139239   -0.002634
      3          1           0        1.029896    0.504515    0.875318
      4          1           0        1.084603    0.550338   -0.838063
      5          1           0        1.067238   -0.933314   -0.023844
      6          1           0       -1.159000    0.886896   -0.006575
 ---------------------------------------------------------------------

 SCF Done:  E(RB2PLYPD3) =  -115.532289673     A.U. after   11 cycles
 E2(B2PLYPD3) =    -0.1498983821D+00 E(B2PLYPD3) =    -0.11568218805512D+03

 The electronic state is 1-A.
 Alpha  occ. eigenvalues --  -19.73868 -10.64377  -1.13745  -0.78671  -0.56968
 Alpha  occ. eigenvalues --   -0.51498  -0.49621  -0.41183  -0.35224
 Alpha virt. eigenvalues --    0.03723   0.07756   0.12576   0.12643   0.14981
 Alpha virt. eigenvalues --    0.17350   0.18352   0.28680   0.30195   0.33483
 Alpha virt. eigenvalues --    0.34039   0.38764   0.40037   0.41320   0.43791

 Mulliken charges:
               1
     1  C    0.076032
     2  O   -0.484465
     3  H    0.046299
     4  H    0.042875
     5  H    0.068421
     6  H    0.250839
 Sum of Mulliken charges =   0.00000

 Dipole moment (field-independent basis, Debye):
    X=              0.9301    Y=              1.6016    Z=              0.0059  Tot=              1.8521
 Quadrupole moment (field-independent basis, Debye-Ang):
   XX=            -12.9887   YY=            -11.9539   ZZ=            -13.9412
   XY=             -2.3605   XZ=             -0.0249   YZ=              0.0113

 Normal termination of Gaussian 09 at Wed Aug 26 20:56:12 2020.
