 Gaussian 09, Revision D.01,
 Gaussian 09:  ES64L-G09RevD.01 24-Apr-2013

 --------------------
 #p B2PLYPD3/Def2QZVP
 --------------------

 --------
 methanol
 --------
 Symbolic Z-matrix:
 Charge =  0 Multiplicity = 1

                         Standard orientation:
 ---------------------------------------------------------------------
 Center     Atomic      Atomic             Coordinates (Angstroms)
 Number     Number       Type             X           Y           Z
 ---------------------------------------------------------------------
      1          6           0        0.675262    0.027643   -0.006130
      2          8           0       -0.746085   -0.142532    0.001405
      3          1           0        1.030078    0.497937    0.872563
      4          1           0        1.030414    0.571774   -0.808285
      5          1           0        1.065146   -0.958797   -0.034980
      6          1           0       -1.208530    0.863486   -0.003758
 ---------------------------------------------------------------------

 SCF Done:  E(RB2PLYPD3) =  -115.531505207     A.U. after   11 cycles
 E2(B2PLYPD3) =    -0.1497761891D+00 E(B2PLYPD3) =    -0.11568128139601D+03

 The electronic state is 1-A.
 Alpha  occ. eigenvalues --  -19.73529 -10.64135  -1.13249  -0.78795  -0.57011
 Alpha  occ. eigenvalues --   -0.51997  -0.49130  -0.40898  -0.35190
 Alpha virt. eigenvalues --    0.03764   0.07795   0.12450   0.12746   0.15010
 Alpha virt. eigenvalues --    0.17160   0.18207   0.28849   0.30242   0.33509
 Alpha virt. eigenvalues --    0.33780   0.39082   0.39524   0.41982   0.44373

 Mulliken charges:
               1
     1  C    0.081352
     2  O   -0.494701
     3  H    0.047827
     4  H    0.048202
     5  H    0.068373
     6  H    0.248946
 Sum of Mulliken charges =   0.00000

 Dipole moment (field-independent basis, Debye):
    X=              0.8997    Y=              1.6353    Z=             -0.0285  Tot=              1.8666
 Quadrupole moment (field-independent basis, Debye-Ang):
   XX=            -12.8204   YY=            -11.9651   ZZ=            -13.9018
   XY=             -2.3697   XZ=             -0.0198   YZ=             -0.0365

 Normal termination of Gaussian 09 at Wed Aug 26 10:40:39 2020.
