 Gaussian 09, Revision D.01,
 Gaussian 09:  ES64L-G09RevD.01 24-Apr-2013

 --------------------
 #p B2PLYPD3/Def2QZVP
 --------------------

 --------
 methanol
 --------
 Symbolic Z-matrix:
 Charge =  0 Multiplicity = 1

                         Standard orientation:
 ---------------------------------------------------------------------
 Center     Atomic      Atomic             Coordinates (Angstroms)
 Number     Number       Type             X           Y           Z
 ---------------------------------------------------------------------
      1          6           0        0.663471   -0.037052    0.010203
      2          8           0       -0.745956    0.137705   -0.011693
      3          1           0        0.993152   -0.626869   -0.819556
      4          1           0        1.033298   -0.403357    0.854681
      5          1           0        1.064613    1.002958   -0.084231
      6          1           0       -1.104240   -0.852057    0.081429
 ---------------------------------------------------------------------

 SCF Done:  E(RB2PLYPD3) =  -115.534422513     A.U. after   11 cycles
 E2(B2PLYPD3) =    -0.1490123916D+00 E(B2PLYPD3) =    -0.11568343490423D+03

 The electronic state is 1-A.
 Alpha  occ. eigenvalues --  -19.73415 -10.64376  -1.14697  -0.78755  -0.57795
 Alpha  occ. eigenvalues --   -0.53086  -0.48616  -0.40970  -0.35587
 Alpha virt. eigenvalues --    0.04195   0.08067   0.12197   0.12589   0.14987
 Alpha virt. eigenvalues --    0.17298   0.18280   0.28964   0.31257   0.33430
 Alpha virt. eigenvalues --    0.34480   0.37706   0.39881   0.42551   0.45132

 Mulliken charges:
               1
     1  C    0.077398
     2  O   -0.474101
     3  H    0.046701
     4  H    0.052384
     5  H    0.057212
     6  H    0.240406
 Sum of Mulliken charges =   0.00000

 Dipole moment (field-independent basis, Debye):
    X=              0.9664    Y=             -1.6525    Z=              0.2165  Tot=              1.9265
 Quadrupole moment (field-independent basis, Debye-Ang):
   XX=            -13.2906   YY=            -11.9640   ZZ=            -13.7751
   XY=              2.1358   XZ=             -0.0702   YZ=             -0.1270

 Normal termination of Gaussian 09 at Wed Aug 26 16:15:21 2020.
