 Gaussian 09, Revision D.01,
 Gaussian 09:  ES64L-G09RevD.01 24-Apr-2013

 --------------------
 #p B2PLYPD3/Def2QZVP
 --------------------

 --------
 methanol
 --------
 Symbolic Z-matrix:
 Charge =  0 Multiplicity = 1

                         Standard orientation:
 ---------------------------------------------------------------------
 Center     Atomic      Atomic             Coordinates (Angstroms)
 Number     Number       Type             X           Y           Z
 ---------------------------------------------------------------------
      1          6           0       -0.665075   -0.021402    0.001793
      2          8           0        0.743766    0.112326   -0.001210
      3          1           0       -1.044039   -0.522834    0.902137
      4          1           0       -0.991832   -0.600964   -0.886794
      5          1           0       -1.099223    1.016116   -0.042189
      6          1           0        1.175422   -0.662514    0.025774
 ---------------------------------------------------------------------

 SCF Done:  E(RB2PLYPD3) =  -115.546744397     A.U. after   10 cycles
 E2(B2PLYPD3) =    -0.1460242474D+00 E(B2PLYPD3) =    -0.11569276864438D+03

 The electronic state is 1-A.
 Alpha  occ. eigenvalues --  -19.71690 -10.66437  -1.17661  -0.79176  -0.59842
 Alpha  occ. eigenvalues --   -0.51659  -0.49960  -0.40589  -0.35398
 Alpha virt. eigenvalues --    0.05273   0.08456   0.12271   0.12354   0.14836
 Alpha virt. eigenvalues --    0.17164   0.17921   0.29157   0.33092   0.33672
 Alpha virt. eigenvalues --    0.36833   0.38706   0.39613   0.40558   0.43158

 Mulliken charges:
               1
     1  C    0.068789
     2  O   -0.430849
     3  H    0.049808
     4  H    0.047225
     5  H    0.072693
     6  H    0.192333
 Sum of Mulliken charges =   0.00000

 Dipole moment (field-independent basis, Debye):
    X=             -0.7863    Y=             -1.4300    Z=              0.0593  Tot=              1.6330
 Quadrupole moment (field-independent basis, Debye-Ang):
   XX=            -12.8114   YY=            -12.4052   ZZ=            -13.7778
   XY=             -2.2199   XZ=              0.0152   YZ=             -0.0436

 Normal termination of Gaussian 09 at Thu Aug 27 00:15:12 2020.
