 Gaussian 09, Revision D.01,
 Gaussian 09:  ES64L-G09RevD.01 24-Apr-2013

 --------------------
 #p B2PLYPD3/Def2QZVP
 --------------------

 --------
 methanol
 --------
 Symbolic Z-matrix:
 Charge =  0 Multiplicity = 1

                         Standard orientation:
 ---------------------------------------------------------------------
 Center     Atomic      Atomic             Coordinates (Angstroms)
 Number     Number       Type             X           Y           Z
 ---------------------------------------------------------------------
      1          6           0       -0.654680    0.013104   -0.001157
      2          8           0        0.730457   -0.158845   -0.007404
      3          1           0       -1.029656    0.557513   -0.835873
      4          1           0       -0.966448    0.555270    0.837932
      5          1           0       -1.133861   -0.849157    0.038321
      6          1           0        1.214393    0.928504    0.025798
 ---------------------------------------------------------------------

 SCF Done:  E(RB2PLYPD3) =  -115.506866678     A.U. after   11 cycles
 E2(B2PLYPD3) =    -0.1506797168D+00 E(B2PLYPD3) =    -0.11565754639469D+03

 The electronic state is 1-A.
 Alpha  occ. eigenvalues --  -19.74069 -10.63140  -1.13650  -0.78947  -0.56355
 Alpha  occ. eigenvalues --   -0.51817  -0.50981  -0.40345  -0.34634
 Alpha virt. eigenvalues --    0.02369   0.07723   0.12771   0.12952   0.14903
 Alpha virt. eigenvalues --    0.17870   0.18161   0.26541   0.29682   0.33192
 Alpha virt. eigenvalues --    0.34879   0.39269   0.41554   0.41700   0.43446

 Mulliken charges:
               1
     1  C    0.088465
     2  O   -0.488459
     3  H    0.037564
     4  H    0.035430
     5  H    0.067687
     6  H    0.259313
 Sum of Mulliken charges =   0.00000

 Dipole moment (field-independent basis, Debye):
    X=             -0.8041    Y=              1.6462    Z=              0.0842  Tot=              1.8340
 Quadrupole moment (field-independent basis, Debye-Ang):
   XX=            -12.7392   YY=            -11.8876   ZZ=            -13.9814
   XY=              2.6286   XZ=              0.0690   YZ=              0.0220

 Normal termination of Gaussian 09 at Wed Aug 26 12:02:55 2020.
