 Gaussian 09, Revision D.01,
 Gaussian 09:  ES64L-G09RevD.01 24-Apr-2013

 --------------------
 #p B2PLYPD3/Def2QZVP
 --------------------

 --------
 methanol
 --------
 Symbolic Z-matrix:
 Charge =  0 Multiplicity = 1

                         Standard orientation:
 ---------------------------------------------------------------------
 Center     Atomic      Atomic             Coordinates (Angstroms)
 Number     Number       Type             X           Y           Z
 ---------------------------------------------------------------------
      1          6           0        0.656883   -0.028005    0.000096
      2          8           0       -0.754903    0.090678    0.005297
      3          1           0        0.948285   -0.650590   -0.931061
      4          1           0        1.098979   -0.460281    0.996299
      5          1           0        1.163952    1.052574   -0.132105
      6          1           0       -1.113289   -0.499099    0.023919
 ---------------------------------------------------------------------

 SCF Done:  E(RB2PLYPD3) =  -115.402723409     A.U. after   11 cycles
 E2(B2PLYPD3) =    -0.1441563681D+00 E(B2PLYPD3) =    -0.11554687977688D+03

 The electronic state is 1-A.
 Alpha  occ. eigenvalues --  -19.69870 -10.69066  -1.24687  -0.81187  -0.61685
 Alpha  occ. eigenvalues --   -0.51752  -0.49951  -0.39985  -0.36251
 Alpha virt. eigenvalues --    0.05283   0.09064   0.11764   0.11878   0.14152
 Alpha virt. eigenvalues --    0.17205   0.17974   0.28494   0.32457   0.33170
 Alpha virt. eigenvalues --    0.35167   0.37513   0.38812   0.40327   0.43123

 Mulliken charges:
               1
     1  C    0.049613
     2  O   -0.239336
     3  H    0.052087
     4  H    0.054072
     5  H    0.071917
     6  H    0.011646
 Sum of Mulliken charges =   0.00000

 Dipole moment (field-independent basis, Debye):
    X=              0.8715    Y=             -1.2144    Z=              0.0151  Tot=              1.4948
 Quadrupole moment (field-independent basis, Debye-Ang):
   XX=            -12.9334   YY=            -12.8180   ZZ=            -13.5253
   XY=              2.0188   XZ=              0.0331   YZ=             -0.0212

 Normal termination of Gaussian 09 at Wed Aug 26 15:53:39 2020.
