 Gaussian 09, Revision D.01,
 Gaussian 09:  ES64L-G09RevD.01 24-Apr-2013

 --------------------
 #p B2PLYPD3/Def2QZVP
 --------------------

 --------
 methanol
 --------
 Symbolic Z-matrix:
 Charge =  0 Multiplicity = 1

                         Standard orientation:
 ---------------------------------------------------------------------
 Center     Atomic      Atomic             Coordinates (Angstroms)
 Number     Number       Type             X           Y           Z
 ---------------------------------------------------------------------
      1          6           0       -0.660623   -0.024422    0.021586
      2          8           0        0.740473    0.092936   -0.023711
      3          1           0       -0.932006   -0.403124    0.995623
      4          1           0       -1.059138   -0.647197   -0.900930
      5          1           0       -1.043732    1.036462   -0.111793
      6          1           0        1.074827   -0.583097    0.077275
 ---------------------------------------------------------------------

 SCF Done:  E(RB2PLYPD3) =  -115.487183156     A.U. after   10 cycles
 E2(B2PLYPD3) =    -0.1443343487D+00 E(B2PLYPD3) =    -0.11563151750473D+03

 The electronic state is 1-A.
 Alpha  occ. eigenvalues --  -19.70324 -10.67177  -1.22174  -0.80447  -0.60967
 Alpha  occ. eigenvalues --   -0.52560  -0.50100  -0.40811  -0.35881
 Alpha virt. eigenvalues --    0.05430   0.09118   0.11856   0.12175   0.14379
 Alpha virt. eigenvalues --    0.16991   0.18016   0.28703   0.32865   0.33360
 Alpha virt. eigenvalues --    0.36699   0.38626   0.40318   0.41052   0.43552

 Mulliken charges:
               1
     1  C    0.055728
     2  O   -0.307054
     3  H    0.059059
     4  H    0.043700
     5  H    0.071626
     6  H    0.076942
 Sum of Mulliken charges =   0.00000

 Dipole moment (field-independent basis, Debye):
    X=             -0.8650    Y=             -1.2640    Z=              0.2889  Tot=              1.5586
 Quadrupole moment (field-independent basis, Debye-Ang):
   XX=            -13.2990   YY=            -12.5496   ZZ=            -13.3909
   XY=             -1.9933   XZ=              0.2916   YZ=             -0.1928

 Normal termination of Gaussian 09 at Wed Aug 26 13:50:25 2020.
