 Gaussian 09, Revision D.01,
 Gaussian 09:  ES64L-G09RevD.01 24-Apr-2013

 --------------------
 #p B2PLYPD3/Def2QZVP
 --------------------

 --------
 methanol
 --------
 Symbolic Z-matrix:
 Charge =  0 Multiplicity = 1

                         Standard orientation:
 ---------------------------------------------------------------------
 Center     Atomic      Atomic             Coordinates (Angstroms)
 Number     Number       Type             X           Y           Z
 ---------------------------------------------------------------------
      1          6           0        0.676781   -0.003830    0.008180
      2          8           0       -0.765993   -0.178226   -0.021765
      3          1           0        1.168662    0.267399    0.830827
      4          1           0        0.977465    0.760231   -0.766381
      5          1           0        1.095807   -0.721201   -0.139732
      6          1           0       -1.174675    1.142363    0.200326
 ---------------------------------------------------------------------

 SCF Done:  E(RB2PLYPD3) =  -115.388349674     A.U. after   12 cycles
 E2(B2PLYPD3) =    -0.1566816682D+00 E(B2PLYPD3) =    -0.11554503134263D+03

 The electronic state is 1-A.
 Alpha  occ. eigenvalues --  -19.75833 -10.62152  -1.10809  -0.82237  -0.54643
 Alpha  occ. eigenvalues --   -0.51620  -0.48898  -0.40132  -0.35102
 Alpha virt. eigenvalues --   -0.01519   0.07220   0.12437   0.12904   0.14576
 Alpha virt. eigenvalues --    0.17839   0.18891   0.22295   0.29299   0.31783
 Alpha virt. eigenvalues --    0.33973   0.36596   0.39981   0.42833   0.43475

 Mulliken charges:
               1
     1  C    0.029315
     2  O   -0.482425
     3  H    0.043318
     4  H    0.034241
     5  H    0.128202
     6  H    0.247349
 Sum of Mulliken charges =   0.00000

 Dipole moment (field-independent basis, Debye):
    X=              1.1683    Y=              1.6125    Z=              0.3703  Tot=              2.0254
 Quadrupole moment (field-independent basis, Debye-Ang):
   XX=            -12.9937   YY=            -11.4143   ZZ=            -14.0729
   XY=             -2.6633   XZ=             -0.1319   YZ=              0.3048

 Normal termination of Gaussian 09 at Wed Aug 26 22:13:57 2020.
