 Gaussian 09, Revision D.01,
 Gaussian 09:  ES64L-G09RevD.01 24-Apr-2013

 --------------------
 #p B2PLYPD3/Def2QZVP
 --------------------

 --------
 methanol
 --------
 Symbolic Z-matrix:
 Charge =  0 Multiplicity = 1

                         Standard orientation:
 ---------------------------------------------------------------------
 Center     Atomic      Atomic             Coordinates (Angstroms)
 Number     Number       Type             X           Y           Z
 ---------------------------------------------------------------------
      1          6           0        0.664964   -0.015137    0.020657
      2          8           0       -0.751636    0.086904   -0.013883
      3          1           0        1.030344   -0.711194   -0.879866
      4          1           0        0.951465   -0.470787    0.969746
      5          1           0        1.130148    1.078258   -0.132449
      6          1           0       -1.088646   -0.500690    0.029695
 ---------------------------------------------------------------------

 SCF Done:  E(RB2PLYPD3) =  -115.386857926     A.U. after   11 cycles
 E2(B2PLYPD3) =    -0.1437389807D+00 E(B2PLYPD3) =    -0.11553059690670D+03

 The electronic state is 1-A.
 Alpha  occ. eigenvalues --  -19.69375 -10.68579  -1.24987  -0.81507  -0.61905
 Alpha  occ. eigenvalues --   -0.51849  -0.49917  -0.40780  -0.35998
 Alpha virt. eigenvalues --    0.05279   0.09319   0.11606   0.11931   0.14491
 Alpha virt. eigenvalues --    0.17057   0.17421   0.28683   0.32542   0.32635
 Alpha virt. eigenvalues --    0.35603   0.37320   0.40123   0.40855   0.42798

 Mulliken charges:
               1
     1  C    0.060620
     2  O   -0.238957
     3  H    0.039022
     4  H    0.060744
     5  H    0.078059
     6  H    0.000511
 Sum of Mulliken charges =   0.00000

 Dipole moment (field-independent basis, Debye):
    X=              0.9361    Y=             -1.2182    Z=              0.1875  Tot=              1.5477
 Quadrupole moment (field-independent basis, Debye-Ang):
   XX=            -13.1331   YY=            -12.5036   ZZ=            -13.5591
   XY=              1.9668   XZ=             -0.1170   YZ=             -0.1718

 Normal termination of Gaussian 09 at Wed Aug 26 14:25:50 2020.
