 Gaussian 09, Revision D.01,
 Gaussian 09:  ES64L-G09RevD.01 24-Apr-2013

 --------------------
 #p B2PLYPD3/Def2QZVP
 --------------------

 --------
 methanol
 --------
 Symbolic Z-matrix:
 Charge =  0 Multiplicity = 1

                         Standard orientation:
 ---------------------------------------------------------------------
 Center     Atomic      Atomic             Coordinates (Angstroms)
 Number     Number       Type             X           Y           Z
 ---------------------------------------------------------------------
      1          6           0       -0.661029   -0.021484    0.008026
      2          8           0        0.745081    0.098920   -0.023328
      3          1           0       -0.978442   -0.344356    1.003183
      4          1           0       -1.039720   -0.722643   -0.825446
      5          1           0       -1.067443    1.021288   -0.156146
      6          1           0        1.091134   -0.616745    0.116880
 ---------------------------------------------------------------------

 SCF Done:  E(RB2PLYPD3) =  -115.519806264     A.U. after   10 cycles
 E2(B2PLYPD3) =    -0.1449632207D+00 E(B2PLYPD3) =    -0.11566476948486D+03

 The electronic state is 1-A.
 Alpha  occ. eigenvalues --  -19.70965 -10.66944  -1.20450  -0.79747  -0.60562
 Alpha  occ. eigenvalues --   -0.52097  -0.50068  -0.40944  -0.35783
 Alpha virt. eigenvalues --    0.05387   0.08906   0.11987   0.12248   0.14584
 Alpha virt. eigenvalues --    0.17086   0.17988   0.28864   0.33073   0.33386
 Alpha virt. eigenvalues --    0.37246   0.38638   0.39909   0.40658   0.43364

 Mulliken charges:
               1
     1  C    0.060527
     2  O   -0.358517
     3  H    0.053779
     4  H    0.046567
     5  H    0.071214
     6  H    0.126429
 Sum of Mulliken charges =   0.00000

 Dipole moment (field-independent basis, Debye):
    X=             -0.8759    Y=             -1.3165    Z=              0.3197  Tot=              1.6133
 Quadrupole moment (field-independent basis, Debye-Ang):
   XX=            -13.2084   YY=            -12.4635   ZZ=            -13.5449
   XY=             -2.0342   XZ=              0.3667   YZ=             -0.1666

 Normal termination of Gaussian 09 at Wed Aug 26 12:44:34 2020.
