 Gaussian 09, Revision D.01,
 Gaussian 09:  ES64L-G09RevD.01 24-Apr-2013

 --------------------
 #p B2PLYPD3/Def2QZVP
 --------------------

 --------
 methanol
 --------
 Symbolic Z-matrix:
 Charge =  0 Multiplicity = 1

                         Standard orientation:
 ---------------------------------------------------------------------
 Center     Atomic      Atomic             Coordinates (Angstroms)
 Number     Number       Type             X           Y           Z
 ---------------------------------------------------------------------
      1          6           0        0.648524   -0.024568    0.007818
      2          8           0       -0.735746    0.071680   -0.021072
      3          1           0        1.066280   -0.853155   -0.711573
      4          1           0        0.859753   -0.223889    1.123016
      5          1           0        1.097777    1.076554   -0.310050
      6          1           0       -1.028988   -0.425540    0.020278
 ---------------------------------------------------------------------

 SCF Done:  E(RB2PLYPD3) =  -115.142035421     A.U. after   11 cycles
 E2(B2PLYPD3) =    -0.1428116014D+00 E(B2PLYPD3) =    -0.11528484702291D+03

 The electronic state is 1-A.
 Alpha  occ. eigenvalues --  -19.68548 -10.69187  -1.30805  -0.83635  -0.62437
 Alpha  occ. eigenvalues --   -0.52726  -0.50413  -0.40478  -0.36096
 Alpha virt. eigenvalues --    0.05151   0.09734   0.11360   0.11851   0.14231
 Alpha virt. eigenvalues --    0.16699   0.17609   0.28366   0.32242   0.33440
 Alpha virt. eigenvalues --    0.35093   0.37293   0.38997   0.41715   0.43333

 Mulliken charges:
               1
     1  C    0.047957
     2  O   -0.124652
     3  H    0.047068
     4  H    0.056161
     5  H    0.069835
     6  H   -0.096370
 Sum of Mulliken charges =   0.00000

 Dipole moment (field-independent basis, Debye):
    X=              0.8561    Y=             -1.1396    Z=              0.1042  Tot=              1.4291
 Quadrupole moment (field-independent basis, Debye-Ang):
   XX=            -13.3560   YY=            -12.5360   ZZ=            -13.3682
   XY=              1.6980   XZ=             -0.4060   YZ=             -0.0031

 Normal termination of Gaussian 09 at Wed Aug 26 22:08:25 2020.
