 Gaussian 09, Revision D.01,
 Gaussian 09:  ES64L-G09RevD.01 24-Apr-2013

 --------------------
 #p B2PLYPD3/Def2QZVP
 --------------------

 --------
 methanol
 --------
 Symbolic Z-matrix:
 Charge =  0 Multiplicity = 1

                         Standard orientation:
 ---------------------------------------------------------------------
 Center     Atomic      Atomic             Coordinates (Angstroms)
 Number     Number       Type             X           Y           Z
 ---------------------------------------------------------------------
      1          6           0        0.670171    0.030912   -0.027585
      2          8           0       -0.734469   -0.173751    0.024943
      3          1           0        1.196313    0.549700    0.790656
      4          1           0        0.987005    0.539238   -0.717470
      5          1           0        1.024299   -0.916492   -0.052710
      6          1           0       -1.352889    1.032089   -0.054508
 ---------------------------------------------------------------------

 SCF Done:  E(RB2PLYPD3) =  -115.440700751     A.U. after   11 cycles
 E2(B2PLYPD3) =    -0.1549177758D+00 E(B2PLYPD3) =    -0.11559561852655D+03

 The electronic state is 1-A.
 Alpha  occ. eigenvalues --  -19.75283 -10.62569  -1.11876  -0.80034  -0.56849
 Alpha  occ. eigenvalues --   -0.50641  -0.48855  -0.40013  -0.34797
 Alpha virt. eigenvalues --   -0.00441   0.07279   0.12291   0.13363   0.15193
 Alpha virt. eigenvalues --    0.17071   0.18431   0.22900   0.29488   0.33127
 Alpha virt. eigenvalues --    0.34428   0.38268   0.38766   0.40775   0.46308

 Mulliken charges:
               1
     1  C    0.074509
     2  O   -0.483487
     3  H    0.035150
     4  H    0.061266
     5  H    0.069810
     6  H    0.242753
 Sum of Mulliken charges =   0.00000

 Dipole moment (field-independent basis, Debye):
    X=              0.8166    Y=              1.7017    Z=             -0.2860  Tot=              1.9090
 Quadrupole moment (field-independent basis, Debye-Ang):
   XX=            -12.3580   YY=            -11.6218   ZZ=            -14.2983
   XY=             -2.5087   XZ=              0.0690   YZ=             -0.2063

 Normal termination of Gaussian 09 at Wed Aug 26 21:04:18 2020.
