 Gaussian 09, Revision D.01,
 Gaussian 09:  ES64L-G09RevD.01 24-Apr-2013

 --------------------
 #p B2PLYPD3/Def2QZVP
 --------------------

 --------
 methanol
 --------
 Symbolic Z-matrix:
 Charge =  0 Multiplicity = 1

                         Standard orientation:
 ---------------------------------------------------------------------
 Center     Atomic      Atomic             Coordinates (Angstroms)
 Number     Number       Type             X           Y           Z
 ---------------------------------------------------------------------
      1          6           0        0.658674    0.010934   -0.037777
      2          8           0       -0.758413   -0.137448    0.021125
      3          1           0        1.133693    0.607189    0.843220
      4          1           0        0.952644    0.555382   -0.781838
      5          1           0        1.166846   -0.972299    0.026945
      6          1           0       -1.137922    0.843706   -0.030661
 ---------------------------------------------------------------------

 SCF Done:  E(RB2PLYPD3) =  -115.525696024     A.U. after   10 cycles
 E2(B2PLYPD3) =    -0.1493299096D+00 E(B2PLYPD3) =    -0.11567502593347D+03

 The electronic state is 1-A.
 Alpha  occ. eigenvalues --  -19.73803 -10.65225  -1.14666  -0.78858  -0.58455
 Alpha  occ. eigenvalues --   -0.51207  -0.49073  -0.41676  -0.34878
 Alpha virt. eigenvalues --    0.04120   0.07657   0.12165   0.12735   0.15049
 Alpha virt. eigenvalues --    0.17653   0.18244   0.29216   0.31090   0.32904
 Alpha virt. eigenvalues --    0.33620   0.37634   0.38771   0.40892   0.44114

 Mulliken charges:
               1
     1  C    0.082275
     2  O   -0.474186
     3  H    0.022801
     4  H    0.052702
     5  H    0.069620
     6  H    0.246788
 Sum of Mulliken charges =   0.00000

 Dipole moment (field-independent basis, Debye):
    X=              0.9005    Y=              1.6220    Z=             -0.2555  Tot=              1.8727
 Quadrupole moment (field-independent basis, Debye-Ang):
   XX=            -13.0087   YY=            -11.9517   ZZ=            -14.1764
   XY=             -2.3465   XZ=              0.0413   YZ=             -0.2813

 Normal termination of Gaussian 09 at Wed Aug 26 19:07:42 2020.
