 Gaussian 09, Revision D.01,
 Gaussian 09:  ES64L-G09RevD.01 24-Apr-2013

 --------------------
 #p B2PLYPD3/Def2QZVP
 --------------------

 --------
 methanol
 --------
 Symbolic Z-matrix:
 Charge =  0 Multiplicity = 1

                         Standard orientation:
 ---------------------------------------------------------------------
 Center     Atomic      Atomic             Coordinates (Angstroms)
 Number     Number       Type             X           Y           Z
 ---------------------------------------------------------------------
      1          6           0        0.663835    0.029274   -0.009533
      2          8           0       -0.745433   -0.144801    0.005423
      3          1           0        1.022152    0.551284    0.845100
      4          1           0        1.015798    0.497938   -0.832433
      5          1           0        1.081036   -0.957427    0.024049
      6          1           0       -1.138535    0.890970   -0.022905
 ---------------------------------------------------------------------

 SCF Done:  E(RB2PLYPD3) =  -115.529280439     A.U. after   11 cycles
 E2(B2PLYPD3) =    -0.1497708209D+00 E(B2PLYPD3) =    -0.11567905125976D+03

 The electronic state is 1-A.
 Alpha  occ. eigenvalues --  -19.73742 -10.63941  -1.13889  -0.78775  -0.57142
 Alpha  occ. eigenvalues --   -0.52505  -0.49138  -0.41012  -0.35331
 Alpha virt. eigenvalues --    0.03672   0.07884   0.12470   0.12670   0.14976
 Alpha virt. eigenvalues --    0.17419   0.18238   0.28667   0.30049   0.33547
 Alpha virt. eigenvalues --    0.34225   0.38782   0.39830   0.42274   0.44499

 Mulliken charges:
               1
     1  C    0.082755
     2  O   -0.484580
     3  H    0.043575
     4  H    0.047939
     5  H    0.062208
     6  H    0.248103
 Sum of Mulliken charges =   0.00000

 Dipole moment (field-independent basis, Debye):
    X=              0.9563    Y=              1.6600    Z=             -0.0851  Tot=              1.9177
 Quadrupole moment (field-independent basis, Debye-Ang):
   XX=            -13.1242   YY=            -11.8952   ZZ=            -13.8574
   XY=             -2.2844   XZ=              0.0118   YZ=             -0.0778

 Normal termination of Gaussian 09 at Wed Aug 26 09:58:49 2020.
