 Gaussian 09, Revision D.01,
 Gaussian 09:  ES64L-G09RevD.01 24-Apr-2013

 --------------------
 #p B2PLYPD3/Def2QZVP
 --------------------

 --------
 methanol
 --------
 Symbolic Z-matrix:
 Charge =  0 Multiplicity = 1

                         Standard orientation:
 ---------------------------------------------------------------------
 Center     Atomic      Atomic             Coordinates (Angstroms)
 Number     Number       Type             X           Y           Z
 ---------------------------------------------------------------------
      1          6           0       -0.665164    0.010170    0.012773
      2          8           0        0.770017   -0.168715   -0.013390
      3          1           0       -1.292192    0.519863   -0.754693
      4          1           0       -1.040317    0.484423    0.796837
      5          1           0       -1.020769   -0.870260   -0.000466
      6          1           0        1.184126    1.154670   -0.011196
 ---------------------------------------------------------------------

 SCF Done:  E(RB2PLYPD3) =  -115.434514158     A.U. after   11 cycles
 E2(B2PLYPD3) =    -0.1569215668D+00 E(B2PLYPD3) =    -0.11559143572453D+03

 The electronic state is 1-A.
 Alpha  occ. eigenvalues --  -19.76249 -10.63055  -1.11368  -0.80227  -0.55608
 Alpha  occ. eigenvalues --   -0.50194  -0.48571  -0.40498  -0.35229
 Alpha virt. eigenvalues --   -0.01202   0.07025   0.12339   0.13084   0.14897
 Alpha virt. eigenvalues --    0.17305   0.18757   0.22220   0.29124   0.32301
 Alpha virt. eigenvalues --    0.34300   0.37519   0.39059   0.41149   0.44098

 Mulliken charges:
               1
     1  C    0.080391
     2  O   -0.472286
     3  H    0.031711
     4  H    0.046450
     5  H    0.070729
     6  H    0.243005
 Sum of Mulliken charges =   0.00000

 Dipole moment (field-independent basis, Debye):
    X=             -1.1070    Y=              1.6926    Z=              0.1302  Tot=              2.0266
 Quadrupole moment (field-independent basis, Debye-Ang):
   XX=            -12.9892   YY=            -11.3512   ZZ=            -14.3985
   XY=              2.3518   XZ=             -0.0165   YZ=              0.1053

 Normal termination of Gaussian 09 at Wed Aug 26 22:35:40 2020.
