 Gaussian 09, Revision D.01,
 Gaussian 09:  ES64L-G09RevD.01 24-Apr-2013

 --------------------
 #p B2PLYPD3/Def2QZVP
 --------------------

 --------
 methanol
 --------
 Symbolic Z-matrix:
 Charge =  0 Multiplicity = 1

                         Standard orientation:
 ---------------------------------------------------------------------
 Center     Atomic      Atomic             Coordinates (Angstroms)
 Number     Number       Type             X           Y           Z
 ---------------------------------------------------------------------
      1          6           0        0.675523   -0.016335    0.003417
      2          8           0       -0.750113    0.090171   -0.011316
      3          1           0        1.102296   -0.658401   -0.829502
      4          1           0        1.005621   -0.412740    0.969002
      5          1           0        0.957458    1.083613   -0.105774
      6          1           0       -1.117612   -0.635832    0.036303
 ---------------------------------------------------------------------

 SCF Done:  E(RB2PLYPD3) =  -115.521789986     A.U. after   11 cycles
 E2(B2PLYPD3) =    -0.1453617030D+00 E(B2PLYPD3) =    -0.11566715168876D+03

 The electronic state is 1-A.
 Alpha  occ. eigenvalues --  -19.70906 -10.66995  -1.19466  -0.79758  -0.60538
 Alpha  occ. eigenvalues --   -0.51562  -0.49126  -0.41262  -0.35787
 Alpha virt. eigenvalues --    0.05372   0.08788   0.11849   0.12250   0.14959
 Alpha virt. eigenvalues --    0.16590   0.17957   0.29056   0.32611   0.33462
 Alpha virt. eigenvalues --    0.37403   0.38645   0.40096   0.40200   0.42570

 Mulliken charges:
               1
     1  C    0.056598
     2  O   -0.371272
     3  H    0.050913
     4  H    0.057010
     5  H    0.075253
     6  H    0.131497
 Sum of Mulliken charges =   0.00000

 Dipole moment (field-independent basis, Debye):
    X=              0.8898    Y=             -1.3734    Z=              0.1279  Tot=              1.6415
 Quadrupole moment (field-independent basis, Debye-Ang):
   XX=            -13.1640   YY=            -12.2671   ZZ=            -13.6783
   XY=              1.8772   XZ=             -0.1627   YZ=             -0.0662

 Normal termination of Gaussian 09 at Wed Aug 26 13:09:30 2020.
