 Gaussian 09, Revision D.01,
 Gaussian 09:  ES64L-G09RevD.01 24-Apr-2013

 --------------------
 #p B2PLYPD3/Def2QZVP
 --------------------

 --------
 methanol
 --------
 Symbolic Z-matrix:
 Charge =  0 Multiplicity = 1

                         Standard orientation:
 ---------------------------------------------------------------------
 Center     Atomic      Atomic             Coordinates (Angstroms)
 Number     Number       Type             X           Y           Z
 ---------------------------------------------------------------------
      1          6           0        0.655311   -0.024688    0.003428
      2          8           0       -0.744350    0.115200    0.002572
      3          1           0        0.990305   -0.581119   -0.898216
      4          1           0        1.058583   -0.501995    0.912778
      5          1           0        1.107972    0.999630   -0.061588
      6          1           0       -1.133925   -0.689984    0.005880
 ---------------------------------------------------------------------

 SCF Done:  E(RB2PLYPD3) =  -115.548218319     A.U. after   10 cycles
 E2(B2PLYPD3) =    -0.1461635489D+00 E(B2PLYPD3) =    -0.11569438186800D+03

 The electronic state is 1-A.
 Alpha  occ. eigenvalues --  -19.72053 -10.66321  -1.18084  -0.78918  -0.59819
 Alpha  occ. eigenvalues --   -0.51936  -0.50057  -0.40663  -0.35553
 Alpha virt. eigenvalues --    0.05226   0.08444   0.12275   0.12384   0.14755
 Alpha virt. eigenvalues --    0.17335   0.18140   0.29002   0.33193   0.33923
 Alpha virt. eigenvalues --    0.36483   0.38610   0.39806   0.40645   0.43536

 Mulliken charges:
               1
     1  C    0.063737
     2  O   -0.424204
     3  H    0.045897
     4  H    0.050382
     5  H    0.067638
     6  H    0.196550
 Sum of Mulliken charges =   0.00000

 Dipole moment (field-independent basis, Debye):
    X=              0.8074    Y=             -1.4434    Z=              0.0059  Tot=              1.6539
 Quadrupole moment (field-independent basis, Debye-Ang):
   XX=            -12.9758   YY=            -12.4328   ZZ=            -13.7340
   XY=              2.2108   XZ=              0.0432   YZ=             -0.0279

 Normal termination of Gaussian 09 at Wed Aug 26 14:22:10 2020.
