 Gaussian 09, Revision D.01,
 Gaussian 09:  ES64L-G09RevD.01 24-Apr-2013

 --------------------
 #p B2PLYPD3/Def2QZVP
 --------------------

 --------
 methanol
 --------
 Symbolic Z-matrix:
 Charge =  0 Multiplicity = 1

                         Standard orientation:
 ---------------------------------------------------------------------
 Center     Atomic      Atomic             Coordinates (Angstroms)
 Number     Number       Type             X           Y           Z
 ---------------------------------------------------------------------
      1          6           0       -0.652690    0.015259    0.018765
      2          8           0        0.740331    0.067647   -0.029380
      3          1           0       -1.062419   -0.278150    1.088155
      4          1           0       -1.029025   -0.917301   -0.780716
      5          1           0       -1.142665    0.958174   -0.349028
      6          1           0        1.227603   -0.395453    0.164039
 ---------------------------------------------------------------------

 SCF Done:  E(RB2PLYPD3) =  -115.399034351     A.U. after   11 cycles
 E2(B2PLYPD3) =    -0.1444972644D+00 E(B2PLYPD3) =    -0.11554353161507D+03

 The electronic state is 1-A.
 Alpha  occ. eigenvalues --  -19.69795 -10.70051  -1.23857  -0.82856  -0.61892
 Alpha  occ. eigenvalues --   -0.51880  -0.50002  -0.39151  -0.34782
 Alpha virt. eigenvalues --    0.05165   0.08926   0.11338   0.12211   0.14263
 Alpha virt. eigenvalues --    0.17033   0.17728   0.28917   0.31280   0.32911
 Alpha virt. eigenvalues --    0.35724   0.37378   0.37613   0.41287   0.42036

 Mulliken charges:
               1
     1  C    0.055129
     2  O   -0.234730
     3  H    0.046496
     4  H    0.022665
     5  H    0.097684
     6  H    0.012755
 Sum of Mulliken charges =   0.00000

 Dipole moment (field-independent basis, Debye):
    X=             -0.5603    Y=             -0.8090    Z=              0.5085  Tot=              1.1077
 Quadrupole moment (field-independent basis, Debye-Ang):
   XX=            -12.4222   YY=            -13.1688   ZZ=            -13.6602
   XY=             -2.0313   XZ=              0.5958   YZ=             -0.4250

 Normal termination of Gaussian 09 at Wed Aug 26 23:49:07 2020.
