 Gaussian 09, Revision D.01,
 Gaussian 09:  ES64L-G09RevD.01 24-Apr-2013

 --------------------
 #p B2PLYPD3/Def2QZVP
 --------------------

 --------
 methanol
 --------
 Symbolic Z-matrix:
 Charge =  0 Multiplicity = 1

                         Standard orientation:
 ---------------------------------------------------------------------
 Center     Atomic      Atomic             Coordinates (Angstroms)
 Number     Number       Type             X           Y           Z
 ---------------------------------------------------------------------
      1          6           0        0.655181   -0.017786   -0.009756
      2          8           0       -0.744091    0.104636    0.007330
      3          1           0        0.983239   -0.541194   -0.923429
      4          1           0        1.042174   -0.541001    0.942198
      5          1           0        1.077671    1.004672   -0.005745
      6          1           0       -1.081446   -0.652847   -0.013127
 ---------------------------------------------------------------------

 SCF Done:  E(RB2PLYPD3) =  -115.530674394     A.U. after   10 cycles
 E2(B2PLYPD3) =    -0.1451860029D+00 E(B2PLYPD3) =    -0.11567586039693D+03

 The electronic state is 1-A.
 Alpha  occ. eigenvalues --  -19.71347 -10.66684  -1.20084  -0.79506  -0.60434
 Alpha  occ. eigenvalues --   -0.51999  -0.50462  -0.41109  -0.35616
 Alpha virt. eigenvalues --    0.05360   0.08816   0.12041   0.12376   0.14616
 Alpha virt. eigenvalues --    0.17262   0.18006   0.28843   0.33003   0.33717
 Alpha virt. eigenvalues --    0.37100   0.39163   0.39884   0.40458   0.43586

 Mulliken charges:
               1
     1  C    0.061070
     2  O   -0.375156
     3  H    0.050295
     4  H    0.042614
     5  H    0.072534
     6  H    0.148644
 Sum of Mulliken charges =   0.00000

 Dipole moment (field-independent basis, Debye):
    X=              0.8658    Y=             -1.3520    Z=             -0.0904  Tot=              1.6080
 Quadrupole moment (field-independent basis, Debye-Ang):
   XX=            -13.2258   YY=            -12.4167   ZZ=            -13.6189
   XY=              2.1258   XZ=              0.0376   YZ=              0.0746

 Normal termination of Gaussian 09 at Wed Aug 26 09:51:57 2020.
