 Gaussian 09, Revision D.01,
 Gaussian 09:  ES64L-G09RevD.01 24-Apr-2013

 --------------------
 #p B2PLYPD3/Def2QZVP
 --------------------

 --------
 methanol
 --------
 Symbolic Z-matrix:
 Charge =  0 Multiplicity = 1

                         Standard orientation:
 ---------------------------------------------------------------------
 Center     Atomic      Atomic             Coordinates (Angstroms)
 Number     Number       Type             X           Y           Z
 ---------------------------------------------------------------------
      1          6           0        0.675845   -0.022611    0.008471
      2          8           0       -0.745918    0.082781   -0.008998
      3          1           0        1.047135   -0.694279   -0.862953
      4          1           0        1.015520   -0.409236    0.998199
      5          1           0        1.027350    1.091903   -0.150774
      6          1           0       -1.177732   -0.514969    0.036687
 ---------------------------------------------------------------------

 SCF Done:  E(RB2PLYPD3) =  -115.463513885     A.U. after   11 cycles
 E2(B2PLYPD3) =    -0.1443995090D+00 E(B2PLYPD3) =    -0.11560791339374D+03

 The electronic state is 1-A.
 Alpha  occ. eigenvalues --  -19.69713 -10.68293  -1.21660  -0.81104  -0.61019
 Alpha  occ. eigenvalues --   -0.51610  -0.49562  -0.39887  -0.35905
 Alpha virt. eigenvalues --    0.05389   0.09053   0.11750   0.12041   0.14551
 Alpha virt. eigenvalues --    0.16606   0.17830   0.28984   0.32488   0.33046
 Alpha virt. eigenvalues --    0.36554   0.38168   0.39991   0.40262   0.42099

 Mulliken charges:
               1
     1  C    0.054879
     2  O   -0.294065
     3  H    0.050934
     4  H    0.061178
     5  H    0.078326
     6  H    0.048748
 Sum of Mulliken charges =   0.00000

 Dipole moment (field-independent basis, Debye):
    X=              0.8009    Y=             -1.2363    Z=              0.1340  Tot=              1.4791
 Quadrupole moment (field-independent basis, Debye-Ang):
   XX=            -12.8239   YY=            -12.6086   ZZ=            -13.5529
   XY=              1.9080   XZ=             -0.1309   YZ=             -0.0845

 Normal termination of Gaussian 09 at Wed Aug 26 15:02:14 2020.
