 Gaussian 09, Revision D.01,
 Gaussian 09:  ES64L-G09RevD.01 24-Apr-2013

 --------------------
 #p B2PLYPD3/Def2QZVP
 --------------------

 --------
 methanol
 --------
 Symbolic Z-matrix:
 Charge =  0 Multiplicity = 1

                         Standard orientation:
 ---------------------------------------------------------------------
 Center     Atomic      Atomic             Coordinates (Angstroms)
 Number     Number       Type             X           Y           Z
 ---------------------------------------------------------------------
      1          6           0        0.685856   -0.019992    0.013942
      2          8           0       -0.760950    0.076151   -0.010723
      3          1           0        0.979807   -0.775514   -0.857272
      4          1           0        1.096652   -0.305007    1.021008
      5          1           0        1.022176    1.073405   -0.272009
      6          1           0       -1.126170   -0.482145    0.110405
 ---------------------------------------------------------------------

 SCF Done:  E(RB2PLYPD3) =  -115.383892956     A.U. after   11 cycles
 E2(B2PLYPD3) =    -0.1441757647D+00 E(B2PLYPD3) =    -0.11552806872101D+03

 The electronic state is 1-A.
 Alpha  occ. eigenvalues --  -19.69085 -10.68985  -1.23954  -0.81402  -0.61123
 Alpha  occ. eigenvalues --   -0.51386  -0.49327  -0.40508  -0.36243
 Alpha virt. eigenvalues --    0.05291   0.09152   0.11612   0.11789   0.14221
 Alpha virt. eigenvalues --    0.16587   0.17905   0.28736   0.31079   0.33237
 Alpha virt. eigenvalues --    0.36023   0.37489   0.39112   0.40709   0.42251

 Mulliken charges:
               1
     1  C    0.049881
     2  O   -0.243354
     3  H    0.052687
     4  H    0.067021
     5  H    0.081453
     6  H   -0.007688
 Sum of Mulliken charges =   0.00000

 Dipole moment (field-independent basis, Debye):
    X=              0.9893    Y=             -1.1565    Z=              0.3044  Tot=              1.5520
 Quadrupole moment (field-independent basis, Debye-Ang):
   XX=            -13.0389   YY=            -12.6410   ZZ=            -13.3750
   XY=              1.8583   XZ=             -0.2060   YZ=             -0.2055

 Normal termination of Gaussian 09 at Wed Aug 26 13:07:00 2020.
