 Gaussian 09, Revision D.01,
 Gaussian 09:  ES64L-G09RevD.01 24-Apr-2013

 --------------------
 #p B2PLYPD3/Def2QZVP
 --------------------

 --------
 methanol
 --------
 Symbolic Z-matrix:
 Charge =  0 Multiplicity = 1

                         Standard orientation:
 ---------------------------------------------------------------------
 Center     Atomic      Atomic             Coordinates (Angstroms)
 Number     Number       Type             X           Y           Z
 ---------------------------------------------------------------------
      1          6           0        0.686706   -0.017326    0.015325
      2          8           0       -0.737896    0.091533   -0.008196
      3          1           0        1.052452   -0.681604   -0.835715
      4          1           0        1.003960   -0.460492    0.904142
      5          1           0        0.945503    1.116983   -0.117936
      6          1           0       -1.218981   -0.603196    0.023125
 ---------------------------------------------------------------------

 SCF Done:  E(RB2PLYPD3) =  -115.525310898     A.U. after   11 cycles
 E2(B2PLYPD3) =    -0.1456831965D+00 E(B2PLYPD3) =    -0.11567099409464D+03

 The electronic state is 1-A.
 Alpha  occ. eigenvalues --  -19.70607 -10.66891  -1.17808  -0.80002  -0.60571
 Alpha  occ. eigenvalues --   -0.51585  -0.48856  -0.40116  -0.35366
 Alpha virt. eigenvalues --    0.05335   0.08710   0.11543   0.12462   0.15047
 Alpha virt. eigenvalues --    0.16473   0.17623   0.29191   0.32751   0.33154
 Alpha virt. eigenvalues --    0.36845   0.38586   0.39397   0.41081   0.42877

 Mulliken charges:
               1
     1  C    0.066972
     2  O   -0.413863
     3  H    0.045396
     4  H    0.062374
     5  H    0.080006
     6  H    0.159116
 Sum of Mulliken charges =   0.00000

 Dipole moment (field-independent basis, Debye):
    X=              0.7412    Y=             -1.3806    Z=              0.1433  Tot=              1.5735
 Quadrupole moment (field-independent basis, Debye-Ang):
   XX=            -12.7888   YY=            -12.2753   ZZ=            -13.7728
   XY=              1.9137   XZ=             -0.0145   YZ=             -0.1324

 Normal termination of Gaussian 09 at Wed Aug 26 19:33:01 2020.
