 Gaussian 09, Revision D.01,
 Gaussian 09:  ES64L-G09RevD.01 24-Apr-2013

 --------------------
 #p B2PLYPD3/Def2QZVP
 --------------------

 --------
 methanol
 --------
 Symbolic Z-matrix:
 Charge =  0 Multiplicity = 1

                         Standard orientation:
 ---------------------------------------------------------------------
 Center     Atomic      Atomic             Coordinates (Angstroms)
 Number     Number       Type             X           Y           Z
 ---------------------------------------------------------------------
      1          6           0        0.658680    0.024654    0.001827
      2          8           0       -0.739923   -0.142526   -0.005219
      3          1           0        0.989990    0.493886    0.892247
      4          1           0        1.036327    0.579243   -0.840474
      5          1           0        1.122329   -0.922802   -0.032647
      6          1           0       -1.181343    0.841955    0.011667
 ---------------------------------------------------------------------

 SCF Done:  E(RB2PLYPD3) =  -115.538642173     A.U. after   11 cycles
 E2(B2PLYPD3) =    -0.1489973147D+00 E(B2PLYPD3) =    -0.11568763948764D+03

 The electronic state is 1-A.
 Alpha  occ. eigenvalues --  -19.73465 -10.64426  -1.14479  -0.78493  -0.57249
 Alpha  occ. eigenvalues --   -0.52105  -0.50119  -0.40562  -0.35118
 Alpha virt. eigenvalues --    0.03989   0.07863   0.12548   0.12745   0.14844
 Alpha virt. eigenvalues --    0.17575   0.18251   0.29020   0.30679   0.33349
 Alpha virt. eigenvalues --    0.34381   0.39354   0.40228   0.41670   0.43701

 Mulliken charges:
               1
     1  C    0.076229
     2  O   -0.482116
     3  H    0.046046
     4  H    0.042896
     5  H    0.066219
     6  H    0.250726
 Sum of Mulliken charges =   0.00000

 Dipole moment (field-independent basis, Debye):
    X=              0.8279    Y=              1.5931    Z=              0.0426  Tot=              1.7959
 Quadrupole moment (field-independent basis, Debye-Ang):
   XX=            -12.8577   YY=            -12.1322   ZZ=            -13.8574
   XY=             -2.4568   XZ=             -0.0664   YZ=              0.0234

 Normal termination of Gaussian 09 at Thu Aug 27 00:10:19 2020.
