 Gaussian 09, Revision D.01,
 Gaussian 09:  ES64L-G09RevD.01 24-Apr-2013

 --------------------
 #p B2PLYPD3/Def2QZVP
 --------------------

 --------
 methanol
 --------
 Symbolic Z-matrix:
 Charge =  0 Multiplicity = 1

                         Standard orientation:
 ---------------------------------------------------------------------
 Center     Atomic      Atomic             Coordinates (Angstroms)
 Number     Number       Type             X           Y           Z
 ---------------------------------------------------------------------
      1          6           0        0.669789    0.010075   -0.013488
      2          8           0       -0.735488   -0.153948    0.012951
      3          1           0        1.099618    0.512083    0.886786
      4          1           0        0.983271    0.552725   -0.832799
      5          1           0        1.027229   -0.845232   -0.053387
      6          1           0       -1.244944    0.951556   -0.023286
 ---------------------------------------------------------------------

 SCF Done:  E(RB2PLYPD3) =  -115.487041244     A.U. after   11 cycles
 E2(B2PLYPD3) =    -0.1516161995D+00 E(B2PLYPD3) =    -0.11563865744305D+03

 The electronic state is 1-A.
 Alpha  occ. eigenvalues --  -19.74206 -10.63033  -1.12767  -0.79415  -0.56400
 Alpha  occ. eigenvalues --   -0.51246  -0.50456  -0.40597  -0.34713
 Alpha virt. eigenvalues --    0.02082   0.07644   0.12653   0.12970   0.14931
 Alpha virt. eigenvalues --    0.17226   0.18384   0.26019   0.29484   0.33158
 Alpha virt. eigenvalues --    0.34453   0.38294   0.40571   0.41672   0.43884

 Mulliken charges:
               1
     1  C    0.073366
     2  O   -0.494562
     3  H    0.039324
     4  H    0.043460
     5  H    0.082489
     6  H    0.255924
 Sum of Mulliken charges =   0.00000

 Dipole moment (field-independent basis, Debye):
    X=              0.8346    Y=              1.5914    Z=             -0.1547  Tot=              1.8036
 Quadrupole moment (field-independent basis, Debye-Ang):
   XX=            -12.7351   YY=            -11.8318   ZZ=            -13.9393
   XY=             -2.6127   XZ=              0.0331   YZ=             -0.0847

 Normal termination of Gaussian 09 at Wed Aug 26 16:28:49 2020.
