 Gaussian 09, Revision D.01,
 Gaussian 09:  ES64L-G09RevD.01 24-Apr-2013

 --------------------
 #p B2PLYPD3/Def2QZVP
 --------------------

 --------
 methanol
 --------
 Symbolic Z-matrix:
 Charge =  0 Multiplicity = 1

                         Standard orientation:
 ---------------------------------------------------------------------
 Center     Atomic      Atomic             Coordinates (Angstroms)
 Number     Number       Type             X           Y           Z
 ---------------------------------------------------------------------
      1          6           0       -0.667736   -0.012904    0.024011
      2          8           0        0.764397    0.084612   -0.024721
      3          1           0       -1.030981   -0.332761    0.992066
      4          1           0       -1.107116   -0.782404   -0.819888
      5          1           0       -1.099000    1.059686   -0.222752
      6          1           0        1.128338   -0.543991    0.104273
 ---------------------------------------------------------------------

 SCF Done:  E(RB2PLYPD3) =  -115.459275714     A.U. after   11 cycles
 E2(B2PLYPD3) =    -0.1448186270D+00 E(B2PLYPD3) =    -0.11560409434124D+03

 The electronic state is 1-A.
 Alpha  occ. eigenvalues --  -19.70465 -10.68624  -1.22238  -0.80479  -0.61489
 Alpha  occ. eigenvalues --   -0.50921  -0.49520  -0.40859  -0.36043
 Alpha virt. eigenvalues --    0.05299   0.08825   0.11625   0.12006   0.14648
 Alpha virt. eigenvalues --    0.17017   0.17926   0.28776   0.32123   0.32720
 Alpha virt. eigenvalues --    0.35799   0.36936   0.39952   0.40783   0.42010

 Mulliken charges:
               1
     1  C    0.054001
     2  O   -0.290008
     3  H    0.065515
     4  H    0.039012
     5  H    0.076058
     6  H    0.055423
 Sum of Mulliken charges =   0.00000

 Dipole moment (field-independent basis, Debye):
    X=             -0.9130    Y=             -1.2121    Z=              0.3918  Tot=              1.5673
 Quadrupole moment (field-independent basis, Debye-Ang):
   XX=            -12.9316   YY=            -12.6423   ZZ=            -13.6500
   XY=             -1.9652   XZ=              0.2889   YZ=             -0.2719

 Normal termination of Gaussian 09 at Wed Aug 26 16:02:47 2020.
