 Gaussian 09, Revision D.01,
 Gaussian 09:  ES64L-G09RevD.01 24-Apr-2013

 --------------------
 #p B2PLYPD3/Def2QZVP
 --------------------

 --------
 methanol
 --------
 Symbolic Z-matrix:
 Charge =  0 Multiplicity = 1

                         Standard orientation:
 ---------------------------------------------------------------------
 Center     Atomic      Atomic             Coordinates (Angstroms)
 Number     Number       Type             X           Y           Z
 ---------------------------------------------------------------------
      1          6           0       -0.670483    0.020769    0.007117
      2          8           0        0.745345   -0.135915   -0.013214
      3          1           0       -1.006641    0.611903   -0.850672
      4          1           0       -0.974594    0.462225    0.892255
      5          1           0       -1.099469   -0.931810   -0.042960
      6          1           0        1.140841    0.820388    0.064386
 ---------------------------------------------------------------------

 SCF Done:  E(RB2PLYPD3) =  -115.543404943     A.U. after   10 cycles
 E2(B2PLYPD3) =    -0.1483794390D+00 E(B2PLYPD3) =    -0.11569178438220D+03

 The electronic state is 1-A.
 Alpha  occ. eigenvalues --  -19.72961 -10.64417  -1.14548  -0.78871  -0.57514
 Alpha  occ. eigenvalues --   -0.52318  -0.49970  -0.41074  -0.35196
 Alpha virt. eigenvalues --    0.04416   0.08100   0.12421   0.12660   0.14743
 Alpha virt. eigenvalues --    0.17469   0.18061   0.29180   0.32071   0.33273
 Alpha virt. eigenvalues --    0.33718   0.39372   0.40440   0.41597   0.44201

 Mulliken charges:
               1
     1  C    0.080311
     2  O   -0.483369
     3  H    0.043829
     4  H    0.048279
     5  H    0.069432
     6  H    0.241517
 Sum of Mulliken charges =   0.00000

 Dipole moment (field-independent basis, Debye):
    X=             -0.9466    Y=              1.5607    Z=              0.1820  Tot=              1.8343
 Quadrupole moment (field-independent basis, Debye-Ang):
   XX=            -13.0760   YY=            -12.0652   ZZ=            -13.7379
   XY=              2.3752   XZ=              0.1358   YZ=              0.1144

 Normal termination of Gaussian 09 at Thu Aug 27 00:00:36 2020.
