 Gaussian 09, Revision D.01,
 Gaussian 09:  ES64L-G09RevD.01 24-Apr-2013

 --------------------
 #p B2PLYPD3/Def2QZVP
 --------------------

 --------
 methanol
 --------
 Symbolic Z-matrix:
 Charge =  0 Multiplicity = 1

                         Standard orientation:
 ---------------------------------------------------------------------
 Center     Atomic      Atomic             Coordinates (Angstroms)
 Number     Number       Type             X           Y           Z
 ---------------------------------------------------------------------
      1          6           0       -0.658474    0.018523    0.006376
      2          8           0        0.748351   -0.137704   -0.004231
      3          1           0       -1.067950    0.556237   -0.835951
      4          1           0       -1.015610    0.527665    0.844779
      5          1           0       -1.085330   -0.961721   -0.013853
      6          1           0        1.132926    0.868318    0.000615
 ---------------------------------------------------------------------

 SCF Done:  E(RB2PLYPD3) =  -115.537829523     A.U. after   11 cycles
 E2(B2PLYPD3) =    -0.1492778864D+00 E(B2PLYPD3) =    -0.11568710740974D+03

 The electronic state is 1-A.
 Alpha  occ. eigenvalues --  -19.73706 -10.64509  -1.14506  -0.78539  -0.57674
 Alpha  occ. eigenvalues --   -0.51672  -0.49561  -0.41277  -0.35202
 Alpha virt. eigenvalues --    0.03970   0.07878   0.12442   0.12691   0.15082
 Alpha virt. eigenvalues --    0.17473   0.18164   0.29021   0.30740   0.33492
 Alpha virt. eigenvalues --    0.34337   0.38814   0.39729   0.41473   0.44240

 Mulliken charges:
               1
     1  C    0.078296
     2  O   -0.477144
     3  H    0.040201
     4  H    0.045179
     5  H    0.065781
     6  H    0.247688
 Sum of Mulliken charges =   0.00000

 Dipole moment (field-independent basis, Debye):
    X=             -0.9161    Y=              1.6277    Z=              0.0389  Tot=              1.8682
 Quadrupole moment (field-independent basis, Debye-Ang):
   XX=            -13.0862   YY=            -11.9225   ZZ=            -13.9735
   XY=              2.2790   XZ=              0.0150   YZ=              0.0419

 Normal termination of Gaussian 09 at Thu Aug 27 00:03:54 2020.
