 Gaussian 09, Revision D.01,
 Gaussian 09:  ES64L-G09RevD.01 24-Apr-2013

 --------------------
 #p B2PLYPD3/Def2QZVP
 --------------------

 --------
 methanol
 --------
 Symbolic Z-matrix:
 Charge =  0 Multiplicity = 1

                         Standard orientation:
 ---------------------------------------------------------------------
 Center     Atomic      Atomic             Coordinates (Angstroms)
 Number     Number       Type             X           Y           Z
 ---------------------------------------------------------------------
      1          6           0       -0.680695   -0.026788    0.012351
      2          8           0        0.743552    0.118253   -0.011937
      3          1           0       -0.965285   -0.440595    0.947449
      4          1           0       -1.050042   -0.643346   -0.853228
      5          1           0       -1.070416    0.994130   -0.099935
      6          1           0        1.221498   -0.695486    0.027107
 ---------------------------------------------------------------------

 SCF Done:  E(RB2PLYPD3) =  -115.550266685     A.U. after   10 cycles
 E2(B2PLYPD3) =    -0.1470110155D+00 E(B2PLYPD3) =    -0.11569727770045D+03

 The electronic state is 1-A.
 Alpha  occ. eigenvalues --  -19.71878 -10.65942  -1.15570  -0.78931  -0.58455
 Alpha  occ. eigenvalues --   -0.52080  -0.49589  -0.40231  -0.35312
 Alpha virt. eigenvalues --    0.05128   0.08221   0.12273   0.12432   0.14669
 Alpha virt. eigenvalues --    0.16964   0.18059   0.29160   0.32862   0.33320
 Alpha virt. eigenvalues --    0.35895   0.38703   0.39547   0.41045   0.43653

 Mulliken charges:
               1
     1  C    0.072059
     2  O   -0.470954
     3  H    0.058568
     4  H    0.047431
     5  H    0.074333
     6  H    0.218562
 Sum of Mulliken charges =   0.00000

 Dipole moment (field-independent basis, Debye):
    X=             -0.8002    Y=             -1.4500    Z=              0.1203  Tot=              1.6605
 Quadrupole moment (field-independent basis, Debye-Ang):
   XX=            -12.7138   YY=            -12.4142   ZZ=            -13.6840
   XY=             -2.3186   XZ=              0.1343   YZ=             -0.0910

 Normal termination of Gaussian 09 at Wed Aug 26 16:19:40 2020.
