 Gaussian 09, Revision D.01,
 Gaussian 09:  ES64L-G09RevD.01 24-Apr-2013

 --------------------
 #p B2PLYPD3/Def2QZVP
 --------------------

 --------
 methanol
 --------
 Symbolic Z-matrix:
 Charge =  0 Multiplicity = 1

                         Standard orientation:
 ---------------------------------------------------------------------
 Center     Atomic      Atomic             Coordinates (Angstroms)
 Number     Number       Type             X           Y           Z
 ---------------------------------------------------------------------
      1          6           0       -0.649300    0.000920   -0.000666
      2          8           0        0.753057   -0.138465   -0.010161
      3          1           0       -1.076178    0.592824   -0.836160
      4          1           0       -1.018620    0.488093    0.886407
      5          1           0       -1.109962   -0.892024   -0.010964
      6          1           0        1.076104    0.913308    0.046003
 ---------------------------------------------------------------------

 SCF Done:  E(RB2PLYPD3) =  -115.528183492     A.U. after   11 cycles
 E2(B2PLYPD3) =    -0.1498474742D+00 E(B2PLYPD3) =    -0.11567803096595D+03

 The electronic state is 1-A.
 Alpha  occ. eigenvalues --  -19.74140 -10.64450  -1.14647  -0.78649  -0.57149
 Alpha  occ. eigenvalues --   -0.51128  -0.50664  -0.41446  -0.35009
 Alpha virt. eigenvalues --    0.03576   0.07793   0.12464   0.12774   0.14886
 Alpha virt. eigenvalues --    0.17917   0.18272   0.28647   0.29946   0.33215
 Alpha virt. eigenvalues --    0.34382   0.38611   0.40485   0.41206   0.43333

 Mulliken charges:
               1
     1  C    0.078331
     2  O   -0.471831
     3  H    0.034354
     4  H    0.036443
     5  H    0.068526
     6  H    0.254177
 Sum of Mulliken charges =   0.00000

 Dipole moment (field-independent basis, Debye):
    X=             -0.9739    Y=              1.5784    Z=              0.1269  Tot=              1.8590
 Quadrupole moment (field-independent basis, Debye-Ang):
   XX=            -13.2889   YY=            -11.8624   ZZ=            -14.0074
   XY=              2.3451   XZ=              0.1045   YZ=              0.0701

 Normal termination of Gaussian 09 at Wed Aug 26 16:14:37 2020.
