 Gaussian 09, Revision D.01,
 Gaussian 09:  ES64L-G09RevD.01 24-Apr-2013

 --------------------
 #p B2PLYPD3/Def2QZVP
 --------------------

 --------
 methanol
 --------
 Symbolic Z-matrix:
 Charge =  0 Multiplicity = 1

                         Standard orientation:
 ---------------------------------------------------------------------
 Center     Atomic      Atomic             Coordinates (Angstroms)
 Number     Number       Type             X           Y           Z
 ---------------------------------------------------------------------
      1          6           0       -0.679984    0.000469   -0.014344
      2          8           0        0.780564   -0.072347   -0.035962
      3          1           0       -1.185312    1.007707   -0.470202
      4          1           0       -1.065274   -0.114800    1.101509
      5          1           0       -1.021612   -0.881499   -0.501299
      6          1           0        1.107593    0.564549    0.243756
 ---------------------------------------------------------------------

 SCF Done:  E(RB2PLYPD3) =  -115.483191565     A.U. after   11 cycles
 E2(B2PLYPD3) =    -0.1456894280D+00 E(B2PLYPD3) =    -0.11562888099281D+03

 The electronic state is 1-A.
 Alpha  occ. eigenvalues --  -19.70996 -10.68476  -1.20626  -0.80049  -0.60088
 Alpha  occ. eigenvalues --   -0.50503  -0.49536  -0.41967  -0.35746
 Alpha virt. eigenvalues --    0.05305   0.08425   0.11410   0.12439   0.14564
 Alpha virt. eigenvalues --    0.16732   0.18314   0.28662   0.30943   0.32924
 Alpha virt. eigenvalues --    0.35122   0.37559   0.40042   0.40462   0.42846

 Mulliken charges:
               1
     1  C    0.053595
     2  O   -0.327833
     3  H    0.046626
     4  H    0.048168
     5  H    0.089818
     6  H    0.089625
 Sum of Mulliken charges =   0.00000

 Dipole moment (field-independent basis, Debye):
    X=             -1.0409    Y=              1.1044    Z=              0.4852  Tot=              1.5933
 Quadrupole moment (field-independent basis, Debye-Ang):
   XX=            -13.0537   YY=            -12.5183   ZZ=            -13.7070
   XY=              1.8060   XZ=              0.9042   YZ=              0.4102

 Normal termination of Gaussian 09 at Wed Aug 26 20:14:32 2020.
