 Gaussian 09, Revision D.01,
 Gaussian 09:  ES64L-G09RevD.01 24-Apr-2013

 --------------------
 #p B2PLYPD3/Def2QZVP
 --------------------

 --------
 methanol
 --------
 Symbolic Z-matrix:
 Charge =  0 Multiplicity = 1

                         Standard orientation:
 ---------------------------------------------------------------------
 Center     Atomic      Atomic             Coordinates (Angstroms)
 Number     Number       Type             X           Y           Z
 ---------------------------------------------------------------------
      1          6           0        0.673732   -0.009413   -0.002408
      2          8           0       -0.754897    0.086407   -0.009898
      3          1           0        1.007561   -0.765955   -0.831838
      4          1           0        1.135236   -0.337974    1.011603
      5          1           0        1.020206    1.034765   -0.210742
      6          1           0       -1.166219   -0.565616    0.124609
 ---------------------------------------------------------------------

 SCF Done:  E(RB2PLYPD3) =  -115.499817198     A.U. after   10 cycles
 E2(B2PLYPD3) =    -0.1451772422D+00 E(B2PLYPD3) =    -0.11564499443990D+03

 The electronic state is 1-A.
 Alpha  occ. eigenvalues --  -19.70648 -10.68179  -1.20280  -0.80189  -0.60464
 Alpha  occ. eigenvalues --   -0.50938  -0.49799  -0.40688  -0.35623
 Alpha virt. eigenvalues --    0.05378   0.08691   0.11904   0.12092   0.14640
 Alpha virt. eigenvalues --    0.16729   0.17994   0.28902   0.32142   0.33317
 Alpha virt. eigenvalues --    0.36674   0.38375   0.39310   0.39960   0.42009

 Mulliken charges:
               1
     1  C    0.055239
     2  O   -0.339827
     3  H    0.048218
     4  H    0.050617
     5  H    0.084140
     6  H    0.101612
 Sum of Mulliken charges =   0.00000

 Dipole moment (field-independent basis, Debye):
    X=              0.8281    Y=             -1.2181    Z=              0.2574  Tot=              1.4952
 Quadrupole moment (field-independent basis, Debye-Ang):
   XX=            -12.8671   YY=            -12.5496   ZZ=            -13.7101
   XY=              2.0315   XZ=             -0.2826   YZ=             -0.1731

 Normal termination of Gaussian 09 at Wed Aug 26 16:07:02 2020.
