 Gaussian 09, Revision D.01,
 Gaussian 09:  ES64L-G09RevD.01 24-Apr-2013

 --------------------
 #p B2PLYPD3/Def2QZVP
 --------------------

 --------
 methanol
 --------
 Symbolic Z-matrix:
 Charge =  0 Multiplicity = 1

                         Standard orientation:
 ---------------------------------------------------------------------
 Center     Atomic      Atomic             Coordinates (Angstroms)
 Number     Number       Type             X           Y           Z
 ---------------------------------------------------------------------
      1          6           0       -0.655837   -0.025842   -0.010518
      2          8           0        0.749597    0.108405    0.001036
      3          1           0       -1.014216   -0.588248    0.914484
      4          1           0       -1.058710   -0.504405   -0.913097
      5          1           0       -1.121016    1.026609    0.065383
      6          1           0        1.132187   -0.646140   -0.011948
 ---------------------------------------------------------------------

 SCF Done:  E(RB2PLYPD3) =  -115.534592794     A.U. after   10 cycles
 E2(B2PLYPD3) =    -0.1456830325D+00 E(B2PLYPD3) =    -0.11568027582628D+03

 The electronic state is 1-A.
 Alpha  occ. eigenvalues --  -19.71676 -10.67088  -1.19266  -0.79221  -0.60465
 Alpha  occ. eigenvalues --   -0.51728  -0.49844  -0.40569  -0.35751
 Alpha virt. eigenvalues --    0.05323   0.08554   0.12176   0.12200   0.14696
 Alpha virt. eigenvalues --    0.17296   0.18134   0.28929   0.33128   0.33635
 Alpha virt. eigenvalues --    0.36597   0.38506   0.39455   0.40499   0.42945

 Mulliken charges:
               1
     1  C    0.060185
     2  O   -0.391433
     3  H    0.044906
     4  H    0.055353
     5  H    0.066901
     6  H    0.164087
 Sum of Mulliken charges =   0.00000

 Dipole moment (field-independent basis, Debye):
    X=             -0.8161    Y=             -1.4034    Z=             -0.0584  Tot=              1.6245
 Quadrupole moment (field-independent basis, Debye-Ang):
   XX=            -12.9441   YY=            -12.5372   ZZ=            -13.7268
   XY=             -2.1394   XZ=              0.0389   YZ=              0.0770

 Normal termination of Gaussian 09 at Wed Aug 26 10:05:55 2020.
