 Gaussian 09, Revision D.01,
 Gaussian 09:  ES64L-G09RevD.01 24-Apr-2013

 --------------------
 #p B2PLYPD3/Def2QZVP
 --------------------

 --------
 methanol
 --------
 Symbolic Z-matrix:
 Charge =  0 Multiplicity = 1

                         Standard orientation:
 ---------------------------------------------------------------------
 Center     Atomic      Atomic             Coordinates (Angstroms)
 Number     Number       Type             X           Y           Z
 ---------------------------------------------------------------------
      1          6           0       -0.646962   -0.012090    0.003592
      2          8           0        0.757788   -0.047833   -0.046620
      3          1           0       -0.989896    1.260936   -0.179762
      4          1           0       -1.032379   -0.375321    1.036903
      5          1           0       -1.199730   -0.692497   -0.765576
      6          1           0        1.041471    0.262090    0.259838
 ---------------------------------------------------------------------

 SCF Done:  E(RB2PLYPD3) =  -114.877357657     A.U. after   12 cycles
 E2(B2PLYPD3) =    -0.1433873272D+00 E(B2PLYPD3) =    -0.11502074498457D+03

 The electronic state is 1-A.
 Alpha  occ. eigenvalues --  -19.69192 -10.70882  -1.33595  -0.84696  -0.63167
 Alpha  occ. eigenvalues --   -0.51774  -0.51030  -0.40364  -0.36058
 Alpha virt. eigenvalues --    0.04809   0.09654   0.10631   0.11987   0.13935
 Alpha virt. eigenvalues --    0.17017   0.17709   0.27535   0.30474   0.32695
 Alpha virt. eigenvalues --    0.34489   0.35531   0.38101   0.41183   0.44112

 Mulliken charges:
               1
     1  C    0.053137
     2  O   -0.053082
     3  H    0.023030
     4  H    0.055037
     5  H    0.095122
     6  H   -0.173245
 Sum of Mulliken charges =   0.00000

 Dipole moment (field-independent basis, Debye):
    X=             -0.9823    Y=              0.4894    Z=              0.7429  Tot=              1.3253
 Quadrupole moment (field-independent basis, Debye-Ang):
   XX=            -13.0659   YY=            -13.0749   ZZ=            -13.2010
   XY=              1.6274   XZ=              1.2467   YZ=              0.3823

 Normal termination of Gaussian 09 at Wed Aug 26 22:35:00 2020.
