 Gaussian 09, Revision D.01,
 Gaussian 09:  ES64L-G09RevD.01 24-Apr-2013

 --------------------
 #p B2PLYPD3/Def2QZVP
 --------------------

 --------
 methanol
 --------
 Symbolic Z-matrix:
 Charge =  0 Multiplicity = 1

                         Standard orientation:
 ---------------------------------------------------------------------
 Center     Atomic      Atomic             Coordinates (Angstroms)
 Number     Number       Type             X           Y           Z
 ---------------------------------------------------------------------
      1          6           0        0.674307   -0.017358    0.005855
      2          8           0       -0.755436    0.108551   -0.007588
      3          1           0        1.072035   -0.615438   -0.856240
      4          1           0        1.018065   -0.467716    0.927942
      5          1           0        1.039471    1.023838   -0.068409
      6          1           0       -1.131927   -0.704940    0.022286
 ---------------------------------------------------------------------

 SCF Done:  E(RB2PLYPD3) =  -115.548344929     A.U. after   10 cycles
 E2(B2PLYPD3) =    -0.1465079759D+00 E(B2PLYPD3) =    -0.11569485290519D+03

 The electronic state is 1-A.
 Alpha  occ. eigenvalues --  -19.71907 -10.66266  -1.17067  -0.79073  -0.59384
 Alpha  occ. eigenvalues --   -0.51504  -0.49434  -0.41378  -0.35610
 Alpha virt. eigenvalues --    0.05230   0.08431   0.12171   0.12333   0.14890
 Alpha virt. eigenvalues --    0.16998   0.18028   0.29080   0.32762   0.33440
 Alpha virt. eigenvalues --    0.37178   0.38324   0.39642   0.40556   0.43196

 Mulliken charges:
               1
     1  C    0.066987
     2  O   -0.437383
     3  H    0.047526
     4  H    0.054674
     5  H    0.073662
     6  H    0.194534
 Sum of Mulliken charges =   0.00000

 Dipole moment (field-independent basis, Debye):
    X=              0.9300    Y=             -1.4486    Z=              0.0879  Tot=              1.7237
 Quadrupole moment (field-independent basis, Debye-Ang):
   XX=            -13.0621   YY=            -12.2406   ZZ=            -13.7532
   XY=              2.1152   XZ=             -0.0838   YZ=             -0.0649

 Normal termination of Gaussian 09 at Wed Aug 26 23:14:42 2020.
