 Gaussian 09, Revision D.01,
 Gaussian 09:  ES64L-G09RevD.01 24-Apr-2013

 --------------------
 #p B2PLYPD3/Def2QZVP
 --------------------

 --------
 methanol
 --------
 Symbolic Z-matrix:
 Charge =  0 Multiplicity = 1

                         Standard orientation:
 ---------------------------------------------------------------------
 Center     Atomic      Atomic             Coordinates (Angstroms)
 Number     Number       Type             X           Y           Z
 ---------------------------------------------------------------------
      1          6           0        0.669451   -0.022074   -0.000592
      2          8           0       -0.748165    0.110388    0.000307
      3          1           0        0.959164   -0.576025   -0.925472
      4          1           0        1.008485   -0.518994    0.941769
      5          1           0        1.120978    0.986599   -0.033421
      6          1           0       -1.120013   -0.642241    0.018215
 ---------------------------------------------------------------------

 SCF Done:  E(RB2PLYPD3) =  -115.534798144     A.U. after   10 cycles
 E2(B2PLYPD3) =    -0.1453931400D+00 E(B2PLYPD3) =    -0.11568019128372D+03

 The electronic state is 1-A.
 Alpha  occ. eigenvalues --  -19.71117 -10.66645  -1.18888  -0.79553  -0.59749
 Alpha  occ. eigenvalues --   -0.52140  -0.50330  -0.40752  -0.35618
 Alpha virt. eigenvalues --    0.05376   0.08739   0.12022   0.12455   0.14365
 Alpha virt. eigenvalues --    0.17337   0.17892   0.28961   0.32786   0.33138
 Alpha virt. eigenvalues --    0.37072   0.39419   0.39834   0.40319   0.43784

 Mulliken charges:
               1
     1  C    0.067349
     2  O   -0.399271
     3  H    0.050335
     4  H    0.050353
     5  H    0.074429
     6  H    0.156805
 Sum of Mulliken charges =   0.00000

 Dipole moment (field-independent basis, Debye):
    X=              0.9141    Y=             -1.3681    Z=              0.0287  Tot=              1.6457
 Quadrupole moment (field-independent basis, Debye-Ang):
   XX=            -13.0659   YY=            -12.4740   ZZ=            -13.5619
   XY=              2.2348   XZ=             -0.0085   YZ=             -0.0212

 Normal termination of Gaussian 09 at Wed Aug 26 23:58:40 2020.
