 Gaussian 09, Revision D.01,
 Gaussian 09:  ES64L-G09RevD.01 24-Apr-2013

 --------------------
 #p B2PLYPD3/Def2QZVP
 --------------------

 --------
 methanol
 --------
 Symbolic Z-matrix:
 Charge =  0 Multiplicity = 1

                         Standard orientation:
 ---------------------------------------------------------------------
 Center     Atomic      Atomic             Coordinates (Angstroms)
 Number     Number       Type             X           Y           Z
 ---------------------------------------------------------------------
      1          6           0        0.677049   -0.012722    0.034404
      2          8           0       -0.776219   -0.026455   -0.055205
      3          1           0        0.935679   -0.201520    1.135288
      4          1           0        1.251248    1.091682   -0.424052
      5          1           0        1.091789   -0.886729   -0.698475
      6          1           0       -1.131252    0.284539    0.222456
 ---------------------------------------------------------------------

 SCF Done:  E(RB2PLYPD3) =  -114.998565458     A.U. after   12 cycles
 E2(B2PLYPD3) =    -0.1443970261D+00 E(B2PLYPD3) =    -0.11514296248395D+03

 The electronic state is 1-A.
 Alpha  occ. eigenvalues --  -19.68466 -10.71682  -1.30350  -0.83622  -0.61928
 Alpha  occ. eigenvalues --   -0.51172  -0.48907  -0.39932  -0.36341
 Alpha virt. eigenvalues --    0.04698   0.09050   0.10921   0.11479   0.13852
 Alpha virt. eigenvalues --    0.16666   0.17863   0.28049   0.30054   0.31042
 Alpha virt. eigenvalues --    0.33756   0.34729   0.38417   0.41003   0.42430

 Mulliken charges:
               1
     1  C    0.051957
     2  O   -0.110710
     3  H    0.072038
     4  H    0.041464
     5  H    0.090014
     6  H   -0.144763
 Sum of Mulliken charges =   0.00000

 Dipole moment (field-independent basis, Debye):
    X=              1.0322    Y=              0.5629    Z=              0.7872  Tot=              1.4149
 Quadrupole moment (field-independent basis, Debye-Ang):
   XX=            -12.8206   YY=            -13.2421   ZZ=            -13.0261
   XY=             -1.3254   XZ=             -1.2439   YZ=              0.3437

 Normal termination of Gaussian 09 at Wed Aug 26 22:47:28 2020.
