 Gaussian 09, Revision D.01,
 Gaussian 09:  ES64L-G09RevD.01 24-Apr-2013

 --------------------
 #p B2PLYPD3/Def2QZVP
 --------------------

 --------
 methanol
 --------
 Symbolic Z-matrix:
 Charge =  0 Multiplicity = 1

                         Standard orientation:
 ---------------------------------------------------------------------
 Center     Atomic      Atomic             Coordinates (Angstroms)
 Number     Number       Type             X           Y           Z
 ---------------------------------------------------------------------
      1          6           0        0.690362   -0.009302    0.010829
      2          8           0       -0.739462   -0.163706   -0.012343
      3          1           0        1.087523    0.332934    0.863268
      4          1           0        0.951062    0.731330   -0.782668
      5          1           0        0.926700   -0.768745   -0.173778
      6          1           0       -1.191766    1.069942    0.126946
 ---------------------------------------------------------------------

 SCF Done:  E(RB2PLYPD3) =  -115.397761488     A.U. after   11 cycles
 E2(B2PLYPD3) =    -0.1543154568D+00 E(B2PLYPD3) =    -0.11555207694507D+03

 The electronic state is 1-A.
 Alpha  occ. eigenvalues --  -19.74610 -10.61686  -1.11661  -0.81050  -0.57956
 Alpha  occ. eigenvalues --   -0.51530  -0.48780  -0.40747  -0.34655
 Alpha virt. eigenvalues --    0.00292   0.07646   0.12508   0.13012   0.14549
 Alpha virt. eigenvalues --    0.17052   0.18250   0.23853   0.29389   0.32526
 Alpha virt. eigenvalues --    0.34065   0.36556   0.41718   0.41968   0.44271

 Mulliken charges:
               1
     1  C   -0.021167
     2  O   -0.495562
     3  H    0.055150
     4  H    0.040766
     5  H    0.177630
     6  H    0.243183
 Sum of Mulliken charges =   0.00000

 Dipole moment (field-independent basis, Debye):
    X=              1.0826    Y=              1.6120    Z=              0.2456  Tot=              1.9573
 Quadrupole moment (field-independent basis, Debye-Ang):
   XX=            -13.1746   YY=            -11.3754   ZZ=            -13.8447
   XY=             -2.4901   XZ=             -0.0542   YZ=              0.3013

 Normal termination of Gaussian 09 at Wed Aug 26 22:23:48 2020.
