 Gaussian 09, Revision D.01,
 Gaussian 09:  ES64L-G09RevD.01 24-Apr-2013

 --------------------
 #p B2PLYPD3/Def2QZVP
 --------------------

 --------
 methanol
 --------
 Symbolic Z-matrix:
 Charge =  0 Multiplicity = 1

                         Standard orientation:
 ---------------------------------------------------------------------
 Center     Atomic      Atomic             Coordinates (Angstroms)
 Number     Number       Type             X           Y           Z
 ---------------------------------------------------------------------
      1          6           0       -0.671031   -0.033745   -0.010019
      2          8           0        0.775492    0.075719   -0.012576
      3          1           0       -1.038486   -0.592793    0.933806
      4          1           0       -1.171449   -0.551446   -0.888832
      5          1           0       -1.116555    1.200010    0.073617
      6          1           0        1.148743   -0.459058    0.042133
 ---------------------------------------------------------------------

 SCF Done:  E(RB2PLYPD3) =  -115.325714814     A.U. after   11 cycles
 E2(B2PLYPD3) =    -0.1447582835D+00 E(B2PLYPD3) =    -0.11547047309757D+03

 The electronic state is 1-A.
 Alpha  occ. eigenvalues --  -19.69611 -10.70260  -1.25470  -0.81423  -0.62549
 Alpha  occ. eigenvalues --   -0.50897  -0.48200  -0.39835  -0.36762
 Alpha virt. eigenvalues --    0.04891   0.08914   0.10700   0.12026   0.14657
 Alpha virt. eigenvalues --    0.16803   0.17930   0.28594   0.30891   0.32318
 Alpha virt. eigenvalues --    0.33358   0.37981   0.38320   0.40434   0.41611

 Mulliken charges:
               1
     1  C    0.043239
     2  O   -0.212462
     3  H    0.056905
     4  H    0.070804
     5  H    0.064170
     6  H   -0.022656
 Sum of Mulliken charges =   0.00000

 Dipole moment (field-independent basis, Debye):
    X=             -0.9490    Y=             -1.2931    Z=              0.1102  Tot=              1.6078
 Quadrupole moment (field-independent basis, Debye-Ang):
   XX=            -12.7229   YY=            -12.6998   ZZ=            -13.7483
   XY=             -1.6375   XZ=              0.2891   YZ=             -0.0008

 Normal termination of Gaussian 09 at Wed Aug 26 21:58:25 2020.
