 Gaussian 09, Revision D.01,
 Gaussian 09:  ES64L-G09RevD.01 24-Apr-2013

 --------------------
 #p B2PLYPD3/Def2QZVP
 --------------------

 --------
 methanol
 --------
 Symbolic Z-matrix:
 Charge =  0 Multiplicity = 1

                         Standard orientation:
 ---------------------------------------------------------------------
 Center     Atomic      Atomic             Coordinates (Angstroms)
 Number     Number       Type             X           Y           Z
 ---------------------------------------------------------------------
      1          6           0        0.666362    0.002436    0.004989
      2          8           0       -0.752531    0.086709   -0.019913
      3          1           0        1.036893   -0.861187   -0.726806
      4          1           0        0.986681   -0.253377    1.031228
      5          1           0        1.028867    1.007099   -0.283633
      6          1           0       -1.030359   -0.600822    0.108584
 ---------------------------------------------------------------------

 SCF Done:  E(RB2PLYPD3) =  -115.481033310     A.U. after   11 cycles
 E2(B2PLYPD3) =    -0.1444382025D+00 E(B2PLYPD3) =    -0.11562547151198D+03

 The electronic state is 1-A.
 Alpha  occ. eigenvalues --  -19.70360 -10.67422  -1.22357  -0.80223  -0.60974
 Alpha  occ. eigenvalues --   -0.51384  -0.50528  -0.42061  -0.35650
 Alpha virt. eigenvalues --    0.05332   0.09137   0.11727   0.12193   0.14747
 Alpha virt. eigenvalues --    0.16863   0.17614   0.28848   0.32613   0.32710
 Alpha virt. eigenvalues --    0.36761   0.39091   0.39713   0.40872   0.43001

 Mulliken charges:
               1
     1  C    0.061913
     2  O   -0.303851
     3  H    0.035227
     4  H    0.053305
     5  H    0.082799
     6  H    0.070608
 Sum of Mulliken charges =   0.00000

 Dipole moment (field-independent basis, Debye):
    X=              1.0037    Y=             -1.2362    Z=              0.3065  Tot=              1.6216
 Quadrupole moment (field-independent basis, Debye-Ang):
   XX=            -13.5005   YY=            -12.2286   ZZ=            -13.6148
   XY=              1.9289   XZ=             -0.3232   YZ=             -0.2509

 Normal termination of Gaussian 09 at Wed Aug 26 16:06:08 2020.
