 Gaussian 09, Revision D.01,
 Gaussian 09:  ES64L-G09RevD.01 24-Apr-2013

 --------------------
 #p B2PLYPD3/Def2QZVP
 --------------------

 --------
 methanol
 --------
 Symbolic Z-matrix:
 Charge =  0 Multiplicity = 1

                         Standard orientation:
 ---------------------------------------------------------------------
 Center     Atomic      Atomic             Coordinates (Angstroms)
 Number     Number       Type             X           Y           Z
 ---------------------------------------------------------------------
      1          6           0        0.663064   -0.004347   -0.010120
      2          8           0       -0.750965    0.087379   -0.010137
      3          1           0        1.092757   -0.677565   -0.828838
      4          1           0        1.020084   -0.453350    0.992242
      5          1           0        1.020852    1.059130   -0.071020
      6          1           0       -1.104360   -0.601159    0.049432
 ---------------------------------------------------------------------

 SCF Done:  E(RB2PLYPD3) =  -115.499596825     A.U. after   10 cycles
 E2(B2PLYPD3) =    -0.1447876351D+00 E(B2PLYPD3) =    -0.11564438445973D+03

 The electronic state is 1-A.
 Alpha  occ. eigenvalues --  -19.70752 -10.67629  -1.21274  -0.80172  -0.61090
 Alpha  occ. eigenvalues --   -0.50906  -0.50289  -0.41452  -0.35531
 Alpha virt. eigenvalues --    0.05376   0.08890   0.11947   0.12126   0.14908
 Alpha virt. eigenvalues --    0.16803   0.17850   0.28985   0.32730   0.33384
 Alpha virt. eigenvalues --    0.37409   0.38821   0.39052   0.40112   0.42340

 Mulliken charges:
               1
     1  C    0.058067
     2  O   -0.324935
     3  H    0.048323
     4  H    0.042212
     5  H    0.080627
     6  H    0.095706
 Sum of Mulliken charges =   0.00000

 Dipole moment (field-independent basis, Debye):
    X=              0.8640    Y=             -1.2885    Z=              0.1029  Tot=              1.5547
 Quadrupole moment (field-independent basis, Debye-Ang):
   XX=            -13.1242   YY=            -12.3142   ZZ=            -13.7950
   XY=              1.9548   XZ=             -0.2402   YZ=             -0.0215

 Normal termination of Gaussian 09 at Wed Aug 26 11:36:44 2020.
