 Gaussian 09, Revision D.01,
 Gaussian 09:  ES64L-G09RevD.01 24-Apr-2013

 --------------------
 #p B2PLYPD3/Def2QZVP
 --------------------

 --------
 methanol
 --------
 Symbolic Z-matrix:
 Charge =  0 Multiplicity = 1

                         Standard orientation:
 ---------------------------------------------------------------------
 Center     Atomic      Atomic             Coordinates (Angstroms)
 Number     Number       Type             X           Y           Z
 ---------------------------------------------------------------------
      1          6           0        0.653963    0.059364   -0.000128
      2          8           0       -0.755645   -0.160755   -0.023204
      3          1           0        1.003793    0.304344    0.845998
      4          1           0        1.001894    0.687279   -0.726312
      5          1           0        1.224109   -0.972025   -0.080319
      6          1           0       -1.108409    0.910255    0.147032
 ---------------------------------------------------------------------

 SCF Done:  E(RB2PLYPD3) =  -115.498566474     A.U. after   11 cycles
 E2(B2PLYPD3) =    -0.1509399712D+00 E(B2PLYPD3) =    -0.11564950644476D+03

 The electronic state is 1-A.
 Alpha  occ. eigenvalues --  -19.74441 -10.63998  -1.13681  -0.79481  -0.56009
 Alpha  occ. eigenvalues --   -0.54321  -0.48465  -0.39818  -0.35980
 Alpha virt. eigenvalues --    0.03177   0.07484   0.12123   0.12790   0.14668
 Alpha virt. eigenvalues --    0.17772   0.18925   0.27435   0.29271   0.33696
 Alpha virt. eigenvalues --    0.33900   0.36034   0.40493   0.42656   0.44315

 Mulliken charges:
               1
     1  C    0.084144
     2  O   -0.480239
     3  H    0.057321
     4  H    0.051062
     5  H    0.036767
     6  H    0.250945
 Sum of Mulliken charges =   0.00000

 Dipole moment (field-independent basis, Debye):
    X=              1.0107    Y=              1.8042    Z=              0.3695  Tot=              2.1008
 Quadrupole moment (field-independent basis, Debye-Ang):
   XX=            -13.1958   YY=            -12.0146   ZZ=            -13.8582
   XY=             -2.1589   XZ=             -0.1839   YZ=              0.0801

 Normal termination of Gaussian 09 at Wed Aug 26 18:56:47 2020.
