 Gaussian 09, Revision D.01,
 Gaussian 09:  ES64L-G09RevD.01 24-Apr-2013

 --------------------
 #p B2PLYPD3/Def2QZVP
 --------------------

 --------
 methanol
 --------
 Symbolic Z-matrix:
 Charge =  0 Multiplicity = 1

                         Standard orientation:
 ---------------------------------------------------------------------
 Center     Atomic      Atomic             Coordinates (Angstroms)
 Number     Number       Type             X           Y           Z
 ---------------------------------------------------------------------
      1          6           0       -0.653526    0.012558    0.030922
      2          8           0        0.755390   -0.155854   -0.016800
      3          1           0       -1.112796    0.655894   -0.739698
      4          1           0       -0.942628    0.440770    0.783984
      5          1           0       -1.132525   -0.935492   -0.109332
      6          1           0        1.065986    1.010311    0.013908
 ---------------------------------------------------------------------

 SCF Done:  E(RB2PLYPD3) =  -115.480317573     A.U. after   11 cycles
 E2(B2PLYPD3) =    -0.1520799892D+00 E(B2PLYPD3) =    -0.11563239756248D+03

 The electronic state is 1-A.
 Alpha  occ. eigenvalues --  -19.74810 -10.63278  -1.13289  -0.79763  -0.57031
 Alpha  occ. eigenvalues --   -0.51899  -0.49005  -0.41182  -0.35164
 Alpha virt. eigenvalues --    0.02049   0.07581   0.12237   0.12978   0.15028
 Alpha virt. eigenvalues --    0.17979   0.18122   0.25722   0.29765   0.33272
 Alpha virt. eigenvalues --    0.34282   0.37653   0.39208   0.41913   0.44450

 Mulliken charges:
               1
     1  C    0.085088
     2  O   -0.481392
     3  H    0.023825
     4  H    0.059513
     5  H    0.060499
     6  H    0.252467
 Sum of Mulliken charges =   0.00000

 Dipole moment (field-independent basis, Debye):
    X=             -1.0899    Y=              1.7458    Z=              0.1839  Tot=              2.0663
 Quadrupole moment (field-independent basis, Debye-Ang):
   XX=            -13.4181   YY=            -11.4861   ZZ=            -14.1187
   XY=              2.1907   XZ=              0.0146   YZ=              0.2154

 Normal termination of Gaussian 09 at Wed Aug 26 23:31:39 2020.
