 Gaussian 09, Revision D.01,
 Gaussian 09:  ES64L-G09RevD.01 24-Apr-2013

 --------------------
 #p B2PLYPD3/Def2QZVP
 --------------------

 --------
 methanol
 --------
 Symbolic Z-matrix:
 Charge =  0 Multiplicity = 1

                         Standard orientation:
 ---------------------------------------------------------------------
 Center     Atomic      Atomic             Coordinates (Angstroms)
 Number     Number       Type             X           Y           Z
 ---------------------------------------------------------------------
      1          6           0       -0.671584   -0.021416    0.007301
      2          8           0        0.755400    0.079991   -0.033832
      3          1           0       -0.951247   -0.184714    1.087191
      4          1           0       -1.026210   -0.842517   -0.740432
      5          1           0       -1.065068    1.022342   -0.301632
      6          1           0        1.028832   -0.506539    0.181721
 ---------------------------------------------------------------------

 SCF Done:  E(RB2PLYPD3) =  -115.396726110     A.U. after   11 cycles
 E2(B2PLYPD3) =    -0.1438371648D+00 E(B2PLYPD3) =    -0.11554056327525D+03

 The electronic state is 1-A.
 Alpha  occ. eigenvalues --  -19.69371 -10.68143  -1.24990  -0.80879  -0.61150
 Alpha  occ. eigenvalues --   -0.52252  -0.49895  -0.41323  -0.36303
 Alpha virt. eigenvalues --    0.05355   0.09341   0.11626   0.11963   0.14129
 Alpha virt. eigenvalues --    0.16955   0.17799   0.28466   0.32032   0.32986
 Alpha virt. eigenvalues --    0.36400   0.37994   0.39632   0.40784   0.43449

 Mulliken charges:
               1
     1  C    0.055483
     2  O   -0.244987
     3  H    0.055983
     4  H    0.053875
     5  H    0.075649
     6  H    0.003996
 Sum of Mulliken charges =   0.00000

 Dipole moment (field-independent basis, Debye):
    X=             -1.0581    Y=             -1.1474    Z=              0.4646  Tot=              1.6285
 Quadrupole moment (field-independent basis, Debye-Ang):
   XX=            -13.4670   YY=            -12.5234   ZZ=            -13.2781
   XY=             -1.7892   XZ=              0.6686   YZ=             -0.2121

 Normal termination of Gaussian 09 at Wed Aug 26 13:03:13 2020.
