 Gaussian 09, Revision D.01,
 Gaussian 09:  ES64L-G09RevD.01 24-Apr-2013

 --------------------
 #p B2PLYPD3/Def2QZVP
 --------------------

 --------
 methanol
 --------
 Symbolic Z-matrix:
 Charge =  0 Multiplicity = 1

                         Standard orientation:
 ---------------------------------------------------------------------
 Center     Atomic      Atomic             Coordinates (Angstroms)
 Number     Number       Type             X           Y           Z
 ---------------------------------------------------------------------
      1          6           0       -0.667180   -0.009134    0.007201
      2          8           0        0.756104    0.105485   -0.014647
      3          1           0       -1.041442   -0.459615    0.939412
      4          1           0       -1.028372   -0.653162   -0.886861
      5          1           0       -1.089785    0.991787   -0.072557
      6          1           0        1.113849   -0.668088    0.093971
 ---------------------------------------------------------------------

 SCF Done:  E(RB2PLYPD3) =  -115.539742067     A.U. after   10 cycles
 E2(B2PLYPD3) =    -0.1459080015D+00 E(B2PLYPD3) =    -0.11568565006878D+03

 The electronic state is 1-A.
 Alpha  occ. eigenvalues --  -19.71672 -10.66757  -1.18400  -0.79310  -0.59823
 Alpha  occ. eigenvalues --   -0.51135  -0.50345  -0.41390  -0.35517
 Alpha virt. eigenvalues --    0.05296   0.08554   0.12075   0.12383   0.14705
 Alpha virt. eigenvalues --    0.17275   0.17944   0.29031   0.32660   0.33325
 Alpha virt. eigenvalues --    0.36840   0.39216   0.39329   0.40252   0.43304

 Mulliken charges:
               1
     1  C    0.066401
     2  O   -0.409446
     3  H    0.049874
     4  H    0.042617
     5  H    0.077467
     6  H    0.173087
 Sum of Mulliken charges =   0.00000

 Dipole moment (field-independent basis, Debye):
    X=             -0.9247    Y=             -1.3562    Z=              0.2562  Tot=              1.6613
 Quadrupole moment (field-independent basis, Debye-Ang):
   XX=            -13.0749   YY=            -12.3712   ZZ=            -13.7264
   XY=             -2.1805   XZ=              0.1888   YZ=             -0.1708

 Normal termination of Gaussian 09 at Wed Aug 26 14:25:19 2020.
