 Gaussian 09, Revision D.01,
 Gaussian 09:  ES64L-G09RevD.01 24-Apr-2013

 --------------------
 #p B2PLYPD3/Def2QZVP
 --------------------

 --------
 methanol
 --------
 Symbolic Z-matrix:
 Charge =  0 Multiplicity = 1

                         Standard orientation:
 ---------------------------------------------------------------------
 Center     Atomic      Atomic             Coordinates (Angstroms)
 Number     Number       Type             X           Y           Z
 ---------------------------------------------------------------------
      1          6           0       -0.656311   -0.038467    0.003562
      2          8           0        0.769247    0.090844   -0.021735
      3          1           0       -1.032851   -0.368814    0.962112
      4          1           0       -1.023071   -0.699745   -0.837877
      5          1           0       -1.144089    1.114076   -0.120523
      6          1           0        0.983899   -0.541465    0.148800
 ---------------------------------------------------------------------

 SCF Done:  E(RB2PLYPD3) =  -115.398894602     A.U. after   11 cycles
 E2(B2PLYPD3) =    -0.1443197284D+00 E(B2PLYPD3) =    -0.11554321433093D+03

 The electronic state is 1-A.
 Alpha  occ. eigenvalues --  -19.70218 -10.68245  -1.25591  -0.80145  -0.62190
 Alpha  occ. eigenvalues --   -0.52663  -0.49113  -0.41204  -0.36944
 Alpha virt. eigenvalues --    0.05181   0.09165   0.11327   0.11943   0.14599
 Alpha virt. eigenvalues --    0.17348   0.17986   0.28367   0.31594   0.33440
 Alpha virt. eigenvalues --    0.34046   0.38654   0.40043   0.40719   0.43595

 Mulliken charges:
               1
     1  C    0.051676
     2  O   -0.242032
     3  H    0.061720
     4  H    0.059819
     5  H    0.054283
     6  H    0.014534
 Sum of Mulliken charges =   0.00000

 Dipole moment (field-independent basis, Debye):
    X=             -1.1187    Y=             -1.3436    Z=              0.4066  Tot=              1.7950
 Quadrupole moment (field-independent basis, Debye-Ang):
   XX=            -13.4764   YY=            -12.5199   ZZ=            -13.4554
   XY=             -1.6564   XZ=              0.3298   YZ=             -0.1575

 Normal termination of Gaussian 09 at Wed Aug 26 18:42:30 2020.
