 Gaussian 09, Revision D.01,
 Gaussian 09:  ES64L-G09RevD.01 24-Apr-2013

 --------------------
 #p B2PLYPD3/Def2QZVP
 --------------------

 --------
 methanol
 --------
 Symbolic Z-matrix:
 Charge =  0 Multiplicity = 1

                         Standard orientation:
 ---------------------------------------------------------------------
 Center     Atomic      Atomic             Coordinates (Angstroms)
 Number     Number       Type             X           Y           Z
 ---------------------------------------------------------------------
      1          6           0       -0.662264   -0.000846   -0.000760
      2          8           0        0.743053    0.088283   -0.010311
      3          1           0       -1.005707   -0.523327    0.970387
      4          1           0       -0.981230   -0.626885   -0.937747
      5          1           0       -1.049619    1.015500   -0.026507
      6          1           0        1.065718   -0.566470    0.080912
 ---------------------------------------------------------------------

 SCF Done:  E(RB2PLYPD3) =  -115.465817665     A.U. after   10 cycles
 E2(B2PLYPD3) =    -0.1439701480D+00 E(B2PLYPD3) =    -0.11560978781278D+03

 The electronic state is 1-A.
 Alpha  occ. eigenvalues --  -19.70024 -10.67539  -1.23035  -0.80908  -0.61040
 Alpha  occ. eigenvalues --   -0.51744  -0.51090  -0.41354  -0.35509
 Alpha virt. eigenvalues --    0.05391   0.09235   0.11751   0.12296   0.14499
 Alpha virt. eigenvalues --    0.17018   0.17553   0.28755   0.32527   0.33290
 Alpha virt. eigenvalues --    0.37077   0.38681   0.40137   0.40665   0.43173

 Mulliken charges:
               1
     1  C    0.058997
     2  O   -0.283621
     3  H    0.041154
     4  H    0.043939
     5  H    0.086006
     6  H    0.053525
 Sum of Mulliken charges =   0.00000

 Dipole moment (field-independent basis, Debye):
    X=             -0.8992    Y=             -1.1976    Z=              0.1996  Tot=              1.5108
 Quadrupole moment (field-independent basis, Debye-Ang):
   XX=            -13.3242   YY=            -12.3905   ZZ=            -13.5554
   XY=             -2.0508   XZ=              0.1876   YZ=             -0.1085

 Normal termination of Gaussian 09 at Wed Aug 26 12:16:25 2020.
