 Gaussian 09, Revision D.01,
 Gaussian 09:  ES64L-G09RevD.01 24-Apr-2013

 --------------------
 #p B2PLYPD3/Def2QZVP
 --------------------

 --------
 methanol
 --------
 Symbolic Z-matrix:
 Charge =  0 Multiplicity = 1

                         Standard orientation:
 ---------------------------------------------------------------------
 Center     Atomic      Atomic             Coordinates (Angstroms)
 Number     Number       Type             X           Y           Z
 ---------------------------------------------------------------------
      1          6           0       -0.668663   -0.026859    0.003173
      2          8           0        0.758776    0.107656   -0.016883
      3          1           0       -1.042657   -0.416593    0.946405
      4          1           0       -1.085972   -0.676085   -0.827901
      5          1           0       -1.111896    1.043494   -0.089721
      6          1           0        1.182295   -0.650913    0.087247
 ---------------------------------------------------------------------

 SCF Done:  E(RB2PLYPD3) =  -115.540364466     A.U. after   10 cycles
 E2(B2PLYPD3) =    -0.1464122055D+00 E(B2PLYPD3) =    -0.11568677667131D+03

 The electronic state is 1-A.
 Alpha  occ. eigenvalues --  -19.71899 -10.67172  -1.17605  -0.79043  -0.59910
 Alpha  occ. eigenvalues --   -0.51217  -0.49177  -0.40580  -0.35785
 Alpha virt. eigenvalues --    0.05288   0.08262   0.12012   0.12347   0.14829
 Alpha virt. eigenvalues --    0.17112   0.18179   0.29019   0.32786   0.33433
 Alpha virt. eigenvalues --    0.36353   0.38111   0.39230   0.40387   0.42545

 Mulliken charges:
               1
     1  C    0.063363
     2  O   -0.423229
     3  H    0.056107
     4  H    0.051205
     5  H    0.068105
     6  H    0.184449
 Sum of Mulliken charges =   0.00000

 Dipole moment (field-independent basis, Debye):
    X=             -0.8372    Y=             -1.4242    Z=              0.2477  Tot=              1.6705
 Quadrupole moment (field-independent basis, Debye-Ang):
   XX=            -12.7245   YY=            -12.5098   ZZ=            -13.8202
   XY=             -2.1282   XZ=              0.2474   YZ=             -0.1066

 Normal termination of Gaussian 09 at Wed Aug 26 12:55:51 2020.
