 Gaussian 09, Revision D.01,
 Gaussian 09:  ES64L-G09RevD.01 24-Apr-2013

 --------------------
 #p B2PLYPD3/Def2QZVP
 --------------------

 --------
 methanol
 --------
 Symbolic Z-matrix:
 Charge =  0 Multiplicity = 1

                         Standard orientation:
 ---------------------------------------------------------------------
 Center     Atomic      Atomic             Coordinates (Angstroms)
 Number     Number       Type             X           Y           Z
 ---------------------------------------------------------------------
      1          6           0        0.658821   -0.018956    0.000188
      2          8           0       -0.741634    0.104428   -0.000595
      3          1           0        1.031765   -0.556892   -0.908050
      4          1           0        0.967299   -0.548946    0.940963
      5          1           0        1.074808    1.023845   -0.004424
      6          1           0       -1.093724   -0.639698   -0.024855
 ---------------------------------------------------------------------

 SCF Done:  E(RB2PLYPD3) =  -115.528647354     A.U. after   10 cycles
 E2(B2PLYPD3) =    -0.1450610233D+00 E(B2PLYPD3) =    -0.11567370837775D+03

 The electronic state is 1-A.
 Alpha  occ. eigenvalues --  -19.71114 -10.66750  -1.20076  -0.79569  -0.60487
 Alpha  occ. eigenvalues --   -0.52082  -0.50253  -0.41008  -0.35572
 Alpha virt. eigenvalues --    0.05360   0.08881   0.12087   0.12260   0.14657
 Alpha virt. eigenvalues --    0.17167   0.17850   0.28939   0.32902   0.33776
 Alpha virt. eigenvalues --    0.37498   0.38848   0.40064   0.40318   0.43311

 Mulliken charges:
               1
     1  C    0.062423
     2  O   -0.372918
     3  H    0.047203
     4  H    0.048055
     5  H    0.072575
     6  H    0.142663
 Sum of Mulliken charges =   0.00000

 Dipole moment (field-independent basis, Debye):
    X=              0.8517    Y=             -1.3659    Z=             -0.0505  Tot=              1.6105
 Quadrupole moment (field-independent basis, Debye-Ang):
   XX=            -13.2056   YY=            -12.3862   ZZ=            -13.6265
   XY=              2.1061   XZ=             -0.0137   YZ=              0.0345

 Normal termination of Gaussian 09 at Wed Aug 26 22:25:19 2020.
