 Gaussian 09, Revision D.01,
 Gaussian 09:  ES64L-G09RevD.01 24-Apr-2013

 --------------------
 #p B2PLYPD3/Def2QZVP
 --------------------

 --------
 methanol
 --------
 Symbolic Z-matrix:
 Charge =  0 Multiplicity = 1

                         Standard orientation:
 ---------------------------------------------------------------------
 Center     Atomic      Atomic             Coordinates (Angstroms)
 Number     Number       Type             X           Y           Z
 ---------------------------------------------------------------------
      1          6           0       -0.661740   -0.024031   -0.009685
      2          8           0        0.748323    0.134718    0.004745
      3          1           0       -1.038249   -0.561848    0.858842
      4          1           0       -1.011514   -0.538124   -0.843277
      5          1           0       -1.128795    0.970237    0.014612
      6          1           0        1.162412   -0.803824   -0.010032
 ---------------------------------------------------------------------

 SCF Done:  E(RB2PLYPD3) =  -115.545915195     A.U. after   10 cycles
 E2(B2PLYPD3) =    -0.1483081297D+00 E(B2PLYPD3) =    -0.11569422332463D+03

 The electronic state is 1-A.
 Alpha  occ. eigenvalues --  -19.73190 -10.64998  -1.14989  -0.78617  -0.58120
 Alpha  occ. eigenvalues --   -0.51822  -0.49609  -0.40978  -0.35286
 Alpha virt. eigenvalues --    0.04493   0.07946   0.12436   0.12623   0.14960
 Alpha virt. eigenvalues --    0.17538   0.18102   0.29217   0.32354   0.33439
 Alpha virt. eigenvalues --    0.33987   0.38720   0.39725   0.41467   0.44440

 Mulliken charges:
               1
     1  C    0.077229
     2  O   -0.475400
     3  H    0.042403
     4  H    0.048611
     5  H    0.065881
     6  H    0.241275
 Sum of Mulliken charges =   0.00000

 Dipole moment (field-independent basis, Debye):
    X=             -0.8699    Y=             -1.5997    Z=             -0.0649  Tot=              1.8221
 Quadrupole moment (field-independent basis, Debye-Ang):
   XX=            -12.8955   YY=            -12.1268   ZZ=            -13.9127
   XY=             -2.3253   XZ=             -0.0073   YZ=              0.0692

 Normal termination of Gaussian 09 at Wed Aug 26 13:54:35 2020.
