 Gaussian 09, Revision D.01,
 Gaussian 09:  ES64L-G09RevD.01 24-Apr-2013

 --------------------
 #p B2PLYPD3/Def2QZVP
 --------------------

 --------
 methanol
 --------
 Symbolic Z-matrix:
 Charge =  0 Multiplicity = 1

                         Standard orientation:
 ---------------------------------------------------------------------
 Center     Atomic      Atomic             Coordinates (Angstroms)
 Number     Number       Type             X           Y           Z
 ---------------------------------------------------------------------
      1          6           0        0.649045    0.001490   -0.022093
      2          8           0       -0.731217   -0.180039    0.018397
      3          1           0        1.196188    0.492182    0.880241
      4          1           0        1.023730    0.542263   -0.796874
      5          1           0        1.028908   -0.727517   -0.073304
      6          1           0       -1.293360    1.124443   -0.024686
 ---------------------------------------------------------------------

 SCF Done:  E(RB2PLYPD3) =  -115.376497460     A.U. after   12 cycles
 E2(B2PLYPD3) =    -0.1561240476D+00 E(B2PLYPD3) =    -0.11553262150717D+03

 The electronic state is 1-A.
 Alpha  occ. eigenvalues --  -19.75864 -10.62012  -1.12908  -0.81281  -0.55805
 Alpha  occ. eigenvalues --   -0.51270  -0.50151  -0.39687  -0.34537
 Alpha virt. eigenvalues --   -0.02133   0.07222   0.12828   0.13135   0.15018
 Alpha virt. eigenvalues --    0.17617   0.18750   0.21743   0.29459   0.32684
 Alpha virt. eigenvalues --    0.35324   0.37340   0.39781   0.41599   0.43911

 Mulliken charges:
               1
     1  C   -0.006760
     2  O   -0.468461
     3  H    0.029675
     4  H    0.042134
     5  H    0.153390
     6  H    0.250023
 Sum of Mulliken charges =   0.00000

 Dipole moment (field-independent basis, Debye):
    X=              0.7748    Y=              1.6081    Z=             -0.2583  Tot=              1.8036
 Quadrupole moment (field-independent basis, Debye-Ang):
   XX=            -12.5907   YY=            -11.5621   ZZ=            -14.1952
   XY=             -2.8160   XZ=             -0.0760   YZ=             -0.1243

 Normal termination of Gaussian 09 at Wed Aug 26 19:40:50 2020.
