 Gaussian 09, Revision D.01,
 Gaussian 09:  ES64L-G09RevD.01 24-Apr-2013

 --------------------
 #p B2PLYPD3/Def2QZVP
 --------------------

 --------
 methanol
 --------
 Symbolic Z-matrix:
 Charge =  0 Multiplicity = 1

                         Standard orientation:
 ---------------------------------------------------------------------
 Center     Atomic      Atomic             Coordinates (Angstroms)
 Number     Number       Type             X           Y           Z
 ---------------------------------------------------------------------
      1          6           0        0.655835   -0.011013   -0.002565
      2          8           0       -0.751047    0.078727   -0.018284
      3          1           0        1.086965   -0.813689   -0.769011
      4          1           0        1.103067   -0.235125    1.078686
      5          1           0        1.037830    1.012708   -0.284912
      6          1           0       -1.154495   -0.527632    0.136897
 ---------------------------------------------------------------------

 SCF Done:  E(RB2PLYPD3) =  -115.467447842     A.U. after   11 cycles
 E2(B2PLYPD3) =    -0.1447031003D+00 E(B2PLYPD3) =    -0.11561215094268D+03

 The electronic state is 1-A.
 Alpha  occ. eigenvalues --  -19.70626 -10.68692  -1.22456  -0.80888  -0.61217
 Alpha  occ. eigenvalues --   -0.50817  -0.50402  -0.40350  -0.35724
 Alpha virt. eigenvalues --    0.05370   0.08778   0.11781   0.12142   0.14648
 Alpha virt. eigenvalues --    0.16793   0.18172   0.28707   0.32816   0.33366
 Alpha virt. eigenvalues --    0.35765   0.38249   0.38965   0.40309   0.42077

 Mulliken charges:
               1
     1  C    0.046632
     2  O   -0.282744
     3  H    0.045490
     4  H    0.045122
     5  H    0.082873
     6  H    0.062627
 Sum of Mulliken charges =   0.00000

 Dipole moment (field-independent basis, Debye):
    X=              0.7345    Y=             -1.1322    Z=              0.2803  Tot=              1.3784
 Quadrupole moment (field-independent basis, Debye-Ang):
   XX=            -12.8209   YY=            -12.7358   ZZ=            -13.6987
   XY=              1.9571   XZ=             -0.4968   YZ=             -0.1866

 Normal termination of Gaussian 09 at Wed Aug 26 12:48:22 2020.
