 Gaussian 09, Revision D.01,
 Gaussian 09:  ES64L-G09RevD.01 24-Apr-2013

 --------------------
 #p B2PLYPD3/Def2QZVP
 --------------------

 --------
 methanol
 --------
 Symbolic Z-matrix:
 Charge =  0 Multiplicity = 1

                         Standard orientation:
 ---------------------------------------------------------------------
 Center     Atomic      Atomic             Coordinates (Angstroms)
 Number     Number       Type             X           Y           Z
 ---------------------------------------------------------------------
      1          6           0        0.659540   -0.021093    0.013606
      2          8           0       -0.738025    0.085469   -0.014294
      3          1           0        0.925299   -0.842489   -0.797982
      4          1           0        1.065112   -0.292666    0.988631
      5          1           0        1.066739    1.066191   -0.288575
      6          1           0       -1.110191   -0.488231    0.130637
 ---------------------------------------------------------------------

 SCF Done:  E(RB2PLYPD3) =  -115.415978664     A.U. after   11 cycles
 E2(B2PLYPD3) =    -0.1437352217D+00 E(B2PLYPD3) =    -0.11555971388574D+03

 The electronic state is 1-A.
 Alpha  occ. eigenvalues --  -19.69544 -10.68258  -1.24372  -0.81673  -0.62045
 Alpha  occ. eigenvalues --   -0.52095  -0.49922  -0.40299  -0.35822
 Alpha virt. eigenvalues --    0.05290   0.09306   0.11659   0.11996   0.14588
 Alpha virt. eigenvalues --    0.16802   0.17663   0.28786   0.32172   0.33811
 Alpha virt. eigenvalues --    0.36057   0.37742   0.40425   0.40749   0.42531

 Mulliken charges:
               1
     1  C    0.051306
     2  O   -0.240692
     3  H    0.041868
     4  H    0.059792
     5  H    0.073441
     6  H    0.014284
 Sum of Mulliken charges =   0.00000

 Dipole moment (field-independent basis, Debye):
    X=              0.7871    Y=             -1.1851    Z=              0.3922  Tot=              1.4757
 Quadrupole moment (field-independent basis, Debye-Ang):
   XX=            -13.0807   YY=            -12.5941   ZZ=            -13.5141
   XY=              1.9102   XZ=             -0.2126   YZ=             -0.2331

 Normal termination of Gaussian 09 at Wed Aug 26 11:12:32 2020.
