 Gaussian 09, Revision D.01,
 Gaussian 09:  ES64L-G09RevD.01 24-Apr-2013

 --------------------
 #p B2PLYPD3/Def2QZVP
 --------------------

 --------
 methanol
 --------
 Symbolic Z-matrix:
 Charge =  0 Multiplicity = 1

                         Standard orientation:
 ---------------------------------------------------------------------
 Center     Atomic      Atomic             Coordinates (Angstroms)
 Number     Number       Type             X           Y           Z
 ---------------------------------------------------------------------
      1          6           0        0.660902    0.036474   -0.011514
      2          8           0       -0.751752   -0.162191    0.007652
      3          1           0        1.021194    0.546471    0.824350
      4          1           0        1.060801    0.518510   -0.759056
      5          1           0        1.152835   -0.945632   -0.005579
      6          1           0       -1.186225    0.959335   -0.051841
 ---------------------------------------------------------------------

 SCF Done:  E(RB2PLYPD3) =  -115.499456060     A.U. after   11 cycles
 E2(B2PLYPD3) =    -0.1518565743D+00 E(B2PLYPD3) =    -0.11565131263465D+03

 The electronic state is 1-A.
 Alpha  occ. eigenvalues --  -19.74687 -10.63611  -1.12742  -0.79294  -0.56033
 Alpha  occ. eigenvalues --   -0.52117  -0.48841  -0.40594  -0.35380
 Alpha virt. eigenvalues --    0.02262   0.07465   0.12401   0.12956   0.14967
 Alpha virt. eigenvalues --    0.17736   0.18352   0.26029   0.29601   0.33408
 Alpha virt. eigenvalues --    0.34356   0.37914   0.39661   0.42063   0.44520

 Mulliken charges:
               1
     1  C    0.090645
     2  O   -0.487010
     3  H    0.043072
     4  H    0.046072
     5  H    0.054442
     6  H    0.252780
 Sum of Mulliken charges =   0.00000

 Dipole moment (field-independent basis, Debye):
    X=              0.9547    Y=              1.7699    Z=             -0.1427  Tot=              2.0160
 Quadrupole moment (field-independent basis, Debye-Ang):
   XX=            -12.8776   YY=            -11.8111   ZZ=            -14.0681
   XY=             -2.3452   XZ=              0.0150   YZ=             -0.1124

 Normal termination of Gaussian 09 at Wed Aug 26 15:00:41 2020.
