 Gaussian 09, Revision D.01,
 Gaussian 09:  ES64L-G09RevD.01 24-Apr-2013

 --------------------
 #p B2PLYPD3/Def2QZVP
 --------------------

 --------
 methanol
 --------
 Symbolic Z-matrix:
 Charge =  0 Multiplicity = 1

                         Standard orientation:
 ---------------------------------------------------------------------
 Center     Atomic      Atomic             Coordinates (Angstroms)
 Number     Number       Type             X           Y           Z
 ---------------------------------------------------------------------
      1          6           0        0.655257   -0.024128   -0.000186
      2          8           0       -0.752847    0.099962    0.000947
      3          1           0        0.998452   -0.639330   -0.870506
      4          1           0        1.063233   -0.470957    0.941483
      5          1           0        1.101250    1.069512   -0.095913
      6          1           0       -1.071702   -0.614151    0.018475
 ---------------------------------------------------------------------

 SCF Done:  E(RB2PLYPD3) =  -115.503131144     A.U. after   10 cycles
 E2(B2PLYPD3) =    -0.1448901876D+00 E(B2PLYPD3) =    -0.11564802133139D+03

 The electronic state is 1-A.
 Alpha  occ. eigenvalues --  -19.71031 -10.67521  -1.21550  -0.79654  -0.61277
 Alpha  occ. eigenvalues --   -0.51885  -0.49618  -0.41104  -0.36000
 Alpha virt. eigenvalues --    0.05328   0.08898   0.11840   0.12162   0.14777
 Alpha virt. eigenvalues --    0.17217   0.17876   0.28830   0.33022   0.33295
 Alpha virt. eigenvalues --    0.36360   0.38720   0.39933   0.40086   0.42759

 Mulliken charges:
               1
     1  C    0.057621
     2  O   -0.327671
     3  H    0.049750
     4  H    0.052520
     5  H    0.065750
     6  H    0.102031
 Sum of Mulliken charges =   0.00000

 Dipole moment (field-independent basis, Debye):
    X=              0.9053    Y=             -1.3885    Z=              0.0316  Tot=              1.6578
 Quadrupole moment (field-independent basis, Debye-Ang):
   XX=            -13.2159   YY=            -12.4166   ZZ=            -13.6966
   XY=              1.9558   XZ=             -0.0011   YZ=             -0.0155

 Normal termination of Gaussian 09 at Wed Aug 26 09:54:06 2020.
