 Gaussian 09, Revision D.01,
 Gaussian 09:  ES64L-G09RevD.01 24-Apr-2013

 --------------------
 #p B2PLYPD3/Def2QZVP
 --------------------

 --------
 methanol
 --------
 Symbolic Z-matrix:
 Charge =  0 Multiplicity = 1

                         Standard orientation:
 ---------------------------------------------------------------------
 Center     Atomic      Atomic             Coordinates (Angstroms)
 Number     Number       Type             X           Y           Z
 ---------------------------------------------------------------------
      1          6           0       -0.661178    0.050197   -0.024869
      2          8           0        0.755837   -0.184788    0.021836
      3          1           0       -1.077095    0.319703   -0.745901
      4          1           0       -1.052800    0.627884    0.764585
      5          1           0       -1.133349   -0.884858    0.076341
      6          1           0        1.183622    1.114398   -0.120498
 ---------------------------------------------------------------------

 SCF Done:  E(RB2PLYPD3) =  -115.418492920     A.U. after   12 cycles
 E2(B2PLYPD3) =    -0.1559222432D+00 E(B2PLYPD3) =    -0.11557441516354D+03

 The electronic state is 1-A.
 Alpha  occ. eigenvalues --  -19.75936 -10.62131  -1.11553  -0.81512  -0.54532
 Alpha  occ. eigenvalues --   -0.52905  -0.48631  -0.39396  -0.35934
 Alpha virt. eigenvalues --   -0.00903   0.07250   0.12444   0.12961   0.14839
 Alpha virt. eigenvalues --    0.17604   0.19016   0.22362   0.29180   0.33218
 Alpha virt. eigenvalues --    0.34703   0.37721   0.38754   0.42079   0.45806

 Mulliken charges:
               1
     1  C    0.065280
     2  O   -0.472571
     3  H    0.079273
     4  H    0.044831
     5  H    0.043765
     6  H    0.239421
 Sum of Mulliken charges =   0.00000

 Dipole moment (field-independent basis, Debye):
    X=             -1.1268    Y=              1.7588    Z=             -0.3169  Tot=              2.1127
 Quadrupole moment (field-independent basis, Debye-Ang):
   XX=            -12.9797   YY=            -11.5856   ZZ=            -14.0146
   XY=              2.3483   XZ=             -0.0462   YZ=             -0.1729

 Normal termination of Gaussian 09 at Wed Aug 26 23:12:22 2020.
