 Gaussian 09, Revision D.01,
 Gaussian 09:  ES64L-G09RevD.01 24-Apr-2013

 --------------------
 #p B2PLYPD3/Def2QZVP
 --------------------

 --------
 methanol
 --------
 Symbolic Z-matrix:
 Charge =  0 Multiplicity = 1

                         Standard orientation:
 ---------------------------------------------------------------------
 Center     Atomic      Atomic             Coordinates (Angstroms)
 Number     Number       Type             X           Y           Z
 ---------------------------------------------------------------------
      1          6           0       -0.642201   -0.015437   -0.001822
      2          8           0        0.764189    0.090378   -0.022310
      3          1           0       -1.062742   -0.422794    0.944729
      4          1           0       -0.985388   -0.760511   -0.836082
      5          1           0       -1.177390    1.094183   -0.108069
      6          1           0        0.965213   -0.541279    0.188839
 ---------------------------------------------------------------------

 SCF Done:  E(RB2PLYPD3) =  -115.406681399     A.U. after   11 cycles
 E2(B2PLYPD3) =    -0.1444138264D+00 E(B2PLYPD3) =    -0.11555109522510D+03

 The electronic state is 1-A.
 Alpha  occ. eigenvalues --  -19.70581 -10.68668  -1.26088  -0.79771  -0.62595
 Alpha  occ. eigenvalues --   -0.51831  -0.49776  -0.41740  -0.36214
 Alpha virt. eigenvalues --    0.05124   0.09142   0.11416   0.11882   0.14835
 Alpha virt. eigenvalues --    0.17268   0.17839   0.28484   0.31986   0.33524
 Alpha virt. eigenvalues --    0.34529   0.37615   0.39175   0.40511   0.43485

 Mulliken charges:
               1
     1  C    0.054310
     2  O   -0.236798
     3  H    0.047915
     4  H    0.045893
     5  H    0.063526
     6  H    0.025154
 Sum of Mulliken charges =   0.00000

 Dipole moment (field-independent basis, Debye):
    X=             -1.0536    Y=             -1.2634    Z=              0.4955  Tot=              1.7181
 Quadrupole moment (field-independent basis, Debye-Ang):
   XX=            -13.5417   YY=            -12.4424   ZZ=            -13.6829
   XY=             -1.7293   XZ=              0.3281   YZ=             -0.2535

 Normal termination of Gaussian 09 at Wed Aug 26 22:54:11 2020.
