 Gaussian 09, Revision D.01,
 Gaussian 09:  ES64L-G09RevD.01 24-Apr-2013

 --------------------
 #p B2PLYPD3/Def2QZVP
 --------------------

 --------
 methanol
 --------
 Symbolic Z-matrix:
 Charge =  0 Multiplicity = 1

                         Standard orientation:
 ---------------------------------------------------------------------
 Center     Atomic      Atomic             Coordinates (Angstroms)
 Number     Number       Type             X           Y           Z
 ---------------------------------------------------------------------
      1          6           0        0.659725    0.029715   -0.008887
      2          8           0       -0.749103   -0.159862    0.002101
      3          1           0        1.013849    0.543628    0.816782
      4          1           0        1.056672    0.518482   -0.779471
      5          1           0        1.131914   -0.926013    0.018431
      6          1           0       -1.167957    0.964509   -0.019228
 ---------------------------------------------------------------------

 SCF Done:  E(RB2PLYPD3) =  -115.503732818     A.U. after   11 cycles
 E2(B2PLYPD3) =    -0.1515837823D+00 E(B2PLYPD3) =    -0.11565531660052D+03

 The electronic state is 1-A.
 Alpha  occ. eigenvalues --  -19.74560 -10.63329  -1.12930  -0.79279  -0.56171
 Alpha  occ. eigenvalues --   -0.52166  -0.49185  -0.40754  -0.35291
 Alpha virt. eigenvalues --    0.02326   0.07575   0.12516   0.12937   0.14983
 Alpha virt. eigenvalues --    0.17731   0.18308   0.26197   0.29632   0.33553
 Alpha virt. eigenvalues --    0.34343   0.38714   0.39587   0.42356   0.44289

 Mulliken charges:
               1
     1  C    0.093563
     2  O   -0.487572
     3  H    0.040341
     4  H    0.043182
     5  H    0.057647
     6  H    0.252839
 Sum of Mulliken charges =   0.00000

 Dipole moment (field-independent basis, Debye):
    X=              0.9759    Y=              1.7426    Z=             -0.0571  Tot=              1.9981
 Quadrupole moment (field-independent basis, Debye-Ang):
   XX=            -12.9492   YY=            -11.7545   ZZ=            -14.0333
   XY=             -2.3540   XZ=             -0.0227   YZ=             -0.0629

 Normal termination of Gaussian 09 at Wed Aug 26 13:46:13 2020.
