 Gaussian 09, Revision D.01,
 Gaussian 09:  ES64L-G09RevD.01 24-Apr-2013

 --------------------
 #p B2PLYPD3/Def2QZVP
 --------------------

 --------
 methanol
 --------
 Symbolic Z-matrix:
 Charge =  0 Multiplicity = 1

                         Standard orientation:
 ---------------------------------------------------------------------
 Center     Atomic      Atomic             Coordinates (Angstroms)
 Number     Number       Type             X           Y           Z
 ---------------------------------------------------------------------
      1          6           0        0.669891    0.014515    0.005891
      2          8           0       -0.740062   -0.140794   -0.004068
      3          1           0        1.046521    0.455075    0.879207
      4          1           0        0.980269    0.603609   -0.852270
      5          1           0        1.036508   -0.901654   -0.075945
      6          1           0       -1.162149    0.882233    0.046204
 ---------------------------------------------------------------------

 SCF Done:  E(RB2PLYPD3) =  -115.526832661     A.U. after   11 cycles
 E2(B2PLYPD3) =    -0.1495589570D+00 E(B2PLYPD3) =    -0.11567639161772D+03

 The electronic state is 1-A.
 Alpha  occ. eigenvalues --  -19.73469 -10.63690  -1.13771  -0.78984  -0.57082
 Alpha  occ. eigenvalues --   -0.52030  -0.50071  -0.41083  -0.34980
 Alpha virt. eigenvalues --    0.03685   0.07962   0.12523   0.12777   0.14883
 Alpha virt. eigenvalues --    0.17242   0.18220   0.28801   0.30202   0.33238
 Alpha virt. eigenvalues --    0.34208   0.38759   0.40889   0.41808   0.43888

 Mulliken charges:
               1
     1  C    0.079511
     2  O   -0.488769
     3  H    0.046499
     4  H    0.040745
     5  H    0.072254
     6  H    0.249760
 Sum of Mulliken charges =   0.00000

 Dipole moment (field-independent basis, Debye):
    X=              0.9198    Y=              1.5740    Z=              0.1016  Tot=              1.8259
 Quadrupole moment (field-independent basis, Debye-Ang):
   XX=            -13.0492   YY=            -11.9095   ZZ=            -13.8016
   XY=             -2.4205   XZ=             -0.0248   YZ=              0.1015

 Normal termination of Gaussian 09 at Thu Aug 27 00:13:49 2020.
