 Gaussian 09, Revision D.01,
 Gaussian 09:  ES64L-G09RevD.01 24-Apr-2013

 --------------------
 #p B2PLYPD3/Def2QZVP
 --------------------

 --------
 methanol
 --------
 Symbolic Z-matrix:
 Charge =  0 Multiplicity = 1

                         Standard orientation:
 ---------------------------------------------------------------------
 Center     Atomic      Atomic             Coordinates (Angstroms)
 Number     Number       Type             X           Y           Z
 ---------------------------------------------------------------------
      1          6           0       -0.665596    0.034754   -0.035647
      2          8           0        0.723680   -0.191504    0.020893
      3          1           0       -0.878586    0.425952   -0.753465
      4          1           0       -1.044776    0.583217    0.781131
      5          1           0       -1.051220   -0.834347    0.059050
      6          1           0        1.178721    1.148683   -0.039975
 ---------------------------------------------------------------------

 SCF Done:  E(RB2PLYPD3) =  -115.386862209     A.U. after   12 cycles
 E2(B2PLYPD3) =    -0.1555830918D+00 E(B2PLYPD3) =    -0.11554244530071D+03

 The electronic state is 1-A.
 Alpha  occ. eigenvalues --  -19.75156 -10.60396  -1.12334  -0.81190  -0.57964
 Alpha  occ. eigenvalues --   -0.53124  -0.48725  -0.39478  -0.35209
 Alpha virt. eigenvalues --   -0.01589   0.07633   0.12630   0.12938   0.14817
 Alpha virt. eigenvalues --    0.17529   0.18236   0.22190   0.29508   0.32989
 Alpha virt. eigenvalues --    0.34867   0.38689   0.40166   0.42733   0.46692

 Mulliken charges:
               1
     1  C    0.045168
     2  O   -0.477889
     3  H    0.103358
     4  H    0.040546
     5  H    0.062870
     6  H    0.225947
 Sum of Mulliken charges =   0.00000

 Dipole moment (field-independent basis, Debye):
    X=             -1.1473    Y=              1.7097    Z=             -0.1895  Tot=              2.0677
 Quadrupole moment (field-independent basis, Debye-Ang):
   XX=            -13.2428   YY=            -11.2712   ZZ=            -13.8062
   XY=              2.3913   XZ=             -0.0838   YZ=             -0.2004

 Normal termination of Gaussian 09 at Wed Aug 26 21:05:02 2020.
