 Gaussian 09, Revision D.01,
 Gaussian 09:  ES64L-G09RevD.01 24-Apr-2013

 --------------------
 #p B2PLYPD3/Def2QZVP
 --------------------

 --------
 methanol
 --------
 Symbolic Z-matrix:
 Charge =  0 Multiplicity = 1

                         Standard orientation:
 ---------------------------------------------------------------------
 Center     Atomic      Atomic             Coordinates (Angstroms)
 Number     Number       Type             X           Y           Z
 ---------------------------------------------------------------------
      1          6           0        0.672321   -0.008480    0.034655
      2          8           0       -0.771249    0.082724   -0.023438
      3          1           0        1.223551   -0.724597   -0.841770
      4          1           0        1.001072   -0.428240    0.948931
      5          1           0        1.097667    1.095822   -0.155766
      6          1           0       -1.186224   -0.553897    0.028178
 ---------------------------------------------------------------------

 SCF Done:  E(RB2PLYPD3) =  -115.469782901     A.U. after   11 cycles
 E2(B2PLYPD3) =    -0.1455970741D+00 E(B2PLYPD3) =    -0.11561537997486D+03

 The electronic state is 1-A.
 Alpha  occ. eigenvalues --  -19.70822 -10.69061  -1.20857  -0.80345  -0.61468
 Alpha  occ. eigenvalues --   -0.50775  -0.48610  -0.40588  -0.35815
 Alpha virt. eigenvalues --    0.05240   0.08411   0.11356   0.12100   0.14811
 Alpha virt. eigenvalues --    0.16973   0.17942   0.28805   0.31356   0.32396
 Alpha virt. eigenvalues --    0.35167   0.36104   0.39726   0.40960   0.41887

 Mulliken charges:
               1
     1  C    0.056221
     2  O   -0.318299
     3  H    0.031407
     4  H    0.071038
     5  H    0.078892
     6  H    0.080741
 Sum of Mulliken charges =   0.00000

 Dipole moment (field-independent basis, Debye):
    X=              0.8517    Y=             -1.2290    Z=              0.3013  Tot=              1.5253
 Quadrupole moment (field-independent basis, Debye-Ang):
   XX=            -12.6632   YY=            -12.6444   ZZ=            -13.8844
   XY=              2.0070   XZ=             -0.0982   YZ=             -0.2829

 Normal termination of Gaussian 09 at Wed Aug 26 23:53:25 2020.
