 Gaussian 09, Revision D.01,
 Gaussian 09:  ES64L-G09RevD.01 24-Apr-2013

 --------------------
 #p B2PLYPD3/Def2QZVP
 --------------------

 --------
 methanol
 --------
 Symbolic Z-matrix:
 Charge =  0 Multiplicity = 1

                         Standard orientation:
 ---------------------------------------------------------------------
 Center     Atomic      Atomic             Coordinates (Angstroms)
 Number     Number       Type             X           Y           Z
 ---------------------------------------------------------------------
      1          6           0        0.664236    0.033457    0.020580
      2          8           0       -0.744550   -0.142390   -0.016632
      3          1           0        1.061281    0.399667    0.833809
      4          1           0        1.054900    0.623457   -0.827497
      5          1           0        1.045068   -0.968174   -0.084631
      6          1           0       -1.190264    0.883426    0.087895
 ---------------------------------------------------------------------

 SCF Done:  E(RB2PLYPD3) =  -115.520366294     A.U. after   11 cycles
 E2(B2PLYPD3) =    -0.1502198550D+00 E(B2PLYPD3) =    -0.11567058614854D+03

 The electronic state is 1-A.
 Alpha  occ. eigenvalues --  -19.73987 -10.64060  -1.13663  -0.78927  -0.57295
 Alpha  occ. eigenvalues --   -0.52035  -0.48940  -0.40711  -0.35378
 Alpha virt. eigenvalues --    0.03520   0.07728   0.12398   0.12722   0.15156
 Alpha virt. eigenvalues --    0.17101   0.18558   0.28354   0.29874   0.33535
 Alpha virt. eigenvalues --    0.34456   0.38198   0.39022   0.41819   0.45448

 Mulliken charges:
               1
     1  C    0.074975
     2  O   -0.481440
     3  H    0.053774
     4  H    0.041642
     5  H    0.061384
     6  H    0.249665
 Sum of Mulliken charges =   0.00000

 Dipole moment (field-independent basis, Debye):
    X=              0.8685    Y=              1.6264    Z=              0.2693  Tot=              1.8634
 Quadrupole moment (field-independent basis, Debye-Ang):
   XX=            -12.8911   YY=            -12.0101   ZZ=            -13.8954
   XY=             -2.3043   XZ=             -0.0789   YZ=              0.1941

 Normal termination of Gaussian 09 at Wed Aug 26 14:20:11 2020.
