 Gaussian 09, Revision D.01,
 Gaussian 09:  ES64L-G09RevD.01 24-Apr-2013

 --------------------
 #p B2PLYPD3/Def2QZVP
 --------------------

 --------
 methanol
 --------
 Symbolic Z-matrix:
 Charge =  0 Multiplicity = 1

                         Standard orientation:
 ---------------------------------------------------------------------
 Center     Atomic      Atomic             Coordinates (Angstroms)
 Number     Number       Type             X           Y           Z
 ---------------------------------------------------------------------
      1          6           0        0.662247   -0.011925    0.007836
      2          8           0       -0.756062    0.097560   -0.014177
      3          1           0        1.029855   -0.727756   -0.841473
      4          1           0        1.033569   -0.374964    1.001474
      5          1           0        1.110522    0.999006   -0.175720
      6          1           0       -1.098932   -0.605219    0.082118
 ---------------------------------------------------------------------

 SCF Done:  E(RB2PLYPD3) =  -115.508118150     A.U. after   10 cycles
 E2(B2PLYPD3) =    -0.1449546784D+00 E(B2PLYPD3) =    -0.11565307282848D+03

 The electronic state is 1-A.
 Alpha  occ. eigenvalues --  -19.70967 -10.67547  -1.20848  -0.79877  -0.60694
 Alpha  occ. eigenvalues --   -0.51329  -0.50411  -0.41092  -0.35801
 Alpha virt. eigenvalues --    0.05385   0.08816   0.11922   0.12285   0.14533
 Alpha virt. eigenvalues --    0.17281   0.17917   0.28824   0.32827   0.33021
 Alpha virt. eigenvalues --    0.36763   0.38880   0.39619   0.39920   0.43054

 Mulliken charges:
               1
     1  C    0.060466
     2  O   -0.341675
     3  H    0.042062
     4  H    0.052692
     5  H    0.077105
     6  H    0.109351
 Sum of Mulliken charges =   0.00000

 Dipole moment (field-independent basis, Debye):
    X=              0.9219    Y=             -1.2821    Z=              0.2198  Tot=              1.5943
 Quadrupole moment (field-independent basis, Debye-Ang):
   XX=            -13.0806   YY=            -12.5215   ZZ=            -13.6416
   XY=              2.1089   XZ=             -0.2347   YZ=             -0.1610

 Normal termination of Gaussian 09 at Wed Aug 26 11:12:42 2020.
