 Gaussian 09, Revision D.01,
 Gaussian 09:  ES64L-G09RevD.01 24-Apr-2013

 --------------------
 #p B2PLYPD3/Def2QZVP
 --------------------

 --------
 methanol
 --------
 Symbolic Z-matrix:
 Charge =  0 Multiplicity = 1

                         Standard orientation:
 ---------------------------------------------------------------------
 Center     Atomic      Atomic             Coordinates (Angstroms)
 Number     Number       Type             X           Y           Z
 ---------------------------------------------------------------------
      1          6           0        0.665070    0.014838    0.001232
      2          8           0       -0.740467   -0.140305   -0.004018
      3          1           0        1.052268    0.467296    0.883695
      4          1           0        0.993245    0.597114   -0.851727
      5          1           0        1.052562   -0.907062   -0.054585
      6          1           0       -1.164761    0.876063    0.047370
 ---------------------------------------------------------------------

 SCF Done:  E(RB2PLYPD3) =  -115.530249191     A.U. after   11 cycles
 E2(B2PLYPD3) =    -0.1494737623D+00 E(B2PLYPD3) =    -0.11567972295364D+03

 The electronic state is 1-A.
 Alpha  occ. eigenvalues --  -19.73550 -10.63958  -1.14014  -0.78793  -0.57096
 Alpha  occ. eigenvalues --   -0.51868  -0.50172  -0.41019  -0.34987
 Alpha virt. eigenvalues --    0.03727   0.07918   0.12532   0.12770   0.14917
 Alpha virt. eigenvalues --    0.17314   0.18252   0.28832   0.30256   0.33278
 Alpha virt. eigenvalues --    0.34341   0.38856   0.40695   0.41617   0.43739

 Mulliken charges:
               1
     1  C    0.077602
     2  O   -0.485465
     3  H    0.044191
     4  H    0.041622
     5  H    0.071322
     6  H    0.250729
 Sum of Mulliken charges =   0.00000

 Dipole moment (field-independent basis, Debye):
    X=              0.8876    Y=              1.5719    Z=              0.0934  Tot=              1.8076
 Quadrupole moment (field-independent basis, Debye-Ang):
   XX=            -13.0105   YY=            -11.9523   ZZ=            -13.8479
   XY=             -2.4301   XZ=             -0.0478   YZ=              0.0723

 Normal termination of Gaussian 09 at Thu Aug 27 00:09:11 2020.
