 Gaussian 09, Revision D.01,
 Gaussian 09:  ES64L-G09RevD.01 24-Apr-2013

 --------------------
 #p B2PLYPD3/Def2QZVP
 --------------------

 --------
 methanol
 --------
 Symbolic Z-matrix:
 Charge =  0 Multiplicity = 1

                         Standard orientation:
 ---------------------------------------------------------------------
 Center     Atomic      Atomic             Coordinates (Angstroms)
 Number     Number       Type             X           Y           Z
 ---------------------------------------------------------------------
      1          6           0       -0.670036    0.019238    0.021996
      2          8           0        0.746685   -0.168691   -0.033658
      3          1           0       -1.096138    0.698730   -0.699541
      4          1           0       -0.830630    0.329700    0.800334
      5          1           0       -1.087640   -0.887257   -0.069223
      6          1           0        1.061148    1.092931    0.105716
 ---------------------------------------------------------------------

 SCF Done:  E(RB2PLYPD3) =  -115.424294000     A.U. after   11 cycles
 E2(B2PLYPD3) =    -0.1539376171D+00 E(B2PLYPD3) =    -0.11557823161693D+03

 The electronic state is 1-A.
 Alpha  occ. eigenvalues --  -19.74798 -10.61470  -1.12214  -0.80817  -0.56755
 Alpha  occ. eigenvalues --   -0.53338  -0.48385  -0.40639  -0.35300
 Alpha virt. eigenvalues --    0.00452   0.07659   0.12377   0.12817   0.14766
 Alpha virt. eigenvalues --    0.17435   0.18402   0.23798   0.29588   0.32656
 Alpha virt. eigenvalues --    0.34138   0.38696   0.40287   0.42105   0.44811

 Mulliken charges:
               1
     1  C    0.037684
     2  O   -0.487875
     3  H    0.039410
     4  H    0.110380
     5  H    0.060783
     6  H    0.239618
 Sum of Mulliken charges =   0.00000

 Dipole moment (field-independent basis, Debye):
    X=             -1.2514    Y=              1.7141    Z=              0.3530  Tot=              2.1515
 Quadrupole moment (field-independent basis, Debye-Ang):
   XX=            -13.5959   YY=            -11.2305   ZZ=            -13.8520
   XY=              2.1895   XZ=              0.2201   YZ=              0.2278

 Normal termination of Gaussian 09 at Wed Aug 26 18:48:30 2020.
