 Gaussian 09, Revision D.01,
 Gaussian 09:  ES64L-G09RevD.01 24-Apr-2013

 --------------------
 #p B2PLYPD3/Def2QZVP
 --------------------

 --------
 methanol
 --------
 Symbolic Z-matrix:
 Charge =  0 Multiplicity = 1

                         Standard orientation:
 ---------------------------------------------------------------------
 Center     Atomic      Atomic             Coordinates (Angstroms)
 Number     Number       Type             X           Y           Z
 ---------------------------------------------------------------------
      1          6           0       -0.633803   -0.045332   -0.005499
      2          8           0        0.731212    0.076347   -0.016575
      3          1           0       -0.901081   -0.446691    1.029803
      4          1           0       -1.046628   -0.733778   -0.809741
      5          1           0       -1.193982    1.184458   -0.094425
      6          1           0        1.094816   -0.342770    0.039957
 ---------------------------------------------------------------------

 SCF Done:  E(RB2PLYPD3) =  -115.047614848     A.U. after   11 cycles
 E2(B2PLYPD3) =    -0.1430873204D+00 E(B2PLYPD3) =    -0.11519070216884D+03

 The electronic state is 1-A.
 Alpha  occ. eigenvalues --  -19.68746 -10.70042  -1.31760  -0.85533  -0.63581
 Alpha  occ. eigenvalues --   -0.53111  -0.49815  -0.38554  -0.36490
 Alpha virt. eigenvalues --    0.04707   0.09598   0.10868   0.12010   0.14425
 Alpha virt. eigenvalues --    0.16769   0.17639   0.28213   0.30996   0.32481
 Alpha virt. eigenvalues --    0.34623   0.38915   0.39318   0.41009   0.42778

 Mulliken charges:
               1
     1  C    0.049757
     2  O   -0.082415
     3  H    0.051259
     4  H    0.059194
     5  H    0.054311
     6  H   -0.132106
 Sum of Mulliken charges =   0.00000

 Dipole moment (field-independent basis, Debye):
    X=             -0.6566    Y=             -1.1967    Z=              0.1553  Tot=              1.3738
 Quadrupole moment (field-independent basis, Debye-Ang):
   XX=            -12.9310   YY=            -12.7888   ZZ=            -13.4938
   XY=             -1.5483   XZ=              0.3324   YZ=              0.0490

 Normal termination of Gaussian 09 at Wed Aug 26 23:30:03 2020.
