 Gaussian 09, Revision D.01,
 Gaussian 09:  ES64L-G09RevD.01 24-Apr-2013

 --------------------
 #p B2PLYPD3/Def2QZVP
 --------------------

 --------
 methanol
 --------
 Symbolic Z-matrix:
 Charge =  0 Multiplicity = 1

                         Standard orientation:
 ---------------------------------------------------------------------
 Center     Atomic      Atomic             Coordinates (Angstroms)
 Number     Number       Type             X           Y           Z
 ---------------------------------------------------------------------
      1          6           0        0.691128    0.007465    0.004111
      2          8           0       -0.745468   -0.177015   -0.004739
      3          1           0        0.975499    0.497069    0.814804
      4          1           0        1.126697    0.504665   -0.766962
      5          1           0        0.895193   -0.820892   -0.008119
      6          1           0       -1.180415    1.190484   -0.026473
 ---------------------------------------------------------------------

 SCF Done:  E(RB2PLYPD3) =  -115.386931573     A.U. after   11 cycles
 E2(B2PLYPD3) =    -0.1571860033D+00 E(B2PLYPD3) =    -0.11554411757630D+03

 The electronic state is 1-A.
 Alpha  occ. eigenvalues --  -19.75425 -10.60857  -1.11124  -0.81152  -0.58028
 Alpha  occ. eigenvalues --   -0.52392  -0.47413  -0.40095  -0.35255
 Alpha virt. eigenvalues --   -0.01772   0.07493   0.12705   0.12921   0.14576
 Alpha virt. eigenvalues --    0.16805   0.18373   0.22127   0.29277   0.32710
 Alpha virt. eigenvalues --    0.34070   0.37627   0.40424   0.42896   0.44895

 Mulliken charges:
               1
     1  C    0.026765
     2  O   -0.484888
     3  H    0.048843
     4  H    0.045264
     5  H    0.142832
     6  H    0.221183
 Sum of Mulliken charges =   0.00000

 Dipole moment (field-independent basis, Debye):
    X=              1.2763    Y=              1.6758    Z=             -0.0025  Tot=              2.1065
 Quadrupole moment (field-independent basis, Debye-Ang):
   XX=            -13.3049   YY=            -11.0751   ZZ=            -13.9541
   XY=             -2.2012   XZ=             -0.0538   YZ=              0.0011

 Normal termination of Gaussian 09 at Wed Aug 26 22:57:17 2020.
