 Gaussian 09, Revision D.01,
 Gaussian 09:  ES64L-G09RevD.01 24-Apr-2013

 --------------------
 #p B2PLYPD3/Def2QZVP
 --------------------

 --------
 methanol
 --------
 Symbolic Z-matrix:
 Charge =  0 Multiplicity = 1

                         Standard orientation:
 ---------------------------------------------------------------------
 Center     Atomic      Atomic             Coordinates (Angstroms)
 Number     Number       Type             X           Y           Z
 ---------------------------------------------------------------------
      1          6           0        0.703219    0.027210    0.000151
      2          8           0       -0.733566   -0.205908    0.003066
      3          1           0        1.008702    0.417611    0.835519
      4          1           0        0.889958    0.671797   -0.708567
      5          1           0        1.104822   -0.735193   -0.163154
      6          1           0       -1.354269    1.129789    0.010770
 ---------------------------------------------------------------------

 SCF Done:  E(RB2PLYPD3) =  -115.386940354     A.U. after   12 cycles
 E2(B2PLYPD3) =    -0.1570349582D+00 E(B2PLYPD3) =    -0.11554397531220D+03

 The electronic state is 1-A.
 Alpha  occ. eigenvalues --  -19.74991 -10.60440  -1.10115  -0.81614  -0.56328
 Alpha  occ. eigenvalues --   -0.53304  -0.48316  -0.38970  -0.34970
 Alpha virt. eigenvalues --   -0.02588   0.07512   0.12799   0.13071   0.14299
 Alpha virt. eigenvalues --    0.17650   0.17877   0.21674   0.29514   0.32602
 Alpha virt. eigenvalues --    0.33438   0.38852   0.41139   0.43393   0.45475

 Mulliken charges:
               1
     1  C    0.083658
     2  O   -0.501397
     3  H    0.050469
     4  H    0.042382
     5  H    0.097818
     6  H    0.227069
 Sum of Mulliken charges =   0.00000

 Dipole moment (field-independent basis, Debye):
    X=              1.1171    Y=              1.7369    Z=             -0.0237  Tot=              2.0653
 Quadrupole moment (field-independent basis, Debye-Ang):
   XX=            -12.4909   YY=            -11.4202   ZZ=            -13.8901
   XY=             -2.7746   XZ=              0.0073   YZ=              0.0425

 Normal termination of Gaussian 09 at Wed Aug 26 23:55:55 2020.
