 Gaussian 09, Revision D.01,
 Gaussian 09:  ES64L-G09RevD.01 24-Apr-2013

 --------------------
 #p B2PLYPD3/Def2QZVP
 --------------------

 --------
 methanol
 --------
 Symbolic Z-matrix:
 Charge =  0 Multiplicity = 1

                         Standard orientation:
 ---------------------------------------------------------------------
 Center     Atomic      Atomic             Coordinates (Angstroms)
 Number     Number       Type             X           Y           Z
 ---------------------------------------------------------------------
      1          6           0        0.664315   -0.026040   -0.000646
      2          8           0       -0.747470    0.112289   -0.003225
      3          1           0        1.029142   -0.585696   -0.875772
      4          1           0        1.072877   -0.511545    0.892619
      5          1           0        1.069461    1.043624   -0.025802
      6          1           0       -1.177607   -0.688457    0.038633
 ---------------------------------------------------------------------

 SCF Done:  E(RB2PLYPD3) =  -115.548570869     A.U. after   10 cycles
 E2(B2PLYPD3) =    -0.1465994518D+00 E(B2PLYPD3) =    -0.11569517032106D+03

 The electronic state is 1-A.
 Alpha  occ. eigenvalues --  -19.72121 -10.66468  -1.17138  -0.78841  -0.59731
 Alpha  occ. eigenvalues --   -0.51547  -0.49331  -0.40651  -0.35539
 Alpha virt. eigenvalues --    0.05190   0.08293   0.12093   0.12445   0.15007
 Alpha virt. eigenvalues --    0.17030   0.18113   0.29105   0.33256   0.33772
 Alpha virt. eigenvalues --    0.36575   0.37840   0.39627   0.40685   0.42680

 Mulliken charges:
               1
     1  C    0.064225
     2  O   -0.438414
     3  H    0.051159
     4  H    0.051102
     5  H    0.068174
     6  H    0.203754
 Sum of Mulliken charges =   0.00000

 Dipole moment (field-independent basis, Debye):
    X=              0.7817    Y=             -1.4750    Z=              0.0843  Tot=              1.6715
 Quadrupole moment (field-independent basis, Debye-Ang):
   XX=            -12.8202   YY=            -12.3713   ZZ=            -13.8388
   XY=              2.1455   XZ=             -0.0568   YZ=             -0.0378

 Normal termination of Gaussian 09 at Thu Aug 27 00:09:43 2020.
