 Gaussian 09, Revision D.01,
 Gaussian 09:  ES64L-G09RevD.01 24-Apr-2013

 --------------------
 #p B2PLYPD3/Def2QZVP
 --------------------

 --------
 methanol
 --------
 Symbolic Z-matrix:
 Charge =  0 Multiplicity = 1

                         Standard orientation:
 ---------------------------------------------------------------------
 Center     Atomic      Atomic             Coordinates (Angstroms)
 Number     Number       Type             X           Y           Z
 ---------------------------------------------------------------------
      1          6           0        0.662322    0.020620   -0.003211
      2          8           0       -0.736100   -0.138312   -0.002153
      3          1           0        1.018194    0.467537    0.900821
      4          1           0        0.963943    0.601950   -0.843154
      5          1           0        1.075931   -0.924621   -0.057943
      6          1           0       -1.143196    0.837910    0.036769
 ---------------------------------------------------------------------

 SCF Done:  E(RB2PLYPD3) =  -115.540901034     A.U. after   11 cycles
 E2(B2PLYPD3) =    -0.1485103685D+00 E(B2PLYPD3) =    -0.11568941140271D+03

 The electronic state is 1-A.
 Alpha  occ. eigenvalues --  -19.73110 -10.64142  -1.14819  -0.78662  -0.57602
 Alpha  occ. eigenvalues --   -0.52442  -0.50177  -0.40927  -0.35038
 Alpha virt. eigenvalues --    0.04193   0.08111   0.12471   0.12722   0.14839
 Alpha virt. eigenvalues --    0.17406   0.18110   0.29120   0.31461   0.33207
 Alpha virt. eigenvalues --    0.34407   0.39368   0.40626   0.41857   0.43932

 Mulliken charges:
               1
     1  C    0.077928
     2  O   -0.479585
     3  H    0.043848
     4  H    0.043578
     5  H    0.068993
     6  H    0.245238
 Sum of Mulliken charges =   0.00000

 Dipole moment (field-independent basis, Debye):
    X=              0.8790    Y=              1.5693    Z=              0.0560  Tot=              1.7996
 Quadrupole moment (field-independent basis, Debye-Ang):
   XX=            -13.0938   YY=            -12.0209   ZZ=            -13.7673
   XY=             -2.3917   XZ=             -0.0541   YZ=              0.0292

 Normal termination of Gaussian 09 at Wed Aug 26 23:48:04 2020.
