 Gaussian 09, Revision D.01,
 Gaussian 09:  ES64L-G09RevD.01 24-Apr-2013

 --------------------
 #p B2PLYPD3/Def2QZVP
 --------------------

 --------
 methanol
 --------
 Symbolic Z-matrix:
 Charge =  0 Multiplicity = 1

                         Standard orientation:
 ---------------------------------------------------------------------
 Center     Atomic      Atomic             Coordinates (Angstroms)
 Number     Number       Type             X           Y           Z
 ---------------------------------------------------------------------
      1          6           0        0.660182   -0.012523    0.005493
      2          8           0       -0.756689    0.104677   -0.007761
      3          1           0        1.064592   -0.640397   -0.852335
      4          1           0        1.015505   -0.481826    0.928959
      5          1           0        1.087001    1.036764   -0.072054
      6          1           0       -1.074679   -0.676820    0.024557
 ---------------------------------------------------------------------

 SCF Done:  E(RB2PLYPD3) =  -115.535224562     A.U. after   10 cycles
 E2(B2PLYPD3) =    -0.1457539100D+00 E(B2PLYPD3) =    -0.11568097847183D+03

 The electronic state is 1-A.
 Alpha  occ. eigenvalues --  -19.71704 -10.66882  -1.19298  -0.79113  -0.60413
 Alpha  occ. eigenvalues --   -0.51376  -0.49790  -0.41659  -0.35683
 Alpha virt. eigenvalues --    0.05274   0.08653   0.12036   0.12261   0.14910
 Alpha virt. eigenvalues --    0.17287   0.17843   0.29027   0.32914   0.33291
 Alpha virt. eigenvalues --    0.37385   0.38305   0.39371   0.40387   0.42959

 Mulliken charges:
               1
     1  C    0.065115
     2  O   -0.390590
     3  H    0.042774
     4  H    0.051092
     5  H    0.071202
     6  H    0.160408
 Sum of Mulliken charges =   0.00000

 Dipole moment (field-independent basis, Debye):
    X=              0.9475    Y=             -1.4186    Z=              0.0986  Tot=              1.7088
 Quadrupole moment (field-independent basis, Debye-Ang):
   XX=            -13.2359   YY=            -12.2521   ZZ=            -13.8048
   XY=              2.0405   XZ=             -0.0806   YZ=             -0.0743

 Normal termination of Gaussian 09 at Wed Aug 26 09:48:55 2020.
