 Gaussian 09, Revision D.01,
 Gaussian 09:  ES64L-G09RevD.01 24-Apr-2013

 --------------------
 #p B2PLYPD3/Def2QZVP
 --------------------

 --------
 methanol
 --------
 Symbolic Z-matrix:
 Charge =  0 Multiplicity = 1

                         Standard orientation:
 ---------------------------------------------------------------------
 Center     Atomic      Atomic             Coordinates (Angstroms)
 Number     Number       Type             X           Y           Z
 ---------------------------------------------------------------------
      1          6           0        0.662393    0.013009    0.028571
      2          8           0       -0.749711   -0.126416   -0.031267
      3          1           0        1.005428    0.324218    0.898801
      4          1           0        1.120102    0.718919   -0.800460
      5          1           0        1.047973   -0.940572   -0.150467
      6          1           0       -1.150171    0.830706    0.130831
 ---------------------------------------------------------------------

 SCF Done:  E(RB2PLYPD3) =  -115.531093323     A.U. after   11 cycles
 E2(B2PLYPD3) =    -0.1489615778D+00 E(B2PLYPD3) =    -0.11568005490059D+03

 The electronic state is 1-A.
 Alpha  occ. eigenvalues --  -19.73549 -10.64732  -1.14726  -0.79016  -0.58121
 Alpha  occ. eigenvalues --   -0.51325  -0.49794  -0.41242  -0.35247
 Alpha virt. eigenvalues --    0.04274   0.07852   0.12349   0.12620   0.15061
 Alpha virt. eigenvalues --    0.17222   0.18420   0.28925   0.31559   0.33295
 Alpha virt. eigenvalues --    0.34089   0.37513   0.39792   0.41125   0.45135

 Mulliken charges:
               1
     1  C    0.073808
     2  O   -0.473562
     3  H    0.055087
     4  H    0.030102
     5  H    0.069248
     6  H    0.245318
 Sum of Mulliken charges =   0.00000

 Dipole moment (field-independent basis, Debye):
    X=              0.8682    Y=              1.4826    Z=              0.4346  Tot=              1.7722
 Quadrupole moment (field-independent basis, Debye-Ang):
   XX=            -13.0223   YY=            -12.1329   ZZ=            -13.8313
   XY=             -2.3280   XZ=             -0.2367   YZ=              0.3266

 Normal termination of Gaussian 09 at Wed Aug 26 16:15:28 2020.
