 Gaussian 09, Revision D.01,
 Gaussian 09:  ES64L-G09RevD.01 24-Apr-2013

 --------------------
 #p B2PLYPD3/Def2QZVP
 --------------------

 --------
 methanol
 --------
 Symbolic Z-matrix:
 Charge =  0 Multiplicity = 1

                         Standard orientation:
 ---------------------------------------------------------------------
 Center     Atomic      Atomic             Coordinates (Angstroms)
 Number     Number       Type             X           Y           Z
 ---------------------------------------------------------------------
      1          6           0       -0.652064    0.018016    0.002914
      2          8           0        0.740379   -0.141406   -0.005896
      3          1           0       -1.049812    0.574626   -0.831130
      4          1           0       -1.005999    0.520929    0.853684
      5          1           0       -1.101298   -0.942430   -0.010866
      6          1           0        1.146460    0.870021    0.017995
 ---------------------------------------------------------------------

 SCF Done:  E(RB2PLYPD3) =  -115.535815211     A.U. after   11 cycles
 E2(B2PLYPD3) =    -0.1492373429D+00 E(B2PLYPD3) =    -0.11568505255430D+03

 The electronic state is 1-A.
 Alpha  occ. eigenvalues --  -19.73734 -10.64323  -1.14756  -0.78423  -0.57663
 Alpha  occ. eigenvalues --   -0.51748  -0.50043  -0.40990  -0.35024
 Alpha virt. eigenvalues --    0.03792   0.07875   0.12560   0.12709   0.15072
 Alpha virt. eigenvalues --    0.17583   0.18144   0.28961   0.30348   0.33374
 Alpha virt. eigenvalues --    0.34797   0.39190   0.39852   0.41508   0.44070

 Mulliken charges:
               1
     1  C    0.078677
     2  O   -0.475818
     3  H    0.038743
     4  H    0.041821
     5  H    0.065745
     6  H    0.250832
 Sum of Mulliken charges =   0.00000

 Dipole moment (field-independent basis, Debye):
    X=             -0.8492    Y=              1.6253    Z=              0.0687  Tot=              1.8351
 Quadrupole moment (field-independent basis, Debye-Ang):
   XX=            -13.0253   YY=            -11.9503   ZZ=            -13.9766
   XY=              2.3549   XZ=              0.0485   YZ=              0.0438

 Normal termination of Gaussian 09 at Wed Aug 26 10:06:04 2020.
