 Gaussian 09, Revision D.01,
 Gaussian 09:  ES64L-G09RevD.01 24-Apr-2013

 --------------------
 #p B2PLYPD3/Def2QZVP
 --------------------

 --------
 methanol
 --------
 Symbolic Z-matrix:
 Charge =  0 Multiplicity = 1

                         Standard orientation:
 ---------------------------------------------------------------------
 Center     Atomic      Atomic             Coordinates (Angstroms)
 Number     Number       Type             X           Y           Z
 ---------------------------------------------------------------------
      1          6           0        0.662393   -0.025174    0.022915
      2          8           0       -0.744281    0.096345   -0.016055
      3          1           0        1.014070   -0.753374   -0.823737
      4          1           0        0.945544   -0.361486    0.988468
      5          1           0        1.120847    1.046370   -0.214837
      6          1           0       -1.100569   -0.551227    0.041053
 ---------------------------------------------------------------------

 SCF Done:  E(RB2PLYPD3) =  -115.467280182     A.U. after   10 cycles
 E2(B2PLYPD3) =    -0.1441395637D+00 E(B2PLYPD3) =    -0.11561141974576D+03

 The electronic state is 1-A.
 Alpha  occ. eigenvalues --  -19.70041 -10.67605  -1.22578  -0.80766  -0.61423
 Alpha  occ. eigenvalues --   -0.52592  -0.49744  -0.40423  -0.36019
 Alpha virt. eigenvalues --    0.05372   0.09163   0.11767   0.12113   0.14505
 Alpha virt. eigenvalues --    0.17126   0.17669   0.28834   0.32771   0.33106
 Alpha virt. eigenvalues --    0.35985   0.38018   0.40057   0.41696   0.43270

 Mulliken charges:
               1
     1  C    0.061473
     2  O   -0.292901
     3  H    0.040924
     4  H    0.063452
     5  H    0.069818
     6  H    0.057234
 Sum of Mulliken charges =   0.00000

 Dipole moment (field-independent basis, Debye):
    X=              0.8736    Y=             -1.3007    Z=              0.2061  Tot=              1.5803
 Quadrupole moment (field-independent basis, Debye-Ang):
   XX=            -13.1211   YY=            -12.5573   ZZ=            -13.4904
   XY=              2.0085   XZ=             -0.1603   YZ=             -0.1513

 Normal termination of Gaussian 09 at Wed Aug 26 14:50:34 2020.
