 Gaussian 09, Revision D.01,
 Gaussian 09:  ES64L-G09RevD.01 24-Apr-2013

 --------------------
 #p B2PLYPD3/Def2QZVP
 --------------------

 --------
 methanol
 --------
 Symbolic Z-matrix:
 Charge =  0 Multiplicity = 1

                         Standard orientation:
 ---------------------------------------------------------------------
 Center     Atomic      Atomic             Coordinates (Angstroms)
 Number     Number       Type             X           Y           Z
 ---------------------------------------------------------------------
      1          6           0        0.644192    0.036409   -0.010634
      2          8           0       -0.734672   -0.158058    0.004764
      3          1           0        1.076444    0.485462    0.850282
      4          1           0        1.022955    0.555631   -0.787935
      5          1           0        1.117470   -0.927918   -0.036312
      6          1           0       -1.204643    0.932833   -0.000349
 ---------------------------------------------------------------------

 SCF Done:  E(RB2PLYPD3) =  -115.510189011     A.U. after   11 cycles
 E2(B2PLYPD3) =    -0.1510312967D+00 E(B2PLYPD3) =    -0.11566122030726D+03

 The electronic state is 1-A.
 Alpha  occ. eigenvalues --  -19.74538 -10.63645  -1.14040  -0.78603  -0.56697
 Alpha  occ. eigenvalues --   -0.52156  -0.49753  -0.40101  -0.35153
 Alpha virt. eigenvalues --    0.02466   0.07560   0.12608   0.12918   0.15143
 Alpha virt. eigenvalues --    0.17540   0.18548   0.26464   0.29509   0.33677
 Alpha virt. eigenvalues --    0.35328   0.38530   0.39769   0.42181   0.44334

 Mulliken charges:
               1
     1  C    0.080495
     2  O   -0.476943
     3  H    0.040802
     4  H    0.043959
     5  H    0.055908
     6  H    0.255779
 Sum of Mulliken charges =   0.00000

 Dipole moment (field-independent basis, Debye):
    X=              0.7866    Y=              1.7029    Z=             -0.0548  Tot=              1.8766
 Quadrupole moment (field-independent basis, Debye-Ang):
   XX=            -12.7795   YY=            -11.9677   ZZ=            -14.0315
   XY=             -2.4223   XZ=             -0.0111   YZ=             -0.0675

 Normal termination of Gaussian 09 at Wed Aug 26 14:30:25 2020.
