 Gaussian 09, Revision D.01,
 Gaussian 09:  ES64L-G09RevD.01 24-Apr-2013

 --------------------
 #p B2PLYPD3/Def2QZVP
 --------------------

 --------
 methanol
 --------
 Symbolic Z-matrix:
 Charge =  0 Multiplicity = 1

                         Standard orientation:
 ---------------------------------------------------------------------
 Center     Atomic      Atomic             Coordinates (Angstroms)
 Number     Number       Type             X           Y           Z
 ---------------------------------------------------------------------
      1          6           0       -0.665246   -0.035455   -0.002187
      2          8           0        0.735227    0.141932    0.000532
      3          1           0       -0.988088   -0.506390    0.872663
      4          1           0       -0.970814   -0.560926   -0.839334
      5          1           0       -1.109488    0.958052   -0.028150
      6          1           0        1.178049   -0.813464    0.003684
 ---------------------------------------------------------------------

 SCF Done:  E(RB2PLYPD3) =  -115.541205776     A.U. after   11 cycles
 E2(B2PLYPD3) =    -0.1483848091D+00 E(B2PLYPD3) =    -0.11568959058479D+03

 The electronic state is 1-A.
 Alpha  occ. eigenvalues --  -19.72969 -10.64168  -1.14628  -0.78713  -0.57632
 Alpha  occ. eigenvalues --   -0.53049  -0.49522  -0.40526  -0.35233
 Alpha virt. eigenvalues --    0.04307   0.08055   0.12531   0.12613   0.14869
 Alpha virt. eigenvalues --    0.17404   0.18086   0.29170   0.31685   0.33384
 Alpha virt. eigenvalues --    0.34223   0.39020   0.40066   0.42614   0.44323

 Mulliken charges:
               1
     1  C    0.080919
     2  O   -0.484492
     3  H    0.048199
     4  H    0.047807
     5  H    0.063833
     6  H    0.243734
 Sum of Mulliken charges =   0.00000

 Dipole moment (field-independent basis, Debye):
    X=             -0.8496    Y=             -1.6209    Z=             -0.0029  Tot=              1.8300
 Quadrupole moment (field-independent basis, Debye-Ang):
   XX=            -12.9181   YY=            -12.1140   ZZ=            -13.7437
   XY=             -2.3705   XZ=              0.0076   YZ=              0.0123

 Normal termination of Gaussian 09 at Wed Aug 26 23:01:19 2020.
