 Gaussian 09, Revision D.01,
 Gaussian 09:  ES64L-G09RevD.01 24-Apr-2013

 --------------------
 #p B2PLYPD3/Def2QZVP
 --------------------

 --------
 methanol
 --------
 Symbolic Z-matrix:
 Charge =  0 Multiplicity = 1

                         Standard orientation:
 ---------------------------------------------------------------------
 Center     Atomic      Atomic             Coordinates (Angstroms)
 Number     Number       Type             X           Y           Z
 ---------------------------------------------------------------------
      1          6           0       -0.672236    0.004817    0.010493
      2          8           0        0.766656    0.089343   -0.028106
      3          1           0       -1.076082   -0.273717    1.020466
      4          1           0       -1.090769   -0.820873   -0.785558
      5          1           0       -1.057878    0.968139   -0.246513
      6          1           0        1.124899   -0.617199    0.173495
 ---------------------------------------------------------------------

 SCF Done:  E(RB2PLYPD3) =  -115.518300409     A.U. after   10 cycles
 E2(B2PLYPD3) =    -0.1457591062D+00 E(B2PLYPD3) =    -0.11566405951502D+03

 The electronic state is 1-A.
 Alpha  occ. eigenvalues --  -19.71419 -10.67683  -1.19300  -0.79762  -0.60090
 Alpha  occ. eigenvalues --   -0.50704  -0.50112  -0.41546  -0.35570
 Alpha virt. eigenvalues --    0.05318   0.08498   0.11774   0.12378   0.14670
 Alpha virt. eigenvalues --    0.17097   0.18022   0.28847   0.32079   0.32865
 Alpha virt. eigenvalues --    0.35910   0.38773   0.39411   0.40343   0.42846

 Mulliken charges:
               1
     1  C    0.060819
     2  O   -0.375726
     3  H    0.053326
     4  H    0.035888
     5  H    0.085942
     6  H    0.139752
 Sum of Mulliken charges =   0.00000

 Dipole moment (field-independent basis, Debye):
    X=             -0.9386    Y=             -1.1938    Z=              0.4538  Tot=              1.5850
 Quadrupole moment (field-independent basis, Debye-Ang):
   XX=            -13.0085   YY=            -12.5217   ZZ=            -13.7053
   XY=             -2.1121   XZ=              0.4580   YZ=             -0.3513

 Normal termination of Gaussian 09 at Wed Aug 26 10:35:59 2020.
