 Gaussian 09, Revision D.01,
 Gaussian 09:  ES64L-G09RevD.01 24-Apr-2013

 --------------------
 #p B2PLYPD3/Def2QZVP
 --------------------

 --------
 methanol
 --------
 Symbolic Z-matrix:
 Charge =  0 Multiplicity = 1

                         Standard orientation:
 ---------------------------------------------------------------------
 Center     Atomic      Atomic             Coordinates (Angstroms)
 Number     Number       Type             X           Y           Z
 ---------------------------------------------------------------------
      1          6           0        0.663323   -0.006010    0.011010
      2          8           0       -0.746202    0.095915   -0.016715
      3          1           0        1.013336   -0.735484   -0.849900
      4          1           0        1.001583   -0.402263    0.986541
      5          1           0        1.074166    1.008286   -0.159325
      6          1           0       -1.099404   -0.601801    0.090347
 ---------------------------------------------------------------------

 SCF Done:  E(RB2PLYPD3) =  -115.508936222     A.U. after   10 cycles
 E2(B2PLYPD3) =    -0.1447245910D+00 E(B2PLYPD3) =    -0.11565366081296D+03

 The electronic state is 1-A.
 Alpha  occ. eigenvalues --  -19.70725 -10.67274  -1.20877  -0.80098  -0.60738
 Alpha  occ. eigenvalues --   -0.51417  -0.50734  -0.41178  -0.35483
 Alpha virt. eigenvalues --    0.05369   0.08958   0.11935   0.12257   0.14640
 Alpha virt. eigenvalues --    0.17115   0.17689   0.28913   0.32716   0.33278
 Alpha virt. eigenvalues --    0.37081   0.39154   0.39809   0.40251   0.42996

 Mulliken charges:
               1
     1  C    0.063222
     2  O   -0.342638
     3  H    0.037416
     4  H    0.051547
     5  H    0.080659
     6  H    0.109795
 Sum of Mulliken charges =   0.00000

 Dipole moment (field-independent basis, Debye):
    X=              0.8730    Y=             -1.2659    Z=              0.2710  Tot=              1.5614
 Quadrupole moment (field-independent basis, Debye-Ang):
   XX=            -13.1683   YY=            -12.4193   ZZ=            -13.6373
   XY=              2.1082   XZ=             -0.2327   YZ=             -0.2103

 Normal termination of Gaussian 09 at Wed Aug 26 10:19:16 2020.
