 Gaussian 09, Revision D.01,
 Gaussian 09:  ES64L-G09RevD.01 24-Apr-2013

 --------------------
 #p B2PLYPD3/Def2QZVP
 --------------------

 --------
 methanol
 --------
 Symbolic Z-matrix:
 Charge =  0 Multiplicity = 1

                         Standard orientation:
 ---------------------------------------------------------------------
 Center     Atomic      Atomic             Coordinates (Angstroms)
 Number     Number       Type             X           Y           Z
 ---------------------------------------------------------------------
      1          6           0       -0.677887   -0.015637   -0.007094
      2          8           0        0.748664    0.105516   -0.008189
      3          1           0       -0.956605   -0.533064    0.963956
      4          1           0       -0.950309   -0.613249   -0.914182
      5          1           0       -1.133925    0.990491   -0.003699
      6          1           0        1.118848   -0.594481    0.062003
 ---------------------------------------------------------------------

 SCF Done:  E(RB2PLYPD3) =  -115.512561436     A.U. after   10 cycles
 E2(B2PLYPD3) =    -0.1448255837D+00 E(B2PLYPD3) =    -0.11565738702015D+03

 The electronic state is 1-A.
 Alpha  occ. eigenvalues --  -19.70349 -10.67088  -1.19907  -0.80094  -0.59972
 Alpha  occ. eigenvalues --   -0.52093  -0.50620  -0.40691  -0.35519
 Alpha virt. eigenvalues --    0.05403   0.08939   0.11900   0.12376   0.14246
 Alpha virt. eigenvalues --    0.17223   0.17587   0.28999   0.32204   0.32864
 Alpha virt. eigenvalues --    0.37341   0.39384   0.39550   0.40398   0.43741

 Mulliken charges:
               1
     1  C    0.070463
     2  O   -0.364050
     3  H    0.045211
     4  H    0.053273
     5  H    0.081166
     6  H    0.113937
 Sum of Mulliken charges =   0.00000

 Dipole moment (field-independent basis, Debye):
    X=             -0.9558    Y=             -1.3072    Z=              0.1273  Tot=              1.6244
 Quadrupole moment (field-independent basis, Debye-Ang):
   XX=            -13.0951   YY=            -12.4597   ZZ=            -13.5312
   XY=             -2.2362   XZ=              0.1858   YZ=             -0.0244

 Normal termination of Gaussian 09 at Wed Aug 26 11:23:38 2020.
