 Gaussian 09, Revision D.01,
 Gaussian 09:  ES64L-G09RevD.01 24-Apr-2013

 --------------------
 #p B2PLYPD3/Def2QZVP
 --------------------

 --------
 methanol
 --------
 Symbolic Z-matrix:
 Charge =  0 Multiplicity = 1

                         Standard orientation:
 ---------------------------------------------------------------------
 Center     Atomic      Atomic             Coordinates (Angstroms)
 Number     Number       Type             X           Y           Z
 ---------------------------------------------------------------------
      1          6           0       -0.681255   -0.003505    0.017617
      2          8           0        0.759635    0.071773   -0.044557
      3          1           0       -0.954510   -0.147236    1.071005
      4          1           0       -1.093236   -0.895288   -0.711977
      5          1           0       -1.016549    1.002130   -0.336196
      6          1           0        1.074746   -0.512760    0.227919
 ---------------------------------------------------------------------

 SCF Done:  E(RB2PLYPD3) =  -115.441785769     A.U. after   11 cycles
 E2(B2PLYPD3) =    -0.1443918415D+00 E(B2PLYPD3) =    -0.11558617761031D+03

 The electronic state is 1-A.
 Alpha  occ. eigenvalues --  -19.69727 -10.68096  -1.22814  -0.80782  -0.60756
 Alpha  occ. eigenvalues --   -0.51233  -0.50088  -0.41491  -0.35970
 Alpha virt. eigenvalues --    0.05345   0.09070   0.11567   0.12084   0.14353
 Alpha virt. eigenvalues --    0.16745   0.17787   0.28719   0.31628   0.32640
 Alpha virt. eigenvalues --    0.35969   0.38459   0.40056   0.40700   0.42895

 Mulliken charges:
               1
     1  C    0.055829
     2  O   -0.278825
     3  H    0.060287
     4  H    0.044921
     5  H    0.084891
     6  H    0.032896
 Sum of Mulliken charges =   0.00000

 Dipole moment (field-independent basis, Debye):
    X=             -1.0243    Y=             -1.0583    Z=              0.6399  Tot=              1.6058
 Quadrupole moment (field-independent basis, Debye-Ang):
   XX=            -13.3353   YY=            -12.5665   ZZ=            -13.3080
   XY=             -1.7965   XZ=              0.7783   YZ=             -0.3726

 Normal termination of Gaussian 09 at Wed Aug 26 12:39:39 2020.
