 Gaussian 09, Revision D.01,
 Gaussian 09:  ES64L-G09RevD.01 24-Apr-2013

 --------------------
 #p B2PLYPD3/Def2QZVP
 --------------------

 --------
 methanol
 --------
 Symbolic Z-matrix:
 Charge =  0 Multiplicity = 1

                         Standard orientation:
 ---------------------------------------------------------------------
 Center     Atomic      Atomic             Coordinates (Angstroms)
 Number     Number       Type             X           Y           Z
 ---------------------------------------------------------------------
      1          6           0       -0.672573    0.032573    0.000121
      2          8           0        0.713925   -0.206167   -0.018320
      3          1           0       -1.111068    0.550537   -0.719525
      4          1           0       -0.880573    0.549692    0.730543
      5          1           0       -1.036516   -0.806479    0.097675
      6          1           0        1.352193    1.160153    0.037138
 ---------------------------------------------------------------------

 SCF Done:  E(RB2PLYPD3) =  -115.380442773     A.U. after   12 cycles
 E2(B2PLYPD3) =    -0.1574426408D+00 E(B2PLYPD3) =    -0.11553788541396D+03

 The electronic state is 1-A.
 Alpha  occ. eigenvalues --  -19.75457 -10.60064  -1.11970  -0.81376  -0.57107
 Alpha  occ. eigenvalues --   -0.52918  -0.48976  -0.38826  -0.34897
 Alpha virt. eigenvalues --   -0.03389   0.07497   0.12602   0.13412   0.14843
 Alpha virt. eigenvalues --    0.17207   0.18238   0.21159   0.29792   0.32976
 Alpha virt. eigenvalues --    0.35217   0.38433   0.39992   0.43359   0.46051

 Mulliken charges:
               1
     1  C    0.091663
     2  O   -0.471979
     3  H    0.038194
     4  H    0.050378
     5  H    0.074906
     6  H    0.216837
 Sum of Mulliken charges =   0.00000

 Dipole moment (field-independent basis, Debye):
    X=             -1.0214    Y=              1.7434    Z=              0.1715  Tot=              2.0279
 Quadrupole moment (field-independent basis, Debye-Ang):
   XX=            -12.5476   YY=            -11.2634   ZZ=            -14.0888
   XY=              2.5388   XZ=              0.1205   YZ=              0.0382

 Normal termination of Gaussian 09 at Wed Aug 26 19:53:41 2020.
