 Gaussian 09, Revision D.01,
 Gaussian 09:  ES64L-G09RevD.01 24-Apr-2013

 --------------------
 #p B2PLYPD3/Def2QZVP
 --------------------

 --------
 methanol
 --------
 Symbolic Z-matrix:
 Charge =  0 Multiplicity = 1

                         Standard orientation:
 ---------------------------------------------------------------------
 Center     Atomic      Atomic             Coordinates (Angstroms)
 Number     Number       Type             X           Y           Z
 ---------------------------------------------------------------------
      1          6           0        0.666893    0.017248    0.007749
      2          8           0       -0.750417   -0.146919   -0.004421
      3          1           0        1.031916    0.481382    0.859711
      4          1           0        1.002345    0.583600   -0.848343
      5          1           0        1.114404   -0.895514   -0.053139
      6          1           0       -1.146684    0.902402    0.030650
 ---------------------------------------------------------------------

 SCF Done:  E(RB2PLYPD3) =  -115.526148079     A.U. after   11 cycles
 E2(B2PLYPD3) =    -0.1500435458D+00 E(B2PLYPD3) =    -0.11567619162441D+03

 The electronic state is 1-A.
 Alpha  occ. eigenvalues --  -19.73832 -10.63894  -1.13442  -0.78985  -0.56537
 Alpha  occ. eigenvalues --   -0.51952  -0.49948  -0.41055  -0.35162
 Alpha virt. eigenvalues --    0.03479   0.07798   0.12561   0.12759   0.14769
 Alpha virt. eigenvalues --    0.17702   0.18224   0.28427   0.29828   0.33312
 Alpha virt. eigenvalues --    0.33830   0.39099   0.40739   0.41697   0.43633

 Mulliken charges:
               1
     1  C    0.084824
     2  O   -0.490119
     3  H    0.045806
     4  H    0.040204
     5  H    0.066750
     6  H    0.252534
 Sum of Mulliken charges =   0.00000

 Dipole moment (field-independent basis, Debye):
    X=              0.9830    Y=              1.6206    Z=              0.0846  Tot=              1.8973
 Quadrupole moment (field-independent basis, Debye-Ang):
   XX=            -13.0347   YY=            -11.9214   ZZ=            -13.8693
   XY=             -2.4379   XZ=             -0.0159   YZ=              0.0832

 Normal termination of Gaussian 09 at Thu Aug 27 00:00:00 2020.
