 Gaussian 09, Revision D.01,
 Gaussian 09:  ES64L-G09RevD.01 24-Apr-2013

 --------------------
 #p B2PLYPD3/Def2QZVP
 --------------------

 --------
 methanol
 --------
 Symbolic Z-matrix:
 Charge =  0 Multiplicity = 1

                         Standard orientation:
 ---------------------------------------------------------------------
 Center     Atomic      Atomic             Coordinates (Angstroms)
 Number     Number       Type             X           Y           Z
 ---------------------------------------------------------------------
      1          6           0       -0.673460    0.018161    0.006907
      2          8           0        0.745583   -0.132901   -0.008565
      3          1           0       -1.034497    0.566988   -0.882953
      4          1           0       -1.013113    0.498155    0.887803
      5          1           0       -1.059270   -0.931445   -0.017273
      6          1           0        1.182969    0.820545    0.039502
 ---------------------------------------------------------------------

 SCF Done:  E(RB2PLYPD3) =  -115.541685325     A.U. after   11 cycles
 E2(B2PLYPD3) =    -0.1486978548D+00 E(B2PLYPD3) =    -0.11569038318008D+03

 The electronic state is 1-A.
 Alpha  occ. eigenvalues --  -19.73079 -10.64612  -1.14166  -0.78802  -0.57335
 Alpha  occ. eigenvalues --   -0.51732  -0.50066  -0.40948  -0.35132
 Alpha virt. eigenvalues --    0.04341   0.07970   0.12426   0.12702   0.14811
 Alpha virt. eigenvalues --    0.17203   0.18230   0.29096   0.31952   0.33352
 Alpha virt. eigenvalues --    0.33634   0.38875   0.40563   0.41171   0.43886

 Mulliken charges:
               1
     1  C    0.075396
     2  O   -0.486845
     3  H    0.044781
     4  H    0.049004
     5  H    0.073029
     6  H    0.244634
 Sum of Mulliken charges =   0.00000

 Dipole moment (field-independent basis, Debye):
    X=             -0.8841    Y=              1.5329    Z=              0.1232  Tot=              1.7739
 Quadrupole moment (field-independent basis, Debye-Ang):
   XX=            -12.9094   YY=            -12.1143   ZZ=            -13.7859
   XY=              2.4149   XZ=              0.0714   YZ=              0.0855

 Normal termination of Gaussian 09 at Thu Aug 27 00:10:15 2020.
