 Gaussian 09, Revision D.01,
 Gaussian 09:  ES64L-G09RevD.01 24-Apr-2013

 --------------------
 #p B2PLYPD3/Def2QZVP
 --------------------

 --------
 methanol
 --------
 Symbolic Z-matrix:
 Charge =  0 Multiplicity = 1

                         Standard orientation:
 ---------------------------------------------------------------------
 Center     Atomic      Atomic             Coordinates (Angstroms)
 Number     Number       Type             X           Y           Z
 ---------------------------------------------------------------------
      1          6           0       -0.697625    0.020618    0.018338
      2          8           0        0.741213   -0.194343   -0.018598
      3          1           0       -1.149831    0.583765   -0.695169
      4          1           0       -0.889098    0.477259    0.723126
      5          1           0       -0.949475   -0.854084   -0.007841
      6          1           0        1.244454    1.224095    0.018640
 ---------------------------------------------------------------------

 SCF Done:  E(RB2PLYPD3) =  -115.352774573     A.U. after   12 cycles
 E2(B2PLYPD3) =    -0.1586963087D+00 E(B2PLYPD3) =    -0.11551147088175D+03

 The electronic state is 1-A.
 Alpha  occ. eigenvalues --  -19.75662 -10.60164  -1.10679  -0.82116  -0.58857
 Alpha  occ. eigenvalues --   -0.52581  -0.47073  -0.39422  -0.35304
 Alpha virt. eigenvalues --   -0.03113   0.07416   0.12264   0.13349   0.14608
 Alpha virt. eigenvalues --    0.16887   0.18083   0.21344   0.29335   0.32213
 Alpha virt. eigenvalues --    0.33923   0.38146   0.39626   0.42609   0.46888

 Mulliken charges:
               1
     1  C    0.039089
     2  O   -0.479806
     3  H    0.041679
     4  H    0.096702
     5  H    0.094797
     6  H    0.207538
 Sum of Mulliken charges =   0.00000

 Dipole moment (field-independent basis, Debye):
    X=             -1.3009    Y=              1.7315    Z=              0.1515  Tot=              2.1711
 Quadrupole moment (field-independent basis, Debye-Ang):
   XX=            -13.0971   YY=            -10.9205   ZZ=            -14.1048
   XY=              2.2199   XZ=              0.0947   YZ=              0.1216

 Normal termination of Gaussian 09 at Wed Aug 26 22:31:05 2020.
