 Gaussian 09, Revision D.01,
 Gaussian 09:  ES64L-G09RevD.01 24-Apr-2013

 --------------------
 #p B2PLYPD3/Def2QZVP
 --------------------

 --------
 methanol
 --------
 Symbolic Z-matrix:
 Charge =  0 Multiplicity = 1

                         Standard orientation:
 ---------------------------------------------------------------------
 Center     Atomic      Atomic             Coordinates (Angstroms)
 Number     Number       Type             X           Y           Z
 ---------------------------------------------------------------------
      1          6           0       -0.653071    0.021296   -0.003081
      2          8           0        0.748985   -0.158058    0.005463
      3          1           0       -1.045917    0.491942   -0.806231
      4          1           0       -0.982461    0.595961    0.808904
      5          1           0       -1.159533   -0.913014    0.027378
      6          1           0        1.114460    0.961795   -0.055270
 ---------------------------------------------------------------------

 SCF Done:  E(RB2PLYPD3) =  -115.510428029     A.U. after   11 cycles
 E2(B2PLYPD3) =    -0.1511533523D+00 E(B2PLYPD3) =    -0.11566158138120D+03

 The electronic state is 1-A.
 Alpha  occ. eigenvalues --  -19.74472 -10.63588  -1.13521  -0.78950  -0.56362
 Alpha  occ. eigenvalues --   -0.52193  -0.49523  -0.40907  -0.35161
 Alpha virt. eigenvalues --    0.02549   0.07651   0.12569   0.12809   0.14870
 Alpha virt. eigenvalues --    0.17978   0.18243   0.26666   0.29658   0.33316
 Alpha virt. eigenvalues --    0.34472   0.39129   0.39752   0.42038   0.43861

 Mulliken charges:
               1
     1  C    0.093159
     2  O   -0.483084
     3  H    0.039428
     4  H    0.037668
     5  H    0.058626
     6  H    0.254204
 Sum of Mulliken charges =   0.00000

 Dipole moment (field-independent basis, Debye):
    X=             -1.0024    Y=              1.7299    Z=             -0.1292  Tot=              2.0035
 Quadrupole moment (field-independent basis, Debye-Ang):
   XX=            -13.1707   YY=            -11.7299   ZZ=            -14.0285
   XY=              2.3374   XZ=             -0.0148   YZ=             -0.0814

 Normal termination of Gaussian 09 at Wed Aug 26 13:39:10 2020.
