 Gaussian 09, Revision D.01,
 Gaussian 09:  ES64L-G09RevD.01 24-Apr-2013

 --------------------
 #p B2PLYPD3/Def2QZVP
 --------------------

 --------
 methanol
 --------
 Symbolic Z-matrix:
 Charge =  0 Multiplicity = 1

                         Standard orientation:
 ---------------------------------------------------------------------
 Center     Atomic      Atomic             Coordinates (Angstroms)
 Number     Number       Type             X           Y           Z
 ---------------------------------------------------------------------
      1          6           0       -0.656275   -0.033331    0.016006
      2          8           0        0.758119    0.088411   -0.023223
      3          1           0       -0.943788   -0.508434    0.932404
      4          1           0       -1.061345   -0.623545   -0.908333
      5          1           0       -1.145662    1.128760   -0.024245
      6          1           0        1.023493   -0.504083    0.089922
 ---------------------------------------------------------------------

 SCF Done:  E(RB2PLYPD3) =  -115.348502832     A.U. after   11 cycles
 E2(B2PLYPD3) =    -0.1437656844D+00 E(B2PLYPD3) =    -0.11549226851595D+03

 The electronic state is 1-A.
 Alpha  occ. eigenvalues --  -19.69597 -10.68595  -1.26737  -0.81076  -0.62594
 Alpha  occ. eigenvalues --   -0.52354  -0.49317  -0.41155  -0.36532
 Alpha virt. eigenvalues --    0.05154   0.09341   0.11283   0.11921   0.14602
 Alpha virt. eigenvalues --    0.17208   0.17608   0.28413   0.32271   0.32894
 Alpha virt. eigenvalues --    0.34017   0.37871   0.40237   0.41072   0.43297

 Mulliken charges:
               1
     1  C    0.053529
     2  O   -0.218576
     3  H    0.062578
     4  H    0.051355
     5  H    0.061372
     6  H   -0.010258
 Sum of Mulliken charges =   0.00000

 Dipole moment (field-independent basis, Debye):
    X=             -1.0088    Y=             -1.3049    Z=              0.3309  Tot=              1.6822
 Quadrupole moment (field-independent basis, Debye-Ang):
   XX=            -13.3657   YY=            -12.5212   ZZ=            -13.4699
   XY=             -1.7456   XZ=              0.3004   YZ=             -0.2020

 Normal termination of Gaussian 09 at Wed Aug 26 13:50:10 2020.
