 Gaussian 09, Revision D.01,
 Gaussian 09:  ES64L-G09RevD.01 24-Apr-2013

 --------------------
 #p B2PLYPD3/Def2QZVP
 --------------------

 --------
 methanol
 --------
 Symbolic Z-matrix:
 Charge =  0 Multiplicity = 1

                         Standard orientation:
 ---------------------------------------------------------------------
 Center     Atomic      Atomic             Coordinates (Angstroms)
 Number     Number       Type             X           Y           Z
 ---------------------------------------------------------------------
      1          6           0       -0.667163   -0.021346   -0.031810
      2          8           0        0.776754   -0.007593    0.069257
      3          1           0       -0.953888   -0.658139   -0.907208
      4          1           0       -1.221315    1.186610   -0.012440
      5          1           0       -1.084671   -0.534055    0.947688
      6          1           0        1.048819    0.194403   -0.391234
 ---------------------------------------------------------------------

 SCF Done:  E(RB2PLYPD3) =  -115.105168142     A.U. after   11 cycles
 E2(B2PLYPD3) =    -0.1441254286D+00 E(B2PLYPD3) =    -0.11524929357044D+03

 The electronic state is 1-A.
 Alpha  occ. eigenvalues --  -19.69091 -10.70471  -1.30364  -0.82426  -0.62191
 Alpha  occ. eigenvalues --   -0.51181  -0.49692  -0.41066  -0.36599
 Alpha virt. eigenvalues --    0.04910   0.08966   0.10915   0.11737   0.13995
 Alpha virt. eigenvalues --    0.16908   0.18205   0.27727   0.30555   0.31296
 Alpha virt. eigenvalues --    0.34151   0.36056   0.39519   0.40682   0.43322

 Mulliken charges:
               1
     1  C    0.043950
     2  O   -0.131594
     3  H    0.071443
     4  H    0.039249
     5  H    0.081627
     6  H   -0.104675
 Sum of Mulliken charges =   0.00000

 Dipole moment (field-independent basis, Debye):
    X=             -1.0797    Y=              0.1998    Z=             -1.0408  Tot=              1.5129
 Quadrupole moment (field-independent basis, Debye-Ang):
   XX=            -13.2050   YY=            -13.3168   ZZ=            -12.8063
   XY=              0.7928   XZ=             -1.7003   YZ=             -0.1536

 Normal termination of Gaussian 09 at Wed Aug 26 23:53:57 2020.
