 Gaussian 09, Revision D.01,
 Gaussian 09:  ES64L-G09RevD.01 24-Apr-2013

 --------------------
 #p B2PLYPD3/Def2QZVP
 --------------------

 --------
 methanol
 --------
 Symbolic Z-matrix:
 Charge =  0 Multiplicity = 1

                         Standard orientation:
 ---------------------------------------------------------------------
 Center     Atomic      Atomic             Coordinates (Angstroms)
 Number     Number       Type             X           Y           Z
 ---------------------------------------------------------------------
      1          6           0       -0.665337   -0.010308    0.003434
      2          8           0        0.741585    0.099198   -0.005363
      3          1           0       -0.993495   -0.505035    0.971548
      4          1           0       -0.994597   -0.637814   -0.909578
      5          1           0       -1.088182    1.003978   -0.067962
      6          1           0        1.135616   -0.592865    0.028295
 ---------------------------------------------------------------------

 SCF Done:  E(RB2PLYPD3) =  -115.513639721     A.U. after   10 cycles
 E2(B2PLYPD3) =    -0.1447370357D+00 E(B2PLYPD3) =    -0.11565837675677D+03

 The electronic state is 1-A.
 Alpha  occ. eigenvalues --  -19.70616 -10.67275  -1.20390  -0.80196  -0.60449
 Alpha  occ. eigenvalues --   -0.51518  -0.50960  -0.40616  -0.35395
 Alpha virt. eigenvalues --    0.05395   0.08921   0.11952   0.12366   0.14493
 Alpha virt. eigenvalues --    0.17109   0.17704   0.28948   0.32802   0.33233
 Alpha virt. eigenvalues --    0.37330   0.39349   0.39640   0.40102   0.43060

 Mulliken charges:
               1
     1  C    0.063905
     2  O   -0.354077
     3  H    0.047514
     4  H    0.042854
     5  H    0.081850
     6  H    0.117954
 Sum of Mulliken charges =   0.00000

 Dipole moment (field-independent basis, Debye):
    X=             -0.8155    Y=             -1.2739    Z=              0.0798  Tot=              1.5146
 Quadrupole moment (field-independent basis, Debye-Ang):
   XX=            -13.0116   YY=            -12.4907   ZZ=            -13.6327
   XY=             -2.1919   XZ=              0.0886   YZ=             -0.0664

 Normal termination of Gaussian 09 at Thu Aug 27 00:01:36 2020.
