 Gaussian 09, Revision D.01,
 Gaussian 09:  ES64L-G09RevD.01 24-Apr-2013

 --------------------
 #p B2PLYPD3/Def2QZVP
 --------------------

 --------
 methanol
 --------
 Symbolic Z-matrix:
 Charge =  0 Multiplicity = 1

                         Standard orientation:
 ---------------------------------------------------------------------
 Center     Atomic      Atomic             Coordinates (Angstroms)
 Number     Number       Type             X           Y           Z
 ---------------------------------------------------------------------
      1          6           0       -0.670587   -0.023463    0.010092
      2          8           0        0.750218    0.096516   -0.012130
      3          1           0       -1.015750   -0.455946    0.943550
      4          1           0       -1.051884   -0.618242   -0.890821
      5          1           0       -1.029209    1.062692   -0.071211
      6          1           0        1.118625   -0.619856    0.054969
 ---------------------------------------------------------------------

 SCF Done:  E(RB2PLYPD3) =  -115.519572924     A.U. after   10 cycles
 E2(B2PLYPD3) =    -0.1451584208D+00 E(B2PLYPD3) =    -0.11566473134436D+03

 The electronic state is 1-A.
 Alpha  occ. eigenvalues --  -19.70892 -10.67071  -1.19825  -0.79811  -0.60540
 Alpha  occ. eigenvalues --   -0.51856  -0.49436  -0.40975  -0.35883
 Alpha virt. eigenvalues --    0.05393   0.08829   0.11997   0.12136   0.14745
 Alpha virt. eigenvalues --    0.16861   0.18001   0.28968   0.32855   0.33284
 Alpha virt. eigenvalues --    0.37229   0.38537   0.40002   0.40657   0.42656

 Mulliken charges:
               1
     1  C    0.059413
     2  O   -0.365671
     3  H    0.058319
     4  H    0.049875
     5  H    0.071997
     6  H    0.126068
 Sum of Mulliken charges =   0.00000

 Dipole moment (field-independent basis, Debye):
    X=             -0.8894    Y=             -1.3603    Z=              0.1833  Tot=              1.6355
 Quadrupole moment (field-independent basis, Debye-Ang):
   XX=            -13.1041   YY=            -12.4170   ZZ=            -13.5957
   XY=             -1.9866   XZ=              0.1415   YZ=             -0.1175

 Normal termination of Gaussian 09 at Wed Aug 26 09:49:17 2020.
