 Gaussian 09, Revision D.01,
 Gaussian 09:  ES64L-G09RevD.01 24-Apr-2013

 --------------------
 #p B2PLYPD3/Def2QZVP
 --------------------

 --------
 methanol
 --------
 Symbolic Z-matrix:
 Charge =  0 Multiplicity = 1

                         Standard orientation:
 ---------------------------------------------------------------------
 Center     Atomic      Atomic             Coordinates (Angstroms)
 Number     Number       Type             X           Y           Z
 ---------------------------------------------------------------------
      1          6           0        0.661107   -0.016158   -0.001457
      2          8           0       -0.753341    0.104740   -0.002581
      3          1           0        1.103827   -0.542252   -0.888868
      4          1           0        1.037883   -0.542078    0.916172
      5          1           0        1.045568    1.032571    0.010516
      6          1           0       -1.127197   -0.689208   -0.008430
 ---------------------------------------------------------------------

 SCF Done:  E(RB2PLYPD3) =  -115.544292024     A.U. after   10 cycles
 E2(B2PLYPD3) =    -0.1462552131D+00 E(B2PLYPD3) =    -0.11569054723720D+03

 The electronic state is 1-A.
 Alpha  occ. eigenvalues --  -19.72041 -10.66751  -1.18199  -0.78978  -0.60002
 Alpha  occ. eigenvalues --   -0.51146  -0.49761  -0.41224  -0.35604
 Alpha virt. eigenvalues --    0.05262   0.08417   0.12175   0.12286   0.14974
 Alpha virt. eigenvalues --    0.17047   0.18149   0.29007   0.33082   0.33659
 Alpha virt. eigenvalues --    0.37137   0.38336   0.39636   0.39917   0.42699

 Mulliken charges:
               1
     1  C    0.060056
     2  O   -0.414098
     3  H    0.048934
     4  H    0.047710
     5  H    0.071901
     6  H    0.185496
 Sum of Mulliken charges =   0.00000

 Dipole moment (field-independent basis, Debye):
    X=              0.8492    Y=             -1.4169    Z=             -0.0085  Tot=              1.6519
 Quadrupole moment (field-independent basis, Debye-Ang):
   XX=            -13.0186   YY=            -12.3398   ZZ=            -13.8275
   XY=              2.0941   XZ=             -0.0405   YZ=              0.0191

 Normal termination of Gaussian 09 at Wed Aug 26 23:02:23 2020.
