 Gaussian 09, Revision D.01,
 Gaussian 09:  ES64L-G09RevD.01 24-Apr-2013

 --------------------
 #p B2PLYPD3/Def2QZVP
 --------------------

 --------
 methanol
 --------
 Symbolic Z-matrix:
 Charge =  0 Multiplicity = 1

                         Standard orientation:
 ---------------------------------------------------------------------
 Center     Atomic      Atomic             Coordinates (Angstroms)
 Number     Number       Type             X           Y           Z
 ---------------------------------------------------------------------
      1          6           0       -0.685433   -0.031792    0.006216
      2          8           0        0.753898    0.100427   -0.014075
      3          1           0       -0.940460   -0.469186    0.994424
      4          1           0       -1.070759   -0.593357   -0.905697
      5          1           0       -1.079808    1.039180   -0.040679
      6          1           0        1.172443   -0.589298    0.027261
 ---------------------------------------------------------------------

 SCF Done:  E(RB2PLYPD3) =  -115.516713722     A.U. after   10 cycles
 E2(B2PLYPD3) =    -0.1453947671D+00 E(B2PLYPD3) =    -0.11566210848921D+03

 The electronic state is 1-A.
 Alpha  occ. eigenvalues --  -19.70499 -10.67515  -1.18900  -0.79860  -0.59634
 Alpha  occ. eigenvalues --   -0.52088  -0.49384  -0.40167  -0.35851
 Alpha virt. eigenvalues --    0.05423   0.08715   0.11929   0.12174   0.14186
 Alpha virt. eigenvalues --    0.16886   0.18072   0.28931   0.31787   0.33318
 Alpha virt. eigenvalues --    0.36930   0.38877   0.39582   0.40162   0.42903

 Mulliken charges:
               1
     1  C    0.062467
     2  O   -0.380897
     3  H    0.060565
     4  H    0.058153
     5  H    0.074499
     6  H    0.125213
 Sum of Mulliken charges =   0.00000

 Dipole moment (field-independent basis, Debye):
    X=             -0.9086    Y=             -1.3244    Z=              0.1086  Tot=              1.6098
 Quadrupole moment (field-independent basis, Debye-Ang):
   XX=            -12.8881   YY=            -12.6258   ZZ=            -13.4744
   XY=             -2.1328   XZ=              0.2254   YZ=             -0.0368

 Normal termination of Gaussian 09 at Wed Aug 26 13:22:24 2020.
