 Gaussian 09, Revision D.01,
 Gaussian 09:  ES64L-G09RevD.01 24-Apr-2013

 --------------------
 #p B2PLYPD3/Def2QZVP
 --------------------

 --------
 methanol
 --------
 Symbolic Z-matrix:
 Charge =  0 Multiplicity = 1

                         Standard orientation:
 ---------------------------------------------------------------------
 Center     Atomic      Atomic             Coordinates (Angstroms)
 Number     Number       Type             X           Y           Z
 ---------------------------------------------------------------------
      1          6           0       -0.667241    0.025018    0.002008
      2          8           0        0.752082   -0.146144   -0.005806
      3          1           0       -1.048821    0.576116   -0.816938
      4          1           0       -1.046096    0.496456    0.836322
      5          1           0       -1.101045   -0.948576   -0.018942
      6          1           0        1.182747    0.895045    0.033961
 ---------------------------------------------------------------------

 SCF Done:  E(RB2PLYPD3) =  -115.526524805     A.U. after   11 cycles
 E2(B2PLYPD3) =    -0.1503008649D+00 E(B2PLYPD3) =    -0.11567682566955D+03

 The electronic state is 1-A.
 Alpha  occ. eigenvalues --  -19.73994 -10.64142  -1.13267  -0.78841  -0.56768
 Alpha  occ. eigenvalues --   -0.51717  -0.49212  -0.41022  -0.35279
 Alpha virt. eigenvalues --    0.03445   0.07672   0.12472   0.12797   0.15025
 Alpha virt. eigenvalues --    0.17439   0.18272   0.28310   0.29839   0.33656
 Alpha virt. eigenvalues --    0.33814   0.38891   0.39535   0.41816   0.44157

 Mulliken charges:
               1
     1  C    0.083126
     2  O   -0.489857
     3  H    0.044245
     4  H    0.046245
     5  H    0.064482
     6  H    0.251759
 Sum of Mulliken charges =   0.00000

 Dipole moment (field-independent basis, Debye):
    X=             -0.9338    Y=              1.6660    Z=              0.0914  Tot=              1.9120
 Quadrupole moment (field-independent basis, Debye-Ang):
   XX=            -12.8719   YY=            -11.9150   ZZ=            -13.9926
   XY=              2.3589   XZ=              0.0485   YZ=              0.0511

 Normal termination of Gaussian 09 at Thu Aug 27 00:13:17 2020.
