 Gaussian 09, Revision D.01,
 Gaussian 09:  ES64L-G09RevD.01 24-Apr-2013

 --------------------
 #p B2PLYPD3/Def2QZVP
 --------------------

 --------
 methanol
 --------
 Symbolic Z-matrix:
 Charge =  0 Multiplicity = 1

                         Standard orientation:
 ---------------------------------------------------------------------
 Center     Atomic      Atomic             Coordinates (Angstroms)
 Number     Number       Type             X           Y           Z
 ---------------------------------------------------------------------
      1          6           0        0.661743   -0.027020   -0.003001
      2          8           0       -0.746823    0.102243    0.002519
      3          1           0        1.025726   -0.567222   -0.893785
      4          1           0        1.048469   -0.519736    0.925294
      5          1           0        1.060832    1.064205   -0.029411
      6          1           0       -1.130896   -0.633072   -0.004244
 ---------------------------------------------------------------------

 SCF Done:  E(RB2PLYPD3) =  -115.529187053     A.U. after   10 cycles
 E2(B2PLYPD3) =    -0.1453878737D+00 E(B2PLYPD3) =    -0.11567457492627D+03

 The electronic state is 1-A.
 Alpha  occ. eigenvalues --  -19.71290 -10.67042  -1.19539  -0.79488  -0.60626
 Alpha  occ. eigenvalues --   -0.51863  -0.49498  -0.40701  -0.35807
 Alpha virt. eigenvalues --    0.05352   0.08716   0.11988   0.12242   0.14840
 Alpha virt. eigenvalues --    0.16990   0.18034   0.28979   0.33299   0.33439
 Alpha virt. eigenvalues --    0.36960   0.38652   0.39889   0.40415   0.42541

 Mulliken charges:
               1
     1  C    0.059150
     2  O   -0.380080
     3  H    0.053296
     4  H    0.052063
     5  H    0.067801
     6  H    0.147769
 Sum of Mulliken charges =   0.00000

 Dipole moment (field-independent basis, Debye):
    X=              0.8201    Y=             -1.4055    Z=             -0.0299  Tot=              1.6276
 Quadrupole moment (field-independent basis, Debye-Ang):
   XX=            -13.0183   YY=            -12.4424   ZZ=            -13.6915
   XY=              2.0264   XZ=              0.0125   YZ=              0.0248

 Normal termination of Gaussian 09 at Wed Aug 26 10:08:48 2020.
