 Gaussian 09, Revision D.01,
 Gaussian 09:  ES64L-G09RevD.01 24-Apr-2013

 --------------------
 #p B2PLYPD3/Def2QZVP
 --------------------

 --------
 methanol
 --------
 Symbolic Z-matrix:
 Charge =  0 Multiplicity = 1

                         Standard orientation:
 ---------------------------------------------------------------------
 Center     Atomic      Atomic             Coordinates (Angstroms)
 Number     Number       Type             X           Y           Z
 ---------------------------------------------------------------------
      1          6           0       -0.663641   -0.022715    0.004690
      2          8           0        0.738789    0.111733   -0.008139
      3          1           0       -0.941418   -0.530453    0.937252
      4          1           0       -1.024244   -0.581406   -0.901308
      5          1           0       -1.102383    1.003337   -0.011059
      6          1           0        1.139574   -0.649049    0.012090
 ---------------------------------------------------------------------

 SCF Done:  E(RB2PLYPD3) =  -115.540911168     A.U. after   10 cycles
 E2(B2PLYPD3) =    -0.1454983600D+00 E(B2PLYPD3) =    -0.11568640952821D+03

 The electronic state is 1-A.
 Alpha  occ. eigenvalues --  -19.71290 -10.66440  -1.18644  -0.79378  -0.59899
 Alpha  occ. eigenvalues --   -0.52210  -0.50285  -0.40556  -0.35416
 Alpha virt. eigenvalues --    0.05326   0.08698   0.12159   0.12381   0.14585
 Alpha virt. eigenvalues --    0.17223   0.17847   0.29039   0.32949   0.33649
 Alpha virt. eigenvalues --    0.37160   0.39104   0.39802   0.40543   0.43680

 Mulliken charges:
               1
     1  C    0.067261
     2  O   -0.410438
     3  H    0.050100
     4  H    0.046615
     5  H    0.072976
     6  H    0.173487
 Sum of Mulliken charges =   0.00000

 Dipole moment (field-independent basis, Debye):
    X=             -0.8103    Y=             -1.3932    Z=              0.0643  Tot=              1.6129
 Quadrupole moment (field-independent basis, Debye-Ang):
   XX=            -13.0148   YY=            -12.4345   ZZ=            -13.6346
   XY=             -2.2277   XZ=              0.1031   YZ=             -0.0338

 Normal termination of Gaussian 09 at Thu Aug 27 00:02:40 2020.
