 Gaussian 09, Revision D.01,
 Gaussian 09:  ES64L-G09RevD.01 24-Apr-2013

 --------------------
 #p B2PLYPD3/Def2QZVP
 --------------------

 --------
 methanol
 --------
 Symbolic Z-matrix:
 Charge =  0 Multiplicity = 1

                         Standard orientation:
 ---------------------------------------------------------------------
 Center     Atomic      Atomic             Coordinates (Angstroms)
 Number     Number       Type             X           Y           Z
 ---------------------------------------------------------------------
      1          6           0        0.675983   -0.014079   -0.004825
      2          8           0       -0.745799    0.084015   -0.008894
      3          1           0        1.060140   -0.651887   -0.893084
      4          1           0        0.993304   -0.462482    1.039120
      5          1           0        1.055717    1.038073   -0.077146
      6          1           0       -1.198666   -0.511348    0.031217
 ---------------------------------------------------------------------

 SCF Done:  E(RB2PLYPD3) =  -115.472169305     A.U. after   11 cycles
 E2(B2PLYPD3) =    -0.1445403882D+00 E(B2PLYPD3) =    -0.11561670969318D+03

 The electronic state is 1-A.
 Alpha  occ. eigenvalues --  -19.69811 -10.68424  -1.21159  -0.81153  -0.60562
 Alpha  occ. eigenvalues --   -0.51057  -0.50623  -0.39763  -0.35561
 Alpha virt. eigenvalues --    0.05409   0.08950   0.11778   0.12222   0.14273
 Alpha virt. eigenvalues --    0.16724   0.17892   0.28945   0.32143   0.32973
 Alpha virt. eigenvalues --    0.36836   0.38725   0.38851   0.40437   0.42296

 Mulliken charges:
               1
     1  C    0.057865
     2  O   -0.307778
     3  H    0.053367
     4  H    0.048264
     5  H    0.086749
     6  H    0.061533
 Sum of Mulliken charges =   0.00000

 Dipole moment (field-independent basis, Debye):
    X=              0.7759    Y=             -1.1597    Z=              0.0556  Tot=              1.3964
 Quadrupole moment (field-independent basis, Debye-Ang):
   XX=            -12.7065   YY=            -12.7071   ZZ=            -13.5726
   XY=              2.0680   XZ=             -0.2380   YZ=              0.0003

 Normal termination of Gaussian 09 at Wed Aug 26 14:39:52 2020.
