 Gaussian 09, Revision D.01,
 Gaussian 09:  ES64L-G09RevD.01 24-Apr-2013

 --------------------
 #p B2PLYPD3/Def2QZVP
 --------------------

 --------
 methanol
 --------
 Symbolic Z-matrix:
 Charge =  0 Multiplicity = 1

                         Standard orientation:
 ---------------------------------------------------------------------
 Center     Atomic      Atomic             Coordinates (Angstroms)
 Number     Number       Type             X           Y           Z
 ---------------------------------------------------------------------
      1          6           0       -0.708081    0.037007   -0.014762
      2          8           0        0.746100   -0.200807   -0.010103
      3          1           0       -1.132274    0.450667   -0.704286
      4          1           0       -0.824606    0.591319    0.758798
      5          1           0       -1.032681   -0.833674    0.138999
      6          1           0        1.269248    1.176099   -0.024118
 ---------------------------------------------------------------------

 SCF Done:  E(RB2PLYPD3) =  -115.383101602     A.U. after   12 cycles
 E2(B2PLYPD3) =    -0.1580160717D+00 E(B2PLYPD3) =    -0.11554111767365D+03

 The electronic state is 1-A.
 Alpha  occ. eigenvalues --  -19.75408 -10.60467  -1.09932  -0.81896  -0.56460
 Alpha  occ. eigenvalues --   -0.54215  -0.46896  -0.39377  -0.35304
 Alpha virt. eigenvalues --   -0.02448   0.07486   0.12307   0.13132   0.14299
 Alpha virt. eigenvalues --    0.17037   0.18303   0.21577   0.29027   0.31464
 Alpha virt. eigenvalues --    0.34300   0.38558   0.39800   0.43752   0.46391

 Mulliken charges:
               1
     1  C    0.094131
     2  O   -0.485253
     3  H    0.054162
     4  H    0.051071
     5  H    0.070364
     6  H    0.215525
 Sum of Mulliken charges =   0.00000

 Dipole moment (field-independent basis, Debye):
    X=             -1.2894    Y=              1.7484    Z=              0.0098  Tot=              2.1725
 Quadrupole moment (field-independent basis, Debye-Ang):
   XX=            -12.9283   YY=            -11.1927   ZZ=            -13.9636
   XY=              2.4191   XZ=              0.1973   YZ=             -0.0850

 Normal termination of Gaussian 09 at Wed Aug 26 22:44:20 2020.
