 Gaussian 09, Revision D.01,
 Gaussian 09:  ES64L-G09RevD.01 24-Apr-2013

 --------------------
 #p B2PLYPD3/Def2QZVP
 --------------------

 --------
 methanol
 --------
 Symbolic Z-matrix:
 Charge =  0 Multiplicity = 1

                         Standard orientation:
 ---------------------------------------------------------------------
 Center     Atomic      Atomic             Coordinates (Angstroms)
 Number     Number       Type             X           Y           Z
 ---------------------------------------------------------------------
      1          6           0       -0.658254   -0.019267   -0.002144
      2          8           0        0.765657    0.082527   -0.011972
      3          1           0       -1.097989   -0.384428    1.001482
      4          1           0       -0.984692   -0.740612   -0.857404
      5          1           0       -1.128597    1.078496   -0.164916
      6          1           0        1.035550   -0.498068    0.129477
 ---------------------------------------------------------------------

 SCF Done:  E(RB2PLYPD3) =  -115.346635669     A.U. after   11 cycles
 E2(B2PLYPD3) =    -0.1439136666D+00 E(B2PLYPD3) =    -0.11549054933575D+03

 The electronic state is 1-A.
 Alpha  occ. eigenvalues --  -19.69706 -10.69034  -1.26639  -0.80980  -0.62124
 Alpha  occ. eigenvalues --   -0.51624  -0.49700  -0.41275  -0.36468
 Alpha virt. eigenvalues --    0.05238   0.09200   0.11626   0.11767   0.14477
 Alpha virt. eigenvalues --    0.17174   0.17768   0.28394   0.31900   0.33262
 Alpha virt. eigenvalues --    0.35313   0.37663   0.38334   0.40555   0.43107

 Mulliken charges:
               1
     1  C    0.051424
     2  O   -0.216299
     3  H    0.051529
     4  H    0.052847
     5  H    0.072684
     6  H   -0.012185
 Sum of Mulliken charges =   0.00000

 Dipole moment (field-independent basis, Debye):
    X=             -1.0401    Y=             -1.1953    Z=              0.3080  Tot=              1.6142
 Quadrupole moment (field-independent basis, Debye-Ang):
   XX=            -13.2509   YY=            -12.5604   ZZ=            -13.5450
   XY=             -1.8324   XZ=              0.2802   YZ=             -0.1488

 Normal termination of Gaussian 09 at Wed Aug 26 15:19:33 2020.
