 Gaussian 09, Revision D.01,
 Gaussian 09:  ES64L-G09RevD.01 24-Apr-2013

 --------------------
 #p B2PLYPD3/Def2QZVP
 --------------------

 --------
 methanol
 --------
 Symbolic Z-matrix:
 Charge =  0 Multiplicity = 1

                         Standard orientation:
 ---------------------------------------------------------------------
 Center     Atomic      Atomic             Coordinates (Angstroms)
 Number     Number       Type             X           Y           Z
 ---------------------------------------------------------------------
      1          6           0       -0.666108   -0.027208   -0.001593
      2          8           0        0.754099    0.103140   -0.006793
      3          1           0       -1.017404   -0.495121    0.944892
      4          1           0       -0.996106   -0.614327   -0.892623
      5          1           0       -1.136432    1.042182   -0.041704
      6          1           0        1.113796   -0.594607    0.053341
 ---------------------------------------------------------------------

 SCF Done:  E(RB2PLYPD3) =  -115.507566754     A.U. after   10 cycles
 E2(B2PLYPD3) =    -0.1448855753D+00 E(B2PLYPD3) =    -0.11565245232975D+03

 The electronic state is 1-A.
 Alpha  occ. eigenvalues --  -19.70746 -10.67410  -1.20621  -0.79898  -0.60752
 Alpha  occ. eigenvalues --   -0.52046  -0.49640  -0.40740  -0.35984
 Alpha virt. eigenvalues --    0.05393   0.08858   0.12053   0.12092   0.14516
 Alpha virt. eigenvalues --    0.17260   0.17865   0.28900   0.32670   0.33212
 Alpha virt. eigenvalues --    0.36498   0.38793   0.39891   0.40229   0.43103

 Mulliken charges:
               1
     1  C    0.062985
     2  O   -0.346297
     3  H    0.052722
     4  H    0.054310
     5  H    0.069791
     6  H    0.106488
 Sum of Mulliken charges =   0.00000

 Dipole moment (field-independent basis, Debye):
    X=             -0.9243    Y=             -1.3640    Z=              0.1250  Tot=              1.6524
 Quadrupole moment (field-independent basis, Debye-Ang):
   XX=            -13.0248   YY=            -12.5215   ZZ=            -13.6019
   XY=             -2.0739   XZ=              0.1315   YZ=             -0.0452

 Normal termination of Gaussian 09 at Thu Aug 27 00:15:16 2020.
