 Gaussian 09, Revision D.01,
 Gaussian 09:  ES64L-G09RevD.01 24-Apr-2013

 --------------------
 #p B2PLYPD3/Def2QZVP
 --------------------

 --------
 methanol
 --------
 Symbolic Z-matrix:
 Charge =  0 Multiplicity = 1

                         Standard orientation:
 ---------------------------------------------------------------------
 Center     Atomic      Atomic             Coordinates (Angstroms)
 Number     Number       Type             X           Y           Z
 ---------------------------------------------------------------------
      1          6           0        0.677252   -0.018091    0.008656
      2          8           0       -0.748949    0.111055   -0.008403
      3          1           0        1.011249   -0.624556   -0.888243
      4          1           0        1.007361   -0.464497    0.941528
      5          1           0        1.065774    0.988216   -0.080863
      6          1           0       -1.156302   -0.679058    0.042862
 ---------------------------------------------------------------------

 SCF Done:  E(RB2PLYPD3) =  -115.547275751     A.U. after   10 cycles
 E2(B2PLYPD3) =    -0.1461811397D+00 E(B2PLYPD3) =    -0.11569345689118D+03

 The electronic state is 1-A.
 Alpha  occ. eigenvalues --  -19.71546 -10.66190  -1.17070  -0.79328  -0.59122
 Alpha  occ. eigenvalues --   -0.51765  -0.50119  -0.40880  -0.35446
 Alpha virt. eigenvalues --    0.05282   0.08513   0.12157   0.12441   0.14609
 Alpha virt. eigenvalues --    0.17067   0.17976   0.29106   0.32800   0.33220
 Alpha virt. eigenvalues --    0.36903   0.39050   0.39859   0.40688   0.43588

 Mulliken charges:
               1
     1  C    0.070548
     2  O   -0.440373
     3  H    0.046431
     4  H    0.054599
     5  H    0.076740
     6  H    0.192055
 Sum of Mulliken charges =   0.00000

 Dipole moment (field-independent basis, Debye):
    X=              0.8933    Y=             -1.4004    Z=              0.1306  Tot=              1.6662
 Quadrupole moment (field-independent basis, Debye-Ang):
   XX=            -12.9669   YY=            -12.3656   ZZ=            -13.6377
   XY=              2.2455   XZ=             -0.0971   YZ=             -0.1049

 Normal termination of Gaussian 09 at Thu Aug 27 00:11:51 2020.
