 Gaussian 09, Revision D.01,
 Gaussian 09:  ES64L-G09RevD.01 24-Apr-2013

 --------------------
 #p B2PLYPD3/Def2QZVP
 --------------------

 --------
 methanol
 --------
 Symbolic Z-matrix:
 Charge =  0 Multiplicity = 1

                         Standard orientation:
 ---------------------------------------------------------------------
 Center     Atomic      Atomic             Coordinates (Angstroms)
 Number     Number       Type             X           Y           Z
 ---------------------------------------------------------------------
      1          6           0       -0.675845   -0.051084    0.013091
      2          8           0        0.753547    0.077416   -0.037154
      3          1           0       -0.882494   -0.141688    1.061452
      4          1           0       -1.011281   -0.854963   -0.701592
      5          1           0       -1.084006    1.125402   -0.309358
      6          1           0        1.004470   -0.441571    0.168185
 ---------------------------------------------------------------------

 SCF Done:  E(RB2PLYPD3) =  -115.237719985     A.U. after   11 cycles
 E2(B2PLYPD3) =    -0.1435131369D+00 E(B2PLYPD3) =    -0.11538123312232D+03

 The electronic state is 1-A.
 Alpha  occ. eigenvalues --  -19.68426 -10.68538  -1.28375  -0.81793  -0.61950
 Alpha  occ. eigenvalues --   -0.54023  -0.48474  -0.40473  -0.37023
 Alpha virt. eigenvalues --    0.05044   0.09636   0.10982   0.11748   0.14067
 Alpha virt. eigenvalues --    0.16712   0.17864   0.28258   0.31104   0.32927
 Alpha virt. eigenvalues --    0.33577   0.38520   0.40545   0.41593   0.43658

 Mulliken charges:
               1
     1  C    0.054298
     2  O   -0.185610
     3  H    0.067228
     4  H    0.068357
     5  H    0.056392
     6  H   -0.060663
 Sum of Mulliken charges =   0.00000

 Dipole moment (field-independent basis, Debye):
    X=             -1.0946    Y=             -1.2247    Z=              0.5317  Tot=              1.7265
 Quadrupole moment (field-independent basis, Debye-Ang):
   XX=            -13.6019   YY=            -12.4582   ZZ=            -13.1630
   XY=             -1.5220   XZ=              0.6645   YZ=             -0.0658

 Normal termination of Gaussian 09 at Wed Aug 26 18:58:54 2020.
