 Gaussian 09, Revision D.01,
 Gaussian 09:  ES64L-G09RevD.01 24-Apr-2013

 --------------------
 #p B2PLYPD3/Def2QZVP
 --------------------

 --------
 methanol
 --------
 Symbolic Z-matrix:
 Charge =  0 Multiplicity = 1

                         Standard orientation:
 ---------------------------------------------------------------------
 Center     Atomic      Atomic             Coordinates (Angstroms)
 Number     Number       Type             X           Y           Z
 ---------------------------------------------------------------------
      1          6           0       -0.660169   -0.028438    0.010910
      2          8           0        0.748974    0.117093   -0.008870
      3          1           0       -1.031605   -0.485948    0.886432
      4          1           0       -1.045823   -0.583868   -0.878932
      5          1           0       -1.086354    1.022938   -0.042294
      6          1           0        1.133002   -0.719240    0.040298
 ---------------------------------------------------------------------

 SCF Done:  E(RB2PLYPD3) =  -115.549465521     A.U. after   10 cycles
 E2(B2PLYPD3) =    -0.1467288220D+00 E(B2PLYPD3) =    -0.11569619434256D+03

 The electronic state is 1-A.
 Alpha  occ. eigenvalues --  -19.72356 -10.66018  -1.17173  -0.78824  -0.59570
 Alpha  occ. eigenvalues --   -0.51955  -0.49418  -0.40920  -0.35651
 Alpha virt. eigenvalues --    0.05124   0.08336   0.12207   0.12401   0.14931
 Alpha virt. eigenvalues --    0.17238   0.18187   0.29053   0.33377   0.33610
 Alpha virt. eigenvalues --    0.36341   0.37745   0.39670   0.41256   0.43622

 Mulliken charges:
               1
     1  C    0.065802
     2  O   -0.439507
     3  H    0.054897
     4  H    0.046434
     5  H    0.064257
     6  H    0.208116
 Sum of Mulliken charges =   0.00000

 Dipole moment (field-independent basis, Debye):
    X=             -0.8525    Y=             -1.5030    Z=              0.1435  Tot=              1.7339
 Quadrupole moment (field-independent basis, Debye-Ang):
   XX=            -13.0088   YY=            -12.3236   ZZ=            -13.7697
   XY=             -2.1443   XZ=              0.0609   YZ=             -0.1070

 Normal termination of Gaussian 09 at Thu Aug 27 00:08:41 2020.
