 Gaussian 09, Revision D.01,
 Gaussian 09:  ES64L-G09RevD.01 24-Apr-2013

 --------------------
 #p B2PLYPD3/Def2QZVP
 --------------------

 --------
 methanol
 --------
 Symbolic Z-matrix:
 Charge =  0 Multiplicity = 1

                         Standard orientation:
 ---------------------------------------------------------------------
 Center     Atomic      Atomic             Coordinates (Angstroms)
 Number     Number       Type             X           Y           Z
 ---------------------------------------------------------------------
      1          6           0        0.640684   -0.011300    0.002004
      2          8           0       -0.734626   -0.185586   -0.013279
      3          1           0        1.078199    0.432553    0.796072
      4          1           0        1.000783    0.651463   -0.788713
      5          1           0        1.103995   -0.721731   -0.024336
      6          1           0       -1.150070    1.190203    0.111183
 ---------------------------------------------------------------------

 SCF Done:  E(RB2PLYPD3) =  -115.385082867     A.U. after   11 cycles
 E2(B2PLYPD3) =    -0.1563394760D+00 E(B2PLYPD3) =    -0.11554142234289D+03

 The electronic state is 1-A.
 Alpha  occ. eigenvalues --  -19.75872 -10.61365  -1.13047  -0.81560  -0.55690
 Alpha  occ. eigenvalues --   -0.51963  -0.50323  -0.39573  -0.34494
 Alpha virt. eigenvalues --   -0.02738   0.07367   0.12821   0.13026   0.14839
 Alpha virt. eigenvalues --    0.18074   0.18712   0.22057   0.29804   0.32980
 Alpha virt. eigenvalues --    0.35077   0.37798   0.40062   0.42467   0.44138

 Mulliken charges:
               1
     1  C    0.047102
     2  O   -0.463811
     3  H    0.030333
     4  H    0.027680
     5  H    0.113407
     6  H    0.245289
 Sum of Mulliken charges =   0.00000

 Dipole moment (field-independent basis, Debye):
    X=              1.0177    Y=              1.6936    Z=              0.2529  Tot=              1.9920
 Quadrupole moment (field-independent basis, Debye-Ang):
   XX=            -13.1390   YY=            -11.1940   ZZ=            -14.1861
   XY=             -2.5878   XZ=             -0.0158   YZ=              0.1727

 Normal termination of Gaussian 09 at Wed Aug 26 23:53:50 2020.
