 Gaussian 09, Revision D.01,
 Gaussian 09:  ES64L-G09RevD.01 24-Apr-2013

 --------------------
 #p B2PLYPD3/Def2QZVP
 --------------------

 --------
 methanol
 --------
 Symbolic Z-matrix:
 Charge =  0 Multiplicity = 1

                         Standard orientation:
 ---------------------------------------------------------------------
 Center     Atomic      Atomic             Coordinates (Angstroms)
 Number     Number       Type             X           Y           Z
 ---------------------------------------------------------------------
      1          6           0        0.664258   -0.008860   -0.000860
      2          8           0       -0.754736    0.104540    0.006074
      3          1           0        1.021667   -0.559039   -0.918135
      4          1           0        1.031828   -0.559755    0.931655
      5          1           0        1.096794    0.994989   -0.020824
      6          1           0       -1.097945   -0.659357   -0.036125
 ---------------------------------------------------------------------

 SCF Done:  E(RB2PLYPD3) =  -115.533965777     A.U. after   10 cycles
 E2(B2PLYPD3) =    -0.1455628456D+00 E(B2PLYPD3) =    -0.11567952862259D+03

 The electronic state is 1-A.
 Alpha  occ. eigenvalues --  -19.71467 -10.66922  -1.19193  -0.79401  -0.60048
 Alpha  occ. eigenvalues --   -0.51265  -0.50509  -0.41366  -0.35565
 Alpha virt. eigenvalues --    0.05328   0.08669   0.12036   0.12377   0.14645
 Alpha virt. eigenvalues --    0.17324   0.17877   0.28978   0.32871   0.33143
 Alpha virt. eigenvalues --    0.36998   0.39277   0.39590   0.39908   0.43330

 Mulliken charges:
               1
     1  C    0.065228
     2  O   -0.391224
     3  H    0.045115
     4  H    0.045943
     5  H    0.077834
     6  H    0.157103
 Sum of Mulliken charges =   0.00000

 Dipole moment (field-independent basis, Debye):
    X=              0.9298    Y=             -1.3518    Z=             -0.1006  Tot=              1.6438
 Quadrupole moment (field-independent basis, Debye-Ang):
   XX=            -13.1370   YY=            -12.3702   ZZ=            -13.7165
   XY=              2.1696   XZ=              0.0765   YZ=              0.0470

 Normal termination of Gaussian 09 at Thu Aug 27 00:13:51 2020.
