 Gaussian 09, Revision D.01,
 Gaussian 09:  ES64L-G09RevD.01 24-Apr-2013

 --------------------
 #p B2PLYPD3/Def2QZVP
 --------------------

 --------
 methanol
 --------
 Symbolic Z-matrix:
 Charge =  0 Multiplicity = 1

                         Standard orientation:
 ---------------------------------------------------------------------
 Center     Atomic      Atomic             Coordinates (Angstroms)
 Number     Number       Type             X           Y           Z
 ---------------------------------------------------------------------
      1          6           0        0.681152    0.022132    0.003047
      2          8           0       -0.748732   -0.141830   -0.012723
      3          1           0        0.982243    0.402671    0.919325
      4          1           0        1.041803    0.655363   -0.791861
      5          1           0        1.075288   -0.918041   -0.096534
      6          1           0       -1.196383    0.861859    0.052570
 ---------------------------------------------------------------------

 SCF Done:  E(RB2PLYPD3) =  -115.531439974     A.U. after   11 cycles
 E2(B2PLYPD3) =    -0.1496831347D+00 E(B2PLYPD3) =    -0.11568112310882D+03

 The electronic state is 1-A.
 Alpha  occ. eigenvalues --  -19.73354 -10.64074  -1.13042  -0.78963  -0.56572
 Alpha  occ. eigenvalues --   -0.52110  -0.49581  -0.40903  -0.35143
 Alpha virt. eigenvalues --    0.03846   0.07843   0.12475   0.12741   0.14764
 Alpha virt. eigenvalues --    0.17236   0.18198   0.28909   0.30379   0.33121
 Alpha virt. eigenvalues --    0.33606   0.39102   0.40439   0.41746   0.43842

 Mulliken charges:
               1
     1  C    0.082933
     2  O   -0.499623
     3  H    0.051371
     4  H    0.045291
     5  H    0.070927
     6  H    0.249101
 Sum of Mulliken charges =   0.00000

 Dipole moment (field-independent basis, Debye):
    X=              0.9520    Y=              1.5914    Z=              0.1378  Tot=              1.8595
 Quadrupole moment (field-independent basis, Debye-Ang):
   XX=            -12.8844   YY=            -11.9913   ZZ=            -13.8065
   XY=             -2.4416   XZ=             -0.1692   YZ=              0.0772

 Normal termination of Gaussian 09 at Thu Aug 27 00:12:53 2020.
