 Gaussian 09, Revision D.01,
 Gaussian 09:  ES64L-G09RevD.01 24-Apr-2013

 --------------------
 #p B2PLYPD3/Def2QZVP
 --------------------

 --------
 methanol
 --------
 Symbolic Z-matrix:
 Charge =  0 Multiplicity = 1

                         Standard orientation:
 ---------------------------------------------------------------------
 Center     Atomic      Atomic             Coordinates (Angstroms)
 Number     Number       Type             X           Y           Z
 ---------------------------------------------------------------------
      1          6           0       -0.668996    0.019764    0.010983
      2          8           0        0.734167   -0.145952   -0.020801
      3          1           0       -1.059992    0.632596   -0.801886
      4          1           0       -0.966159    0.487643    0.822306
      5          1           0       -1.055978   -0.950220   -0.005623
      6          1           0        1.222773    0.879015    0.085714
 ---------------------------------------------------------------------

 SCF Done:  E(RB2PLYPD3) =  -115.517762854     A.U. after   11 cycles
 E2(B2PLYPD3) =    -0.1500388547D+00 E(B2PLYPD3) =    -0.11566780170902D+03

 The electronic state is 1-A.
 Alpha  occ. eigenvalues --  -19.73619 -10.63544  -1.13448  -0.78933  -0.57465
 Alpha  occ. eigenvalues --   -0.51720  -0.49584  -0.40852  -0.34813
 Alpha virt. eigenvalues --    0.03277   0.07804   0.12450   0.12887   0.15204
 Alpha virt. eigenvalues --    0.17159   0.18017   0.28302   0.29806   0.33322
 Alpha virt. eigenvalues --    0.34463   0.39142   0.39520   0.41290   0.45174

 Mulliken charges:
               1
     1  C    0.086212
     2  O   -0.493247
     3  H    0.039293
     4  H    0.045542
     5  H    0.070859
     6  H    0.251340
 Sum of Mulliken charges =   0.00000

 Dipole moment (field-independent basis, Debye):
    X=             -0.8276    Y=              1.6398    Z=              0.2789  Tot=              1.8579
 Quadrupole moment (field-independent basis, Debye-Ang):
   XX=            -12.7965   YY=            -11.8358   ZZ=            -13.9785
   XY=              2.4030   XZ=              0.1611   YZ=              0.1676

 Normal termination of Gaussian 09 at Wed Aug 26 15:26:54 2020.
