 Gaussian 09, Revision D.01,
 Gaussian 09:  ES64L-G09RevD.01 24-Apr-2013

 --------------------
 #p B2PLYPD3/Def2QZVP
 --------------------

 --------
 methanol
 --------
 Symbolic Z-matrix:
 Charge =  0 Multiplicity = 1

                         Standard orientation:
 ---------------------------------------------------------------------
 Center     Atomic      Atomic             Coordinates (Angstroms)
 Number     Number       Type             X           Y           Z
 ---------------------------------------------------------------------
      1          6           0       -0.668747    0.033185   -0.011327
      2          8           0        0.770223   -0.179910   -0.004544
      3          1           0       -1.062376    0.571939   -0.732734
      4          1           0       -1.199568    0.443866    0.738914
      5          1           0       -1.095928   -0.915869    0.012199
      6          1           0        1.208572    1.140233    0.085937
 ---------------------------------------------------------------------

 SCF Done:  E(RB2PLYPD3) =  -115.438294873     A.U. after   12 cycles
 E2(B2PLYPD3) =    -0.1569900146D+00 E(B2PLYPD3) =    -0.11559528488790D+03

 The electronic state is 1-A.
 Alpha  occ. eigenvalues --  -19.76258 -10.62893  -1.10929  -0.80736  -0.54825
 Alpha  occ. eigenvalues --   -0.51246  -0.48008  -0.40006  -0.35560
 Alpha virt. eigenvalues --   -0.01292   0.07082   0.12124   0.13258   0.14915
 Alpha virt. eigenvalues --    0.17394   0.18762   0.22101   0.29120   0.32748
 Alpha virt. eigenvalues --    0.34225   0.37796   0.38751   0.42240   0.44275

 Mulliken charges:
               1
     1  C    0.094971
     2  O   -0.473222
     3  H    0.045826
     4  H    0.039905
     5  H    0.054005
     6  H    0.238515
 Sum of Mulliken charges =   0.00000

 Dipole moment (field-independent basis, Debye):
    X=             -1.1488    Y=              1.7995    Z=              0.1353  Tot=              2.1392
 Quadrupole moment (field-independent basis, Debye-Ang):
   XX=            -12.8496   YY=            -11.3951   ZZ=            -14.3878
   XY=              2.2772   XZ=              0.0334   YZ=              0.0031

 Normal termination of Gaussian 09 at Wed Aug 26 22:26:00 2020.
