 Gaussian 09, Revision D.01,
 Gaussian 09:  ES64L-G09RevD.01 24-Apr-2013

 --------------------
 #p B2PLYPD3/Def2QZVP
 --------------------

 --------
 methanol
 --------
 Symbolic Z-matrix:
 Charge =  0 Multiplicity = 1

                         Standard orientation:
 ---------------------------------------------------------------------
 Center     Atomic      Atomic             Coordinates (Angstroms)
 Number     Number       Type             X           Y           Z
 ---------------------------------------------------------------------
      1          6           0       -0.676447   -0.021365    0.001083
      2          8           0        0.752018    0.102306   -0.006054
      3          1           0       -1.006609   -0.509971    0.937432
      4          1           0       -0.999222   -0.625042   -0.888804
      5          1           0       -1.098117    1.046958   -0.046336
      6          1           0        1.146488   -0.602204    0.039640
 ---------------------------------------------------------------------

 SCF Done:  E(RB2PLYPD3) =  -115.519862643     A.U. after   10 cycles
 E2(B2PLYPD3) =    -0.1451549105D+00 E(B2PLYPD3) =    -0.11566501755362D+03

 The electronic state is 1-A.
 Alpha  occ. eigenvalues --  -19.70683 -10.67265  -1.19367  -0.79836  -0.60275
 Alpha  occ. eigenvalues --   -0.51707  -0.49699  -0.40749  -0.35700
 Alpha virt. eigenvalues --    0.05387   0.08799   0.12039   0.12138   0.14600
 Alpha virt. eigenvalues --    0.17041   0.17709   0.29065   0.32448   0.33141
 Alpha virt. eigenvalues --    0.37229   0.38799   0.39804   0.40110   0.42766

 Mulliken charges:
               1
     1  C    0.067614
     2  O   -0.376461
     3  H    0.053623
     4  H    0.052193
     5  H    0.075751
     6  H    0.127280
 Sum of Mulliken charges =   0.00000

 Dipole moment (field-independent basis, Debye):
    X=             -0.9063    Y=             -1.3631    Z=              0.1047  Tot=              1.6402
 Quadrupole moment (field-independent basis, Debye-Ang):
   XX=            -12.9655   YY=            -12.4261   ZZ=            -13.6491
   XY=             -2.1113   XZ=              0.1006   YZ=             -0.0518

 Normal termination of Gaussian 09 at Thu Aug 27 00:12:58 2020.
