 Gaussian 09, Revision D.01,
 Gaussian 09:  ES64L-G09RevD.01 24-Apr-2013

 --------------------
 #p B2PLYPD3/Def2QZVP
 --------------------

 --------
 methanol
 --------
 Symbolic Z-matrix:
 Charge =  0 Multiplicity = 1

                         Standard orientation:
 ---------------------------------------------------------------------
 Center     Atomic      Atomic             Coordinates (Angstroms)
 Number     Number       Type             X           Y           Z
 ---------------------------------------------------------------------
      1          6           0        0.645948   -0.025165    0.001394
      2          8           0       -0.738068    0.134788   -0.006557
      3          1           0        0.977990   -0.621107   -0.852662
      4          1           0        1.090850   -0.464210    0.869310
      5          1           0        1.125813    0.956273   -0.055207
      6          1           0       -1.165802   -0.798271    0.082652
 ---------------------------------------------------------------------

 SCF Done:  E(RB2PLYPD3) =  -115.545517280     A.U. after   10 cycles
 E2(B2PLYPD3) =    -0.1482084290D+00 E(B2PLYPD3) =    -0.11569372570854D+03

 The electronic state is 1-A.
 Alpha  occ. eigenvalues --  -19.73392 -10.65096  -1.15874  -0.78263  -0.58470
 Alpha  occ. eigenvalues --   -0.52032  -0.49971  -0.40495  -0.35143
 Alpha virt. eigenvalues --    0.04410   0.07912   0.12553   0.12596   0.15007
 Alpha virt. eigenvalues --    0.17533   0.18328   0.29089   0.32106   0.33217
 Alpha virt. eigenvalues --    0.35074   0.38758   0.39712   0.41371   0.44013

 Mulliken charges:
               1
     1  C    0.068222
     2  O   -0.462521
     3  H    0.041878
     4  H    0.043892
     5  H    0.063544
     6  H    0.244985
 Sum of Mulliken charges =   0.00000

 Dipole moment (field-independent basis, Debye):
    X=              0.7437    Y=             -1.5644    Z=              0.1770  Tot=              1.7412
 Quadrupole moment (field-independent basis, Debye-Ang):
   XX=            -12.8516   YY=            -12.2488   ZZ=            -13.9288
   XY=              2.3634   XZ=             -0.0779   YZ=             -0.0993

 Normal termination of Gaussian 09 at Wed Aug 26 14:03:28 2020.
