 Gaussian 09, Revision D.01,
 Gaussian 09:  ES64L-G09RevD.01 24-Apr-2013

 --------------------
 #p B2PLYPD3/Def2QZVP
 --------------------

 --------
 methanol
 --------
 Symbolic Z-matrix:
 Charge =  0 Multiplicity = 1

                         Standard orientation:
 ---------------------------------------------------------------------
 Center     Atomic      Atomic             Coordinates (Angstroms)
 Number     Number       Type             X           Y           Z
 ---------------------------------------------------------------------
      1          6           0       -0.669256   -0.023274    0.002107
      2          8           0        0.743790    0.094349   -0.009435
      3          1           0       -1.080028   -0.352689    0.981210
      4          1           0       -0.986771   -0.735705   -0.827612
      5          1           0       -1.030391    1.054296   -0.188423
      6          1           0        1.162404   -0.581049    0.097663
 ---------------------------------------------------------------------

 SCF Done:  E(RB2PLYPD3) =  -115.514654575     A.U. after   10 cycles
 E2(B2PLYPD3) =    -0.1450100078D+00 E(B2PLYPD3) =    -0.11565966458296D+03

 The electronic state is 1-A.
 Alpha  occ. eigenvalues --  -19.70684 -10.67398  -1.19946  -0.80083  -0.60670
 Alpha  occ. eigenvalues --   -0.51753  -0.49602  -0.40383  -0.35706
 Alpha virt. eigenvalues --    0.05402   0.08817   0.11960   0.12184   0.14746
 Alpha virt. eigenvalues --    0.16746   0.17980   0.29008   0.32735   0.33557
 Alpha virt. eigenvalues --    0.37219   0.38647   0.39890   0.40241   0.42329

 Mulliken charges:
               1
     1  C    0.057900
     2  O   -0.358383
     3  H    0.055745
     4  H    0.049952
     5  H    0.074399
     6  H    0.120387
 Sum of Mulliken charges =   0.00000

 Dipole moment (field-independent basis, Debye):
    X=             -0.7853    Y=             -1.3104    Z=              0.2310  Tot=              1.5451
 Quadrupole moment (field-independent basis, Debye-Ang):
   XX=            -12.9001   YY=            -12.5110   ZZ=            -13.6418
   XY=             -2.0145   XZ=              0.1932   YZ=             -0.1216

 Normal termination of Gaussian 09 at Wed Aug 26 15:50:13 2020.
