 Gaussian 09, Revision D.01,
 Gaussian 09:  ES64L-G09RevD.01 24-Apr-2013

 --------------------
 #p B2PLYPD3/Def2QZVP
 --------------------

 --------
 methanol
 --------
 Symbolic Z-matrix:
 Charge =  0 Multiplicity = 1

                         Standard orientation:
 ---------------------------------------------------------------------
 Center     Atomic      Atomic             Coordinates (Angstroms)
 Number     Number       Type             X           Y           Z
 ---------------------------------------------------------------------
      1          6           0        0.657165   -0.008035    0.002847
      2          8           0       -0.744718    0.110542   -0.003833
      3          1           0        1.023944   -0.623274   -0.877311
      4          1           0        1.028232   -0.490248    0.937184
      5          1           0        1.072196    0.980996   -0.069095
      6          1           0       -1.109616   -0.703602    0.022804
 ---------------------------------------------------------------------

 SCF Done:  E(RB2PLYPD3) =  -115.547962558     A.U. after   10 cycles
 E2(B2PLYPD3) =    -0.1460851655D+00 E(B2PLYPD3) =    -0.11569404772323D+03

 The electronic state is 1-A.
 Alpha  occ. eigenvalues --  -19.72006 -10.66213  -1.18169  -0.79048  -0.59749
 Alpha  occ. eigenvalues --   -0.51390  -0.50711  -0.41279  -0.35274
 Alpha virt. eigenvalues --    0.05193   0.08538   0.12202   0.12466   0.14849
 Alpha virt. eigenvalues --    0.17294   0.17936   0.29064   0.33036   0.33871
 Alpha virt. eigenvalues --    0.36537   0.39141   0.40007   0.40220   0.43601

 Mulliken charges:
               1
     1  C    0.066648
     2  O   -0.422669
     3  H    0.039509
     4  H    0.044996
     5  H    0.076047
     6  H    0.195469
 Sum of Mulliken charges =   0.00000

 Dipole moment (field-independent basis, Debye):
    X=              0.8423    Y=             -1.4002    Z=              0.0605  Tot=              1.6352
 Quadrupole moment (field-independent basis, Debye-Ang):
   XX=            -13.1261   YY=            -12.2781   ZZ=            -13.7864
   XY=              2.2175   XZ=             -0.0557   YZ=             -0.0604

 Normal termination of Gaussian 09 at Wed Aug 26 22:21:19 2020.
