 Gaussian 09, Revision D.01,
 Gaussian 09:  ES64L-G09RevD.01 24-Apr-2013

 --------------------
 #p B2PLYPD3/Def2QZVP
 --------------------

 --------
 methanol
 --------
 Symbolic Z-matrix:
 Charge =  0 Multiplicity = 1

                         Standard orientation:
 ---------------------------------------------------------------------
 Center     Atomic      Atomic             Coordinates (Angstroms)
 Number     Number       Type             X           Y           Z
 ---------------------------------------------------------------------
      1          6           0        0.675592   -0.018286    0.003331
      2          8           0       -0.754709    0.102194   -0.002288
      3          1           0        1.004476   -0.597037   -0.914372
      4          1           0        1.074383   -0.486303    0.933191
      5          1           0        1.046570    1.024686   -0.061637
      6          1           0       -1.141305   -0.649184    0.041136
 ---------------------------------------------------------------------

 SCF Done:  E(RB2PLYPD3) =  -115.536155772     A.U. after   10 cycles
 E2(B2PLYPD3) =    -0.1457822161D+00 E(B2PLYPD3) =    -0.11568193798843D+03

 The electronic state is 1-A.
 Alpha  occ. eigenvalues --  -19.71296 -10.66922  -1.18322  -0.79453  -0.59746
 Alpha  occ. eigenvalues --   -0.51440  -0.49752  -0.41036  -0.35683
 Alpha virt. eigenvalues --    0.05364   0.08594   0.12100   0.12246   0.14651
 Alpha virt. eigenvalues --    0.16946   0.18053   0.28997   0.32487   0.33413
 Alpha virt. eigenvalues --    0.37345   0.38923   0.39640   0.40089   0.42796

 Mulliken charges:
               1
     1  C    0.063080
     2  O   -0.405546
     3  H    0.050336
     4  H    0.054345
     5  H    0.076359
     6  H    0.161425
 Sum of Mulliken charges =   0.00000

 Dipole moment (field-independent basis, Debye):
    X=              0.9074    Y=             -1.3667    Z=              0.0938  Tot=              1.6432
 Quadrupole moment (field-independent basis, Debye-Ang):
   XX=            -13.0024   YY=            -12.4110   ZZ=            -13.6567
   XY=              2.1257   XZ=             -0.0325   YZ=             -0.0747

 Normal termination of Gaussian 09 at Thu Aug 27 00:11:06 2020.
