 Gaussian 09, Revision D.01,
 Gaussian 09:  ES64L-G09RevD.01 24-Apr-2013

 --------------------
 #p B2PLYPD3/Def2QZVP
 --------------------

 --------
 methanol
 --------
 Symbolic Z-matrix:
 Charge =  0 Multiplicity = 1

                         Standard orientation:
 ---------------------------------------------------------------------
 Center     Atomic      Atomic             Coordinates (Angstroms)
 Number     Number       Type             X           Y           Z
 ---------------------------------------------------------------------
      1          6           0        0.664739   -0.025075   -0.002981
      2          8           0       -0.750666    0.138481    0.002868
      3          1           0        1.016440   -0.536440   -0.845635
      4          1           0        1.035994   -0.542451    0.851305
      5          1           0        1.114131    0.962342   -0.002490
      6          1           0       -1.149668   -0.840850   -0.008242
 ---------------------------------------------------------------------

 SCF Done:  E(RB2PLYPD3) =  -115.541652342     A.U. after   11 cycles
 E2(B2PLYPD3) =    -0.1489404950D+00 E(B2PLYPD3) =    -0.11569059283661D+03

 The electronic state is 1-A.
 Alpha  occ. eigenvalues --  -19.73437 -10.64650  -1.14364  -0.78650  -0.57527
 Alpha  occ. eigenvalues --   -0.51990  -0.49413  -0.41094  -0.35344
 Alpha virt. eigenvalues --    0.04218   0.07897   0.12464   0.12627   0.14933
 Alpha virt. eigenvalues --    0.17521   0.18155   0.29111   0.31342   0.33525
 Alpha virt. eigenvalues --    0.33866   0.38850   0.39857   0.41686   0.44202

 Mulliken charges:
               1
     1  C    0.078967
     2  O   -0.481506
     3  H    0.047010
     4  H    0.045576
     5  H    0.064850
     6  H    0.245102
 Sum of Mulliken charges =   0.00000

 Dipole moment (field-independent basis, Debye):
    X=              0.9293    Y=             -1.6255    Z=             -0.0354  Tot=              1.8727
 Quadrupole moment (field-independent basis, Debye-Ang):
   XX=            -12.9931   YY=            -12.0318   ZZ=            -13.8945
   XY=              2.3141   XZ=              0.0179   YZ=              0.0273

 Normal termination of Gaussian 09 at Wed Aug 26 09:51:00 2020.
