 Gaussian 09, Revision D.01,
 Gaussian 09:  ES64L-G09RevD.01 24-Apr-2013

 --------------------
 #p B2PLYPD3/Def2QZVP
 --------------------

 --------
 methanol
 --------
 Symbolic Z-matrix:
 Charge =  0 Multiplicity = 1

                         Standard orientation:
 ---------------------------------------------------------------------
 Center     Atomic      Atomic             Coordinates (Angstroms)
 Number     Number       Type             X           Y           Z
 ---------------------------------------------------------------------
      1          6           0        0.672748    0.079468    0.018926
      2          8           0       -0.724548   -0.218404   -0.017985
      3          1           0        1.021636    0.354660    0.736674
      4          1           0        1.039745    0.630273   -0.709258
      5          1           0        1.163345   -0.831828   -0.072880
      6          1           0       -1.464823    1.117320    0.075793
 ---------------------------------------------------------------------

 SCF Done:  E(RB2PLYPD3) =  -115.361208815     A.U. after   12 cycles
 E2(B2PLYPD3) =    -0.1584032471D+00 E(B2PLYPD3) =    -0.11551961206237D+03

 The electronic state is 1-A.
 Alpha  occ. eigenvalues --  -19.75959 -10.60822  -1.10984  -0.82471  -0.54919
 Alpha  occ. eigenvalues --   -0.53171  -0.48706  -0.37804  -0.35898
 Alpha virt. eigenvalues --   -0.03765   0.07143   0.12569   0.13297   0.14858
 Alpha virt. eigenvalues --    0.17316   0.18894   0.20818   0.29252   0.33978
 Alpha virt. eigenvalues --    0.34509   0.37610   0.39390   0.43439   0.45753

 Mulliken charges:
               1
     1  C    0.047358
     2  O   -0.470905
     3  H    0.107611
     4  H    0.049926
     5  H    0.048723
     6  H    0.217287
 Sum of Mulliken charges =   0.00000

 Dipole moment (field-independent basis, Debye):
    X=              0.9740    Y=              1.7390    Z=              0.2072  Tot=              2.0039
 Quadrupole moment (field-independent basis, Debye-Ang):
   XX=            -11.9301   YY=            -11.8036   ZZ=            -14.0161
   XY=             -2.6718   XZ=             -0.0597   YZ=              0.0729

 Normal termination of Gaussian 09 at Wed Aug 26 21:41:29 2020.
