 Gaussian 09, Revision D.01,
 Gaussian 09:  ES64L-G09RevD.01 24-Apr-2013

 --------------------
 #p B2PLYPD3/Def2QZVP
 --------------------

 --------
 methanol
 --------
 Symbolic Z-matrix:
 Charge =  0 Multiplicity = 1

                         Standard orientation:
 ---------------------------------------------------------------------
 Center     Atomic      Atomic             Coordinates (Angstroms)
 Number     Number       Type             X           Y           Z
 ---------------------------------------------------------------------
      1          6           0       -0.661657   -0.013284   -0.001192
      2          8           0        0.741768    0.105679   -0.001464
      3          1           0       -0.991757   -0.552454    0.937269
      4          1           0       -0.993941   -0.576731   -0.921416
      5          1           0       -1.095075    0.997815   -0.006468
      6          1           0        1.116571   -0.634358    0.009480
 ---------------------------------------------------------------------

 SCF Done:  E(RB2PLYPD3) =  -115.531031719     A.U. after   10 cycles
 E2(B2PLYPD3) =    -0.1451056795D+00 E(B2PLYPD3) =    -0.11567613739817D+03

 The electronic state is 1-A.
 Alpha  occ. eigenvalues --  -19.71090 -10.66772  -1.19648  -0.79676  -0.60253
 Alpha  occ. eigenvalues --   -0.51754  -0.50768  -0.40872  -0.35404
 Alpha virt. eigenvalues --    0.05359   0.08825   0.12057   0.12400   0.14586
 Alpha virt. eigenvalues --    0.17241   0.17770   0.28974   0.32914   0.33520
 Alpha virt. eigenvalues --    0.37284   0.39658   0.39841   0.39903   0.43421

 Mulliken charges:
               1
     1  C    0.065679
     2  O   -0.382975
     3  H    0.044636
     4  H    0.045647
     5  H    0.077569
     6  H    0.149444
 Sum of Mulliken charges =   0.00000

 Dipole moment (field-independent basis, Debye):
    X=             -0.8385    Y=             -1.3391    Z=              0.0183  Tot=              1.5800
 Quadrupole moment (field-independent basis, Debye-Ang):
   XX=            -13.0929   YY=            -12.4148   ZZ=            -13.6557
   XY=             -2.2034   XZ=              0.0341   YZ=             -0.0038

 Normal termination of Gaussian 09 at Thu Aug 27 00:14:51 2020.
