 Gaussian 09, Revision D.01,
 Gaussian 09:  ES64L-G09RevD.01 24-Apr-2013

 --------------------
 #p B2PLYPD3/Def2QZVP
 --------------------

 --------
 methanol
 --------
 Symbolic Z-matrix:
 Charge =  0 Multiplicity = 1

                         Standard orientation:
 ---------------------------------------------------------------------
 Center     Atomic      Atomic             Coordinates (Angstroms)
 Number     Number       Type             X           Y           Z
 ---------------------------------------------------------------------
      1          6           0       -0.680613   -0.009654   -0.015059
      2          8           0        0.762586   -0.179572    0.008977
      3          1           0       -1.159350    0.478977   -0.758589
      4          1           0       -1.032005    0.590332    0.837501
      5          1           0       -1.051714   -0.746040    0.025202
      6          1           0        1.226057    1.171230   -0.085577
 ---------------------------------------------------------------------

 SCF Done:  E(RB2PLYPD3) =  -115.374534381     A.U. after   12 cycles
 E2(B2PLYPD3) =    -0.1572222902D+00 E(B2PLYPD3) =    -0.11553175667119D+03

 The electronic state is 1-A.
 Alpha  occ. eigenvalues --  -19.75903 -10.61824  -1.10690  -0.82149  -0.55963
 Alpha  occ. eigenvalues --   -0.50649  -0.48902  -0.40343  -0.34893
 Alpha virt. eigenvalues --   -0.02093   0.07191   0.12714   0.12959   0.14568
 Alpha virt. eigenvalues --    0.17872   0.18516   0.21959   0.29454   0.32277
 Alpha virt. eigenvalues --    0.34235   0.36746   0.39921   0.41823   0.43574

 Mulliken charges:
               1
     1  C    0.009682
     2  O   -0.483827
     3  H    0.043131
     4  H    0.038820
     5  H    0.149602
     6  H    0.242592
 Sum of Mulliken charges =   0.00000

 Dipole moment (field-independent basis, Debye):
    X=             -1.1257    Y=              1.6871    Z=             -0.1928  Tot=              2.0374
 Quadrupole moment (field-independent basis, Debye-Ang):
   XX=            -12.8271   YY=            -11.2495   ZZ=            -14.2113
   XY=              2.5920   XZ=              0.0213   YZ=             -0.1682

 Normal termination of Gaussian 09 at Wed Aug 26 23:54:56 2020.
