 Gaussian 09, Revision D.01,
 Gaussian 09:  ES64L-G09RevD.01 24-Apr-2013

 --------------------
 #p B2PLYPD3/Def2QZVP
 --------------------

 --------
 methanol
 --------
 Symbolic Z-matrix:
 Charge =  0 Multiplicity = 1

                         Standard orientation:
 ---------------------------------------------------------------------
 Center     Atomic      Atomic             Coordinates (Angstroms)
 Number     Number       Type             X           Y           Z
 ---------------------------------------------------------------------
      1          6           0       -0.669199    0.015876   -0.003990
      2          8           0        0.776566   -0.067093   -0.011193
      3          1           0       -0.981868    1.050630   -0.573230
      4          1           0       -1.248278   -0.025096    1.100353
      5          1           0       -1.119050   -0.948319   -0.590372
      6          1           0        1.151865    0.364277    0.176729
 ---------------------------------------------------------------------

 SCF Done:  E(RB2PLYPD3) =  -115.195770006     A.U. after   11 cycles
 E2(B2PLYPD3) =    -0.1446792630D+00 E(B2PLYPD3) =    -0.11534044926920D+03

 The electronic state is 1-A.
 Alpha  occ. eigenvalues --  -19.69092 -10.71461  -1.27912  -0.82517  -0.61818
 Alpha  occ. eigenvalues --   -0.50578  -0.49105  -0.39857  -0.36274
 Alpha virt. eigenvalues --    0.04854   0.08901   0.11288   0.11422   0.14060
 Alpha virt. eigenvalues --    0.16790   0.17985   0.28325   0.30434   0.32562
 Alpha virt. eigenvalues --    0.34036   0.34925   0.36588   0.40872   0.42442

 Mulliken charges:
               1
     1  C    0.047717
     2  O   -0.163756
     3  H    0.051899
     4  H    0.053145
     5  H    0.086451
     6  H   -0.075455
 Sum of Mulliken charges =   0.00000

 Dipole moment (field-independent basis, Debye):
    X=             -0.9587    Y=              0.9541    Z=              0.3579  Tot=              1.3991
 Quadrupole moment (field-independent basis, Debye-Ang):
   XX=            -12.6685   YY=            -12.9225   ZZ=            -13.6291
   XY=              1.7904   XZ=              0.6029   YZ=              0.2395

 Normal termination of Gaussian 09 at Wed Aug 26 18:08:59 2020.
