 Gaussian 09, Revision D.01,
 Gaussian 09:  ES64L-G09RevD.01 24-Apr-2013

 --------------------
 #p B2PLYPD3/Def2QZVP
 --------------------

 --------
 methanol
 --------
 Symbolic Z-matrix:
 Charge =  0 Multiplicity = 1

                         Standard orientation:
 ---------------------------------------------------------------------
 Center     Atomic      Atomic             Coordinates (Angstroms)
 Number     Number       Type             X           Y           Z
 ---------------------------------------------------------------------
      1          6           0       -0.687344    0.029912   -0.017586
      2          8           0        0.750613   -0.193633    0.002390
      3          1           0       -1.025349    0.453051   -0.756717
      4          1           0       -0.924495    0.508673    0.837688
      5          1           0       -1.087958   -0.779103    0.042145
      6          1           0        1.156961    1.186971   -0.036719
 ---------------------------------------------------------------------

 SCF Done:  E(RB2PLYPD3) =  -115.394121878     A.U. after   11 cycles
 E2(B2PLYPD3) =    -0.1568603604D+00 E(B2PLYPD3) =    -0.11555098223871D+03

 The electronic state is 1-A.
 Alpha  occ. eigenvalues --  -19.75373 -10.60462  -1.10546  -0.81965  -0.55904
 Alpha  occ. eigenvalues --   -0.53856  -0.48063  -0.39598  -0.35451
 Alpha virt. eigenvalues --   -0.01957   0.07526   0.12592   0.12883   0.14289
 Alpha virt. eigenvalues --    0.17774   0.18416   0.22014   0.29403   0.32389
 Alpha virt. eigenvalues --    0.33866   0.38866   0.40516   0.43520   0.45516

 Mulliken charges:
               1
     1  C    0.097867
     2  O   -0.488436
     3  H    0.048827
     4  H    0.045375
     5  H    0.069874
     6  H    0.226494
 Sum of Mulliken charges =   0.00000

 Dipole moment (field-independent basis, Debye):
    X=             -1.3467    Y=              1.7081    Z=             -0.0788  Tot=              2.1766
 Quadrupole moment (field-independent basis, Debye-Ang):
   XX=            -13.2451   YY=            -11.2617   ZZ=            -13.7482
   XY=              2.4274   XZ=              0.0748   YZ=             -0.1133

 Normal termination of Gaussian 09 at Wed Aug 26 21:04:36 2020.
