 Gaussian 09, Revision D.01,
 Gaussian 09:  ES64L-G09RevD.01 24-Apr-2013

 --------------------
 #p B2PLYPD3/Def2QZVP
 --------------------

 --------
 methanol
 --------
 Symbolic Z-matrix:
 Charge =  0 Multiplicity = 1

                         Standard orientation:
 ---------------------------------------------------------------------
 Center     Atomic      Atomic             Coordinates (Angstroms)
 Number     Number       Type             X           Y           Z
 ---------------------------------------------------------------------
      1          6           0        0.674241    0.009745    0.005963
      2          8           0       -0.734707   -0.152919   -0.009594
      3          1           0        1.066445    0.414475    0.874026
      4          1           0        0.989663    0.667796   -0.811736
      5          1           0        1.017353   -0.858313   -0.104365
      6          1           0       -1.241255    0.940927    0.083055
 ---------------------------------------------------------------------

 SCF Done:  E(RB2PLYPD3) =  -115.492931240     A.U. after   11 cycles
 E2(B2PLYPD3) =    -0.1514293300D+00 E(B2PLYPD3) =    -0.11564436056973D+03

 The electronic state is 1-A.
 Alpha  occ. eigenvalues --  -19.74031 -10.63024  -1.12669  -0.79311  -0.56548
 Alpha  occ. eigenvalues --   -0.51549  -0.50093  -0.40646  -0.34691
 Alpha virt. eigenvalues --    0.02256   0.07721   0.12673   0.12882   0.14925
 Alpha virt. eigenvalues --    0.17143   0.18282   0.26355   0.29526   0.33194
 Alpha virt. eigenvalues --    0.34433   0.38064   0.41065   0.41711   0.43890

 Mulliken charges:
               1
     1  C    0.078052
     2  O   -0.496817
     3  H    0.046031
     4  H    0.038115
     5  H    0.080412
     6  H    0.254207
 Sum of Mulliken charges =   0.00000

 Dipole moment (field-independent basis, Debye):
    X=              0.8602    Y=              1.5937    Z=              0.1790  Tot=              1.8199
 Quadrupole moment (field-independent basis, Debye-Ang):
   XX=            -12.7721   YY=            -11.7991   ZZ=            -13.9266
   XY=             -2.5733   XZ=             -0.0847   YZ=              0.1618

 Normal termination of Gaussian 09 at Wed Aug 26 16:07:52 2020.
