 Gaussian 09, Revision D.01,
 Gaussian 09:  ES64L-G09RevD.01 24-Apr-2013

 --------------------
 #p B2PLYPD3/Def2QZVP
 --------------------

 --------
 methanol
 --------
 Symbolic Z-matrix:
 Charge =  0 Multiplicity = 1

                         Standard orientation:
 ---------------------------------------------------------------------
 Center     Atomic      Atomic             Coordinates (Angstroms)
 Number     Number       Type             X           Y           Z
 ---------------------------------------------------------------------
      1          6           0        0.631843    0.037379   -0.020239
      2          8           0       -0.723995   -0.177212   -0.001549
      3          1           0        1.005013    0.467387    0.861245
      4          1           0        1.115474    0.607232   -0.691717
      5          1           0        1.160680   -0.886169   -0.029468
      6          1           0       -1.280269    1.004970   -0.006240
 ---------------------------------------------------------------------

 SCF Done:  E(RB2PLYPD3) =  -115.474349261     A.U. after   11 cycles
 E2(B2PLYPD3) =    -0.1532779291D+00 E(B2PLYPD3) =    -0.11562762718992D+03

 The electronic state is 1-A.
 Alpha  occ. eigenvalues --  -19.75316 -10.63134  -1.13962  -0.78828  -0.55999
 Alpha  occ. eigenvalues --   -0.51541  -0.50294  -0.39415  -0.34613
 Alpha virt. eigenvalues --    0.00156   0.07299   0.12643   0.13269   0.15097
 Alpha virt. eigenvalues --    0.17732   0.18679   0.23415   0.29778   0.33430
 Alpha virt. eigenvalues --    0.36301   0.38473   0.39477   0.41749   0.44853

 Mulliken charges:
               1
     1  C    0.084077
     2  O   -0.467561
     3  H    0.035813
     4  H    0.039179
     5  H    0.052977
     6  H    0.255515
 Sum of Mulliken charges =   0.00000

 Dipole moment (field-independent basis, Debye):
    X=              0.6816    Y=              1.7616    Z=             -0.0291  Tot=              1.8891
 Quadrupole moment (field-independent basis, Debye-Ang):
   XX=            -12.4593   YY=            -11.8767   ZZ=            -14.2792
   XY=             -2.5594   XZ=             -0.0859   YZ=             -0.0852

 Normal termination of Gaussian 09 at Wed Aug 26 23:09:19 2020.
