 Gaussian 09, Revision D.01,
 Gaussian 09:  ES64L-G09RevD.01 24-Apr-2013

 --------------------
 #p B2PLYPD3/Def2QZVP
 --------------------

 --------
 methanol
 --------
 Symbolic Z-matrix:
 Charge =  0 Multiplicity = 1

                         Standard orientation:
 ---------------------------------------------------------------------
 Center     Atomic      Atomic             Coordinates (Angstroms)
 Number     Number       Type             X           Y           Z
 ---------------------------------------------------------------------
      1          6           0       -0.703469   -0.043226    0.015122
      2          8           0        0.752206    0.104735   -0.034034
      3          1           0       -0.877907   -0.304252    1.026823
      4          1           0       -1.087509   -0.699028   -0.804738
      5          1           0       -1.072602    1.023093   -0.149218
      6          1           0        1.241180   -0.598334    0.108668
 ---------------------------------------------------------------------

 SCF Done:  E(RB2PLYPD3) =  -115.533971758     A.U. after   11 cycles
 E2(B2PLYPD3) =    -0.1463342251D+00 E(B2PLYPD3) =    -0.11568030598285D+03

 The electronic state is 1-A.
 Alpha  occ. eigenvalues --  -19.70640 -10.66785  -1.16186  -0.79693  -0.58393
 Alpha  occ. eigenvalues --   -0.52992  -0.48809  -0.39503  -0.35649
 Alpha virt. eigenvalues --    0.05437   0.08390   0.12005   0.12257   0.14078
 Alpha virt. eigenvalues --    0.16712   0.18190   0.28936   0.31142   0.33500
 Alpha virt. eigenvalues --    0.37011   0.38708   0.39471   0.40632   0.43898

 Mulliken charges:
               1
     1  C    0.070376
     2  O   -0.449957
     3  H    0.067013
     4  H    0.065064
     5  H    0.071787
     6  H    0.175718
 Sum of Mulliken charges =   0.00000

 Dipole moment (field-independent basis, Debye):
    X=             -0.9032    Y=             -1.3482    Z=              0.3283  Tot=              1.6557
 Quadrupole moment (field-independent basis, Debye-Ang):
   XX=            -12.6279   YY=            -12.6726   ZZ=            -13.4098
   XY=             -2.1476   XZ=              0.5860   YZ=             -0.0815

 Normal termination of Gaussian 09 at Wed Aug 26 21:41:25 2020.
