 Gaussian 09, Revision D.01,
 Gaussian 09:  ES64L-G09RevD.01 24-Apr-2013

 --------------------
 #p B2PLYPD3/Def2QZVP
 --------------------

 --------
 methanol
 --------
 Symbolic Z-matrix:
 Charge =  0 Multiplicity = 1

                         Standard orientation:
 ---------------------------------------------------------------------
 Center     Atomic      Atomic             Coordinates (Angstroms)
 Number     Number       Type             X           Y           Z
 ---------------------------------------------------------------------
      1          6           0        0.642921   -0.024695    0.001238
      2          8           0       -0.748354    0.098953    0.004284
      3          1           0        1.020297   -0.611475   -0.863966
      4          1           0        1.088711   -0.491766    0.905411
      5          1           0        1.074188    1.095596   -0.080349
      6          1           0       -1.053890   -0.635814   -0.002798
 ---------------------------------------------------------------------

 SCF Done:  E(RB2PLYPD3) =  -115.509062490     A.U. after   10 cycles
 E2(B2PLYPD3) =    -0.1450256846D+00 E(B2PLYPD3) =    -0.11565408817498D+03

 The electronic state is 1-A.
 Alpha  occ. eigenvalues --  -19.71476 -10.67322  -1.21836  -0.79465  -0.61829
 Alpha  occ. eigenvalues --   -0.51911  -0.49695  -0.41039  -0.35961
 Alpha virt. eigenvalues --    0.05275   0.08848   0.11682   0.12339   0.15088
 Alpha virt. eigenvalues --    0.17190   0.17949   0.28845   0.33208   0.33699
 Alpha virt. eigenvalues --    0.36064   0.38926   0.40160   0.40315   0.42434

 Mulliken charges:
               1
     1  C    0.053924
     2  O   -0.328329
     3  H    0.047380
     4  H    0.051470
     5  H    0.059075
     6  H    0.116481
 Sum of Mulliken charges =   0.00000

 Dipole moment (field-independent basis, Debye):
    X=              0.8406    Y=             -1.4368    Z=             -0.0156  Tot=              1.6647
 Quadrupole moment (field-independent basis, Debye-Ang):
   XX=            -13.2681   YY=            -12.3591   ZZ=            -13.8008
   XY=              1.8469   XZ=              0.0645   YZ=              0.0041

 Normal termination of Gaussian 09 at Wed Aug 26 13:28:54 2020.
