 Gaussian 09, Revision D.01,
 Gaussian 09:  ES64L-G09RevD.01 24-Apr-2013

 --------------------
 #p B2PLYPD3/Def2QZVP
 --------------------

 --------
 methanol
 --------
 Symbolic Z-matrix:
 Charge =  0 Multiplicity = 1

                         Standard orientation:
 ---------------------------------------------------------------------
 Center     Atomic      Atomic             Coordinates (Angstroms)
 Number     Number       Type             X           Y           Z
 ---------------------------------------------------------------------
      1          6           0        0.689950    0.025332   -0.011574
      2          8           0       -0.743668   -0.199486    0.014621
      3          1           0        1.098619    0.545402    0.818194
      4          1           0        1.028221    0.470460   -0.794555
      5          1           0        1.065293   -0.728354   -0.018543
      6          1           0       -1.382490    1.156389   -0.052621
 ---------------------------------------------------------------------

 SCF Done:  E(RB2PLYPD3) =  -115.365682275     A.U. after   11 cycles
 E2(B2PLYPD3) =    -0.1581181935D+00 E(B2PLYPD3) =    -0.11552380046840D+03

 The electronic state is 1-A.
 Alpha  occ. eigenvalues --  -19.75735 -10.60916  -1.10335  -0.82353  -0.55293
 Alpha  occ. eigenvalues --   -0.51891  -0.48999  -0.39013  -0.35318
 Alpha virt. eigenvalues --   -0.03222   0.07271   0.12962   0.13005   0.14531
 Alpha virt. eigenvalues --    0.17431   0.18696   0.21224   0.29284   0.33215
 Alpha virt. eigenvalues --    0.33688   0.37917   0.40972   0.41784   0.44600

 Mulliken charges:
               1
     1  C    0.031164
     2  O   -0.488672
     3  H    0.047872
     4  H    0.047361
     5  H    0.132073
     6  H    0.230201
 Sum of Mulliken charges =   0.00000

 Dipole moment (field-independent basis, Debye):
    X=              1.0538    Y=              1.6591    Z=             -0.1764  Tot=              1.9734
 Quadrupole moment (field-independent basis, Debye-Ang):
   XX=            -12.2526   YY=            -11.5473   ZZ=            -13.9769
   XY=             -2.8041   XZ=              0.0488   YZ=             -0.0925

 Normal termination of Gaussian 09 at Wed Aug 26 19:16:40 2020.
