 Gaussian 09, Revision D.01,
 Gaussian 09:  ES64L-G09RevD.01 24-Apr-2013

 --------------------
 #p B2PLYPD3/Def2QZVP
 --------------------

 --------
 methanol
 --------
 Symbolic Z-matrix:
 Charge =  0 Multiplicity = 1

                         Standard orientation:
 ---------------------------------------------------------------------
 Center     Atomic      Atomic             Coordinates (Angstroms)
 Number     Number       Type             X           Y           Z
 ---------------------------------------------------------------------
      1          6           0        0.707722    0.005076    0.027026
      2          8           0       -0.765269    0.043611   -0.020862
      3          1           0        1.106440   -0.855695   -0.814923
      4          1           0        0.970719   -0.366806    1.009545
      5          1           0        0.973612    1.181694   -0.253148
      6          1           0       -1.174951   -0.338538    0.063269
 ---------------------------------------------------------------------

 SCF Done:  E(RB2PLYPD3) =  -115.072552516     A.U. after   12 cycles
 E2(B2PLYPD3) =    -0.1441384603D+00 E(B2PLYPD3) =    -0.11521669097639D+03

 The electronic state is 1-A.
 Alpha  occ. eigenvalues --  -19.67072 -10.71030  -1.27708  -0.83841  -0.61766
 Alpha  occ. eigenvalues --   -0.50686  -0.49040  -0.39327  -0.35958
 Alpha virt. eigenvalues --    0.04752   0.09539   0.10743   0.11441   0.13986
 Alpha virt. eigenvalues --    0.16369   0.17023   0.28104   0.29916   0.31672
 Alpha virt. eigenvalues --    0.34244   0.35098   0.40145   0.40937   0.41716

 Mulliken charges:
               1
     1  C    0.065197
     2  O   -0.166216
     3  H    0.047811
     4  H    0.077795
     5  H    0.101533
     6  H   -0.126120
 Sum of Mulliken charges =   0.00000

 Dipole moment (field-independent basis, Debye):
    X=              1.0883    Y=             -0.9118    Z=              0.3799  Tot=              1.4697
 Quadrupole moment (field-independent basis, Debye-Ang):
   XX=            -12.8401   YY=            -12.4086   ZZ=            -13.4551
   XY=              1.5245   XZ=             -0.2367   YZ=             -0.2988

 Normal termination of Gaussian 09 at Wed Aug 26 22:07:46 2020.
