 Gaussian 09, Revision D.01,
 Gaussian 09:  ES64L-G09RevD.01 24-Apr-2013

 --------------------
 #p B2PLYPD3/Def2QZVP
 --------------------

 --------
 methanol
 --------
 Symbolic Z-matrix:
 Charge =  0 Multiplicity = 1

                         Standard orientation:
 ---------------------------------------------------------------------
 Center     Atomic      Atomic             Coordinates (Angstroms)
 Number     Number       Type             X           Y           Z
 ---------------------------------------------------------------------
      1          6           0        0.653536   -0.022136   -0.007847
      2          8           0       -0.755839    0.105820    0.002916
      3          1           0        1.052374   -0.585928   -0.862319
      4          1           0        0.968224   -0.523016    0.970509
      5          1           0        1.155721    1.026472   -0.032862
      6          1           0       -1.050824   -0.631274   -0.051573
 ---------------------------------------------------------------------

 SCF Done:  E(RB2PLYPD3) =  -115.511393429     A.U. after   10 cycles
 E2(B2PLYPD3) =    -0.1450821967D+00 E(B2PLYPD3) =    -0.11565647562544D+03

 The electronic state is 1-A.
 Alpha  occ. eigenvalues --  -19.71253 -10.67317  -1.21221  -0.79411  -0.61022
 Alpha  occ. eigenvalues --   -0.51905  -0.49971  -0.41344  -0.35852
 Alpha virt. eigenvalues --    0.05334   0.08840   0.11982   0.12159   0.14570
 Alpha virt. eigenvalues --    0.17557   0.17905   0.28840   0.32442   0.33700
 Alpha virt. eigenvalues --    0.36577   0.38208   0.39878   0.40283   0.43560

 Mulliken charges:
               1
     1  C    0.059586
     2  O   -0.341364
     3  H    0.051525
     4  H    0.046988
     5  H    0.066508
     6  H    0.116757
 Sum of Mulliken charges =   0.00000

 Dipole moment (field-independent basis, Debye):
    X=              0.9612    Y=             -1.3844    Z=             -0.1482  Tot=              1.6919
 Quadrupole moment (field-independent basis, Debye-Ang):
   XX=            -13.2590   YY=            -12.4557   ZZ=            -13.6641
   XY=              2.0388   XZ=             -0.0228   YZ=              0.1230

 Normal termination of Gaussian 09 at Wed Aug 26 11:57:08 2020.
