 Gaussian 09, Revision D.01,
 Gaussian 09:  ES64L-G09RevD.01 24-Apr-2013

 --------------------
 #p B2PLYPD3/Def2QZVP
 --------------------

 --------
 methanol
 --------
 Symbolic Z-matrix:
 Charge =  0 Multiplicity = 1

                         Standard orientation:
 ---------------------------------------------------------------------
 Center     Atomic      Atomic             Coordinates (Angstroms)
 Number     Number       Type             X           Y           Z
 ---------------------------------------------------------------------
      1          6           0        0.677204    0.023289    0.010022
      2          8           0       -0.750438   -0.134650   -0.007182
      3          1           0        1.000539    0.449349    0.903622
      4          1           0        1.051108    0.582642   -0.851146
      5          1           0        1.046669   -0.940929   -0.071289
      6          1           0       -1.158038    0.846403    0.016134
 ---------------------------------------------------------------------

 SCF Done:  E(RB2PLYPD3) =  -115.539264573     A.U. after   11 cycles
 E2(B2PLYPD3) =    -0.1491184591D+00 E(B2PLYPD3) =    -0.11568838303234D+03

 The electronic state is 1-A.
 Alpha  occ. eigenvalues --  -19.73219 -10.64417  -1.13791  -0.78848  -0.57082
 Alpha  occ. eigenvalues --   -0.52243  -0.49329  -0.41102  -0.35340
 Alpha virt. eigenvalues --    0.04246   0.07958   0.12429   0.12619   0.14778
 Alpha virt. eigenvalues --    0.17159   0.18308   0.28967   0.31471   0.33399
 Alpha virt. eigenvalues --    0.33615   0.38711   0.40278   0.41796   0.43992

 Mulliken charges:
               1
     1  C    0.076124
     2  O   -0.489325
     3  H    0.053689
     4  H    0.045556
     5  H    0.070038
     6  H    0.243918
 Sum of Mulliken charges =   0.00000

 Dipole moment (field-independent basis, Debye):
    X=              0.9682    Y=              1.5647    Z=              0.0726  Tot=              1.8415
 Quadrupole moment (field-independent basis, Debye-Ang):
   XX=            -13.0509   YY=            -12.0436   ZZ=            -13.7407
   XY=             -2.3423   XZ=             -0.0601   YZ=              0.0733

 Normal termination of Gaussian 09 at Thu Aug 27 00:04:01 2020.
