 Gaussian 09, Revision D.01,
 Gaussian 09:  ES64L-G09RevD.01 24-Apr-2013

 --------------------
 #p B2PLYPD3/Def2QZVP
 --------------------

 --------
 methanol
 --------
 Symbolic Z-matrix:
 Charge =  0 Multiplicity = 1

                         Standard orientation:
 ---------------------------------------------------------------------
 Center     Atomic      Atomic             Coordinates (Angstroms)
 Number     Number       Type             X           Y           Z
 ---------------------------------------------------------------------
      1          6           0       -0.655987   -0.038798    0.011410
      2          8           0        0.760731    0.104860   -0.015071
      3          1           0       -0.983014   -0.490240    0.913489
      4          1           0       -1.051707   -0.585434   -0.897675
      5          1           0       -1.159947    1.079096   -0.023855
      6          1           0        1.044745   -0.609516    0.060148
 ---------------------------------------------------------------------

 SCF Done:  E(RB2PLYPD3) =  -115.490773610     A.U. after   10 cycles
 E2(B2PLYPD3) =    -0.1449935188D+00 E(B2PLYPD3) =    -0.11563576712883D+03

 The electronic state is 1-A.
 Alpha  occ. eigenvalues --  -19.71042 -10.67516  -1.21925  -0.79640  -0.61352
 Alpha  occ. eigenvalues --   -0.52581  -0.49173  -0.40913  -0.36439
 Alpha virt. eigenvalues --    0.05283   0.08896   0.11695   0.12090   0.14580
 Alpha virt. eigenvalues --    0.17507   0.18009   0.28668   0.32494   0.33307
 Alpha virt. eigenvalues --    0.34933   0.38591   0.39698   0.41326   0.43531

 Mulliken charges:
               1
     1  C    0.057315
     2  O   -0.319415
     3  H    0.061856
     4  H    0.053925
     5  H    0.055618
     6  H    0.090702
 Sum of Mulliken charges =   0.00000

 Dipole moment (field-independent basis, Debye):
    X=             -0.9944    Y=             -1.4389    Z=              0.2101  Tot=              1.7616
 Quadrupole moment (field-independent basis, Debye-Ang):
   XX=            -13.2831   YY=            -12.5215   ZZ=            -13.5704
   XY=             -1.8918   XZ=              0.1678   YZ=             -0.1300

 Normal termination of Gaussian 09 at Wed Aug 26 15:21:48 2020.
