 Gaussian 09, Revision D.01,
 Gaussian 09:  ES64L-G09RevD.01 24-Apr-2013

 --------------------
 #p B2PLYPD3/Def2QZVP
 --------------------

 --------
 methanol
 --------
 Symbolic Z-matrix:
 Charge =  0 Multiplicity = 1

                         Standard orientation:
 ---------------------------------------------------------------------
 Center     Atomic      Atomic             Coordinates (Angstroms)
 Number     Number       Type             X           Y           Z
 ---------------------------------------------------------------------
      1          6           0        0.676222   -0.005069   -0.006378
      2          8           0       -0.741437    0.093140   -0.014075
      3          1           0        1.005971   -0.714449   -0.844517
      4          1           0        1.028943   -0.414671    1.000447
      5          1           0        1.004023    1.014900   -0.112206
      6          1           0       -1.164775   -0.600484    0.107140
 ---------------------------------------------------------------------

 SCF Done:  E(RB2PLYPD3) =  -115.524258187     A.U. after   10 cycles
 E2(B2PLYPD3) =    -0.1451555389D+00 E(B2PLYPD3) =    -0.11566941372635D+03

 The electronic state is 1-A.
 Alpha  occ. eigenvalues --  -19.70658 -10.67026  -1.19076  -0.80152  -0.59986
 Alpha  occ. eigenvalues --   -0.51490  -0.50489  -0.40711  -0.35237
 Alpha virt. eigenvalues --    0.05386   0.08822   0.12002   0.12313   0.14668
 Alpha virt. eigenvalues --    0.16720   0.17763   0.29117   0.32749   0.33095
 Alpha virt. eigenvalues --    0.37561   0.39112   0.39740   0.40311   0.42860

 Mulliken charges:
               1
     1  C    0.066575
     2  O   -0.385554
     3  H    0.048371
     4  H    0.044219
     5  H    0.085605
     6  H    0.140782
 Sum of Mulliken charges =   0.00000

 Dipole moment (field-independent basis, Debye):
    X=              0.8021    Y=             -1.2666    Z=              0.2307  Tot=              1.5169
 Quadrupole moment (field-independent basis, Debye-Ang):
   XX=            -12.9708   YY=            -12.3784   ZZ=            -13.6715
   XY=              2.1112   XZ=             -0.3205   YZ=             -0.1164

 Normal termination of Gaussian 09 at Wed Aug 26 10:49:35 2020.
