 Gaussian 09, Revision D.01,
 Gaussian 09:  ES64L-G09RevD.01 24-Apr-2013

 --------------------
 #p B2PLYPD3/Def2QZVP
 --------------------

 --------
 methanol
 --------
 Symbolic Z-matrix:
 Charge =  0 Multiplicity = 1

                         Standard orientation:
 ---------------------------------------------------------------------
 Center     Atomic      Atomic             Coordinates (Angstroms)
 Number     Number       Type             X           Y           Z
 ---------------------------------------------------------------------
      1          6           0       -0.646648   -0.001936    0.001453
      2          8           0        0.740562   -0.156109   -0.011631
      3          1           0       -1.071232    0.606632   -0.811129
      4          1           0       -0.997019    0.486472    0.863975
      5          1           0       -1.106772   -0.832743   -0.014055
      6          1           0        1.130414    1.000132    0.045539
 ---------------------------------------------------------------------

 SCF Done:  E(RB2PLYPD3) =  -115.490843561     A.U. after   11 cycles
 E2(B2PLYPD3) =    -0.1516993727D+00 E(B2PLYPD3) =    -0.11564254293321D+03

 The electronic state is 1-A.
 Alpha  occ. eigenvalues --  -19.74690 -10.63184  -1.13750  -0.79205  -0.56283
 Alpha  occ. eigenvalues --   -0.51188  -0.51067  -0.40818  -0.34647
 Alpha virt. eigenvalues --    0.01751   0.07637   0.12665   0.12945   0.14917
 Alpha virt. eigenvalues --    0.18006   0.18317   0.25610   0.29655   0.33138
 Alpha virt. eigenvalues --    0.34915   0.38535   0.40858   0.41806   0.43164

 Mulliken charges:
               1
     1  C    0.085795
     2  O   -0.478437
     3  H    0.029636
     4  H    0.033971
     5  H    0.069572
     6  H    0.259463
 Sum of Mulliken charges =   0.00000

 Dipole moment (field-independent basis, Debye):
    X=             -0.9162    Y=              1.6362    Z=              0.1413  Tot=              1.8805
 Quadrupole moment (field-independent basis, Debye-Ang):
   XX=            -13.1348   YY=            -11.6553   ZZ=            -14.0756
   XY=              2.5154   XZ=              0.0914   YZ=              0.0884

 Normal termination of Gaussian 09 at Wed Aug 26 16:17:16 2020.
