 Gaussian 09, Revision D.01,
 Gaussian 09:  ES64L-G09RevD.01 24-Apr-2013

 --------------------
 #p B2PLYPD3/Def2QZVP
 --------------------

 --------
 methanol
 --------
 Symbolic Z-matrix:
 Charge =  0 Multiplicity = 1

                         Standard orientation:
 ---------------------------------------------------------------------
 Center     Atomic      Atomic             Coordinates (Angstroms)
 Number     Number       Type             X           Y           Z
 ---------------------------------------------------------------------
      1          6           0       -0.661974   -0.019613    0.011497
      2          8           0        0.743364    0.100787   -0.012631
      3          1           0       -0.947339   -0.496905    0.945469
      4          1           0       -1.038253   -0.603865   -0.902768
      5          1           0       -1.063580    1.037415   -0.042373
      6          1           0        1.074106   -0.625260    0.031741
 ---------------------------------------------------------------------

 SCF Done:  E(RB2PLYPD3) =  -115.515704951     A.U. after   10 cycles
 E2(B2PLYPD3) =    -0.1447722254D+00 E(B2PLYPD3) =    -0.11566047717619D+03

 The electronic state is 1-A.
 Alpha  occ. eigenvalues --  -19.70782 -10.66833  -1.20780  -0.79829  -0.60693
 Alpha  occ. eigenvalues --   -0.52280  -0.50052  -0.41184  -0.35709
 Alpha virt. eigenvalues --    0.05384   0.09005   0.12040   0.12155   0.14625
 Alpha virt. eigenvalues --    0.17108   0.17782   0.28889   0.32925   0.33375
 Alpha virt. eigenvalues --    0.37484   0.38665   0.39958   0.40766   0.43494

 Mulliken charges:
               1
     1  C    0.062703
     2  O   -0.350906
     3  H    0.053792
     4  H    0.044399
     5  H    0.072488
     6  H    0.117525
 Sum of Mulliken charges =   0.00000

 Dipole moment (field-independent basis, Debye):
    X=             -0.8992    Y=             -1.3510    Z=              0.1417  Tot=              1.6290
 Quadrupole moment (field-independent basis, Debye-Ang):
   XX=            -13.3043   YY=            -12.3625   ZZ=            -13.5630
   XY=             -2.0421   XZ=              0.1343   YZ=             -0.1016

 Normal termination of Gaussian 09 at Thu Aug 27 00:03:49 2020.
