 Gaussian 09, Revision D.01,
 Gaussian 09:  ES64L-G09RevD.01 24-Apr-2013

 --------------------
 #p B2PLYPD3/Def2QZVP
 --------------------

 --------
 methanol
 --------
 Symbolic Z-matrix:
 Charge =  0 Multiplicity = 1

                         Standard orientation:
 ---------------------------------------------------------------------
 Center     Atomic      Atomic             Coordinates (Angstroms)
 Number     Number       Type             X           Y           Z
 ---------------------------------------------------------------------
      1          6           0       -0.661914   -0.032990    0.002667
      2          8           0        0.738008    0.101068   -0.008063
      3          1           0       -0.982696   -0.532834    0.918389
      4          1           0       -1.028345   -0.581312   -0.894350
      5          1           0       -1.083898    1.083772   -0.005594
      6          1           0        1.162357   -0.580233    0.030052
 ---------------------------------------------------------------------

 SCF Done:  E(RB2PLYPD3) =  -115.514260366     A.U. after   10 cycles
 E2(B2PLYPD3) =    -0.1448381793D+00 E(B2PLYPD3) =    -0.11565909854582D+03

 The electronic state is 1-A.
 Alpha  occ. eigenvalues --  -19.70700 -10.67210  -1.20243  -0.80106  -0.61060
 Alpha  occ. eigenvalues --   -0.52308  -0.49455  -0.40034  -0.35778
 Alpha virt. eigenvalues --    0.05379   0.08866   0.11860   0.12282   0.14787
 Alpha virt. eigenvalues --    0.16934   0.17853   0.29021   0.33152   0.33634
 Alpha virt. eigenvalues --    0.36205   0.39132   0.40018   0.40692   0.42724

 Mulliken charges:
               1
     1  C    0.060440
     2  O   -0.357441
     3  H    0.054436
     4  H    0.053612
     5  H    0.066648
     6  H    0.122305
 Sum of Mulliken charges =   0.00000

 Dipole moment (field-independent basis, Debye):
    X=             -0.7405    Y=             -1.3863    Z=              0.0998  Tot=              1.5748
 Quadrupole moment (field-independent basis, Debye-Ang):
   XX=            -12.8790   YY=            -12.5339   ZZ=            -13.6401
   XY=             -2.0074   XZ=              0.1165   YZ=             -0.0423

 Normal termination of Gaussian 09 at Wed Aug 26 10:21:05 2020.
