 Gaussian 09, Revision D.01,
 Gaussian 09:  ES64L-G09RevD.01 24-Apr-2013

 --------------------
 #p B2PLYPD3/Def2QZVP
 --------------------

 --------
 methanol
 --------
 Symbolic Z-matrix:
 Charge =  0 Multiplicity = 1

                         Standard orientation:
 ---------------------------------------------------------------------
 Center     Atomic      Atomic             Coordinates (Angstroms)
 Number     Number       Type             X           Y           Z
 ---------------------------------------------------------------------
      1          6           0        0.659296    0.026707   -0.007375
      2          8           0       -0.730674   -0.160389    0.017856
      3          1           0        1.070195    0.555335    0.814024
      4          1           0        0.962041    0.484848   -0.811046
      5          1           0        1.031597   -0.909801   -0.034738
      6          1           0       -1.174218    0.992487   -0.066836
 ---------------------------------------------------------------------

 SCF Done:  E(RB2PLYPD3) =  -115.489650102     A.U. after   11 cycles
 E2(B2PLYPD3) =    -0.1518957984D+00 E(B2PLYPD3) =    -0.11564154590011D+03

 The electronic state is 1-A.
 Alpha  occ. eigenvalues --  -19.74413 -10.62468  -1.13245  -0.79213  -0.56685
 Alpha  occ. eigenvalues --   -0.52650  -0.49324  -0.40529  -0.35057
 Alpha virt. eigenvalues --    0.01754   0.07754   0.12619   0.12866   0.15126
 Alpha virt. eigenvalues --    0.17229   0.18305   0.25428   0.29541   0.33416
 Alpha virt. eigenvalues --    0.35103   0.39170   0.39834   0.42281   0.45033

 Mulliken charges:
               1
     1  C    0.090325
     2  O   -0.484141
     3  H    0.041004
     4  H    0.041750
     5  H    0.063505
     6  H    0.247556
 Sum of Mulliken charges =   0.00000

 Dipole moment (field-independent basis, Debye):
    X=              0.9429    Y=              1.6855    Z=             -0.2152  Tot=              1.9432
 Quadrupole moment (field-independent basis, Debye-Ang):
   XX=            -13.0997   YY=            -11.6313   ZZ=            -13.9022
   XY=             -2.3491   XZ=              0.1236   YZ=             -0.1134

 Normal termination of Gaussian 09 at Wed Aug 26 12:05:39 2020.
