 Gaussian 09, Revision D.01,
 Gaussian 09:  ES64L-G09RevD.01 24-Apr-2013

 --------------------
 #p B2PLYPD3/Def2QZVP
 --------------------

 --------
 methanol
 --------
 Symbolic Z-matrix:
 Charge =  0 Multiplicity = 1

                         Standard orientation:
 ---------------------------------------------------------------------
 Center     Atomic      Atomic             Coordinates (Angstroms)
 Number     Number       Type             X           Y           Z
 ---------------------------------------------------------------------
      1          6           0        0.672706   -0.022526    0.028061
      2          8           0       -0.753496    0.084524   -0.011973
      3          1           0        1.009046   -0.711024   -0.896923
      4          1           0        0.977562   -0.434196    0.967350
      5          1           0        1.101594    1.094053   -0.174176
      6          1           0       -1.096477   -0.489872    0.031167
 ---------------------------------------------------------------------

 SCF Done:  E(RB2PLYPD3) =  -115.370061520     A.U. after   11 cycles
 E2(B2PLYPD3) =    -0.1437850444D+00 E(B2PLYPD3) =    -0.11551384656480D+03

 The electronic state is 1-A.
 Alpha  occ. eigenvalues --  -19.69123 -10.68662  -1.24991  -0.81662  -0.61853
 Alpha  occ. eigenvalues --   -0.52102  -0.49434  -0.40551  -0.36198
 Alpha virt. eigenvalues --    0.05251   0.09363   0.11460   0.11849   0.14391
 Alpha virt. eigenvalues --    0.16876   0.17593   0.28701   0.31982   0.32752
 Alpha virt. eigenvalues --    0.35186   0.37156   0.40474   0.41355   0.42526

 Mulliken charges:
               1
     1  C    0.058542
     2  O   -0.234580
     3  H    0.041941
     4  H    0.068630
     5  H    0.075432
     6  H   -0.009965
 Sum of Mulliken charges =   0.00000

 Dipole moment (field-independent basis, Debye):
    X=              0.9591    Y=             -1.2209    Z=              0.2020  Tot=              1.5657
 Quadrupole moment (field-independent basis, Debye-Ang):
   XX=            -13.1401   YY=            -12.5615   ZZ=            -13.4364
   XY=              1.9126   XZ=             -0.0550   YZ=             -0.1995

 Normal termination of Gaussian 09 at Wed Aug 26 12:17:02 2020.
