 Gaussian 09, Revision D.01,
 Gaussian 09:  ES64L-G09RevD.01 24-Apr-2013

 --------------------
 #p B2PLYPD3/Def2QZVP
 --------------------

 --------
 methanol
 --------
 Symbolic Z-matrix:
 Charge =  0 Multiplicity = 1

                         Standard orientation:
 ---------------------------------------------------------------------
 Center     Atomic      Atomic             Coordinates (Angstroms)
 Number     Number       Type             X           Y           Z
 ---------------------------------------------------------------------
      1          6           0        0.667712   -0.021846    0.011389
      2          8           0       -0.743314    0.040764    0.001806
      3          1           0        1.041858   -0.720186   -0.927915
      4          1           0        1.169798   -0.418182    0.995858
      5          1           0        0.958216    1.247529   -0.191251
      6          1           0       -1.229628   -0.304191    0.040520
 ---------------------------------------------------------------------

 SCF Done:  E(RB2PLYPD3) =  -115.164696316     A.U. after   11 cycles
 E2(B2PLYPD3) =    -0.1446847910D+00 E(B2PLYPD3) =    -0.11530938110730D+03

 The electronic state is 1-A.
 Alpha  occ. eigenvalues --  -19.68201 -10.71968  -1.27369  -0.84885  -0.61976
 Alpha  occ. eigenvalues --   -0.50800  -0.49010  -0.37323  -0.36099
 Alpha virt. eigenvalues --    0.04595   0.09264   0.10515   0.11616   0.14298
 Alpha virt. eigenvalues --    0.16341   0.17797   0.28722   0.31324   0.32861
 Alpha virt. eigenvalues --    0.33244   0.35398   0.37341   0.39601   0.43008

 Mulliken charges:
               1
     1  C    0.037914
     2  O   -0.139418
     3  H    0.053553
     4  H    0.069239
     5  H    0.076339
     6  H   -0.097627
 Sum of Mulliken charges =   0.00000

 Dipole moment (field-independent basis, Debye):
    X=              0.6121    Y=             -0.9392    Z=              0.1671  Tot=              1.1334
 Quadrupole moment (field-independent basis, Debye-Ang):
   XX=            -12.4598   YY=            -12.9837   ZZ=            -13.5874
   XY=              1.2066   XZ=              0.0678   YZ=             -0.0998

 Normal termination of Gaussian 09 at Wed Aug 26 23:50:27 2020.
