 Gaussian 09, Revision D.01,
 Gaussian 09:  ES64L-G09RevD.01 24-Apr-2013

 --------------------
 #p B2PLYPD3/Def2QZVP
 --------------------

 --------
 methanol
 --------
 Symbolic Z-matrix:
 Charge =  0 Multiplicity = 1

                         Standard orientation:
 ---------------------------------------------------------------------
 Center     Atomic      Atomic             Coordinates (Angstroms)
 Number     Number       Type             X           Y           Z
 ---------------------------------------------------------------------
      1          6           0        0.656059   -0.013897    0.011360
      2          8           0       -0.733734   -0.071208   -0.033250
      3          1           0        0.969449    0.130870    1.077515
      4          1           0        0.877302    1.016827   -0.664198
      5          1           0        1.052032   -0.921872   -0.450987
      6          1           0       -0.965262    0.427219    0.235511
 ---------------------------------------------------------------------

 SCF Done:  E(RB2PLYPD3) =  -115.245054907     A.U. after   11 cycles
 E2(B2PLYPD3) =    -0.1427084505D+00 E(B2PLYPD3) =    -0.11538776335714D+03

 The electronic state is 1-A.
 Alpha  occ. eigenvalues --  -19.68637 -10.68181  -1.29526  -0.82725  -0.62260
 Alpha  occ. eigenvalues --   -0.52360  -0.51946  -0.42219  -0.35252
 Alpha virt. eigenvalues --    0.05224   0.09774   0.11271   0.12118   0.14332
 Alpha virt. eigenvalues --    0.16932   0.17078   0.27940   0.31474   0.33432
 Alpha virt. eigenvalues --    0.36136   0.39018   0.39880   0.41597   0.43858

 Mulliken charges:
               1
     1  C    0.054071
     2  O   -0.171231
     3  H    0.048288
     4  H    0.025864
     5  H    0.093002
     6  H   -0.049995
 Sum of Mulliken charges =   0.00000

 Dipole moment (field-independent basis, Debye):
    X=              0.9762    Y=              0.8640    Z=              0.6420  Tot=              1.4532
 Quadrupole moment (field-independent basis, Debye-Ang):
   XX=            -13.7271   YY=            -12.5772   ZZ=            -13.1235
   XY=             -1.8741   XZ=             -0.6532   YZ=              0.5376

 Normal termination of Gaussian 09 at Wed Aug 26 21:23:50 2020.
