 Gaussian 09, Revision D.01,
 Gaussian 09:  ES64L-G09RevD.01 24-Apr-2013

 --------------------
 #p B2PLYPD3/Def2QZVP
 --------------------

 --------
 methanol
 --------
 Symbolic Z-matrix:
 Charge =  0 Multiplicity = 1

                         Standard orientation:
 ---------------------------------------------------------------------
 Center     Atomic      Atomic             Coordinates (Angstroms)
 Number     Number       Type             X           Y           Z
 ---------------------------------------------------------------------
      1          6           0       -0.680405   -0.025417   -0.001364
      2          8           0        0.750027    0.098208   -0.037842
      3          1           0       -0.896948   -0.131073    1.113621
      4          1           0       -0.973432   -0.854584   -0.684502
      5          1           0       -1.100218    0.935236   -0.315129
      6          1           0        1.052809   -0.582742    0.196926
 ---------------------------------------------------------------------

 SCF Done:  E(RB2PLYPD3) =  -115.502271862     A.U. after   11 cycles
 E2(B2PLYPD3) =    -0.1448283382D+00 E(B2PLYPD3) =    -0.11564710020002D+03

 The electronic state is 1-A.
 Alpha  occ. eigenvalues --  -19.70192 -10.66904  -1.20629  -0.79982  -0.59718
 Alpha  occ. eigenvalues --   -0.52682  -0.50405  -0.41146  -0.35654
 Alpha virt. eigenvalues --    0.05399   0.09082   0.11648   0.12447   0.13859
 Alpha virt. eigenvalues --    0.17170   0.17841   0.28762   0.31775   0.33023
 Alpha virt. eigenvalues --    0.36977   0.39569   0.40063   0.40441   0.44273

 Mulliken charges:
               1
     1  C    0.065914
     2  O   -0.346547
     3  H    0.050571
     4  H    0.056196
     5  H    0.076156
     6  H    0.097709
 Sum of Mulliken charges =   0.00000

 Dipole moment (field-independent basis, Debye):
    X=             -1.0563    Y=             -1.2424    Z=              0.4071  Tot=              1.6808
 Quadrupole moment (field-independent basis, Debye-Ang):
   XX=            -13.4526   YY=            -12.4472   ZZ=            -13.3235
   XY=             -2.0107   XZ=              0.8153   YZ=             -0.1647

 Normal termination of Gaussian 09 at Wed Aug 26 22:22:19 2020.
