 Gaussian 09, Revision D.01,
 Gaussian 09:  ES64L-G09RevD.01 24-Apr-2013

 --------------------
 #p B2PLYPD3/Def2QZVP
 --------------------

 --------
 methanol
 --------
 Symbolic Z-matrix:
 Charge =  0 Multiplicity = 1

                         Standard orientation:
 ---------------------------------------------------------------------
 Center     Atomic      Atomic             Coordinates (Angstroms)
 Number     Number       Type             X           Y           Z
 ---------------------------------------------------------------------
      1          6           0        0.665874    0.000796    0.017034
      2          8           0       -0.759293    0.107009   -0.021085
      3          1           0        1.090808   -0.707856   -0.843485
      4          1           0        1.005979   -0.423082    0.946384
      5          1           0        1.092891    0.973257   -0.121875
      6          1           0       -1.110574   -0.703162    0.085448
 ---------------------------------------------------------------------

 SCF Done:  E(RB2PLYPD3) =  -115.542962716     A.U. after   10 cycles
 E2(B2PLYPD3) =    -0.1464845348D+00 E(B2PLYPD3) =    -0.11568944725099D+03

 The electronic state is 1-A.
 Alpha  occ. eigenvalues --  -19.72140 -10.66621  -1.17658  -0.79132  -0.59567
 Alpha  occ. eigenvalues --   -0.51078  -0.50214  -0.41637  -0.35327
 Alpha virt. eigenvalues --    0.05174   0.08369   0.12083   0.12413   0.14815
 Alpha virt. eigenvalues --    0.17399   0.17903   0.29074   0.32806   0.32884
 Alpha virt. eigenvalues --    0.36181   0.38236   0.39998   0.40362   0.43637

 Mulliken charges:
               1
     1  C    0.069471
     2  O   -0.426701
     3  H    0.031583
     4  H    0.052190
     5  H    0.079668
     6  H    0.193789
 Sum of Mulliken charges =   0.00000

 Dipole moment (field-independent basis, Debye):
    X=              0.9271    Y=             -1.3623    Z=              0.3013  Tot=              1.6751
 Quadrupole moment (field-independent basis, Debye-Ang):
   XX=            -13.1009   YY=            -12.2935   ZZ=            -13.8337
   XY=              2.2279   XZ=             -0.2050   YZ=             -0.2508

 Normal termination of Gaussian 09 at Wed Aug 26 12:46:43 2020.
