 Gaussian 09, Revision D.01,
 Gaussian 09:  ES64L-G09RevD.01 24-Apr-2013

 --------------------
 #p B2PLYPD3/Def2QZVP
 --------------------

 --------
 methanol
 --------
 Symbolic Z-matrix:
 Charge =  0 Multiplicity = 1

                         Standard orientation:
 ---------------------------------------------------------------------
 Center     Atomic      Atomic             Coordinates (Angstroms)
 Number     Number       Type             X           Y           Z
 ---------------------------------------------------------------------
      1          6           0       -0.657349   -0.032084   -0.010583
      2          8           0        0.738315    0.131326    0.005148
      3          1           0       -1.002822   -0.571338    0.871624
      4          1           0       -1.016409   -0.505495   -0.858450
      5          1           0       -1.099084    0.994151    0.035992
      6          1           0        1.155891   -0.775426   -0.026853
 ---------------------------------------------------------------------

 SCF Done:  E(RB2PLYPD3) =  -115.548290156     A.U. after   10 cycles
 E2(B2PLYPD3) =    -0.1476480835D+00 E(B2PLYPD3) =    -0.11569593823903D+03

 The electronic state is 1-A.
 Alpha  occ. eigenvalues --  -19.72846 -10.65060  -1.15872  -0.78538  -0.58702
 Alpha  occ. eigenvalues --   -0.52439  -0.49524  -0.40643  -0.35348
 Alpha virt. eigenvalues --    0.04703   0.08147   0.12371   0.12543   0.14966
 Alpha virt. eigenvalues --    0.17344   0.18155   0.29137   0.33317   0.33391
 Alpha virt. eigenvalues --    0.34682   0.38215   0.39859   0.41916   0.44509

 Mulliken charges:
               1
     1  C    0.072207
     2  O   -0.464859
     3  H    0.044544
     4  H    0.051206
     5  H    0.062567
     6  H    0.234334
 Sum of Mulliken charges =   0.00000

 Dipole moment (field-independent basis, Debye):
    X=             -0.8053    Y=             -1.5800    Z=             -0.0993  Tot=              1.7762
 Quadrupole moment (field-independent basis, Debye-Ang):
   XX=            -12.9744   YY=            -12.2081   ZZ=            -13.7979
   XY=             -2.2626   XZ=             -0.0071   YZ=              0.0896

 Normal termination of Gaussian 09 at Wed Aug 26 22:57:01 2020.
