 Gaussian 09, Revision D.01,
 Gaussian 09:  ES64L-G09RevD.01 24-Apr-2013

 --------------------
 #p B2PLYPD3/Def2QZVP
 --------------------

 --------
 methanol
 --------
 Symbolic Z-matrix:
 Charge =  0 Multiplicity = 1

                         Standard orientation:
 ---------------------------------------------------------------------
 Center     Atomic      Atomic             Coordinates (Angstroms)
 Number     Number       Type             X           Y           Z
 ---------------------------------------------------------------------
      1          6           0        0.658777    0.061021    0.032461
      2          8           0       -0.723535   -0.176856   -0.020269
      3          1           0        1.000198    0.323749    0.768906
      4          1           0        1.010354    0.653923   -0.765745
      5          1           0        1.047660   -0.952550   -0.125428
      6          1           0       -1.222588    1.023603    0.089651
 ---------------------------------------------------------------------

 SCF Done:  E(RB2PLYPD3) =  -115.431467908     A.U. after   11 cycles
 E2(B2PLYPD3) =    -0.1535130727D+00 E(B2PLYPD3) =    -0.11558498098060D+03

 The electronic state is 1-A.
 Alpha  occ. eigenvalues --  -19.74951 -10.62128  -1.12913  -0.80415  -0.56441
 Alpha  occ. eigenvalues --   -0.53927  -0.48467  -0.39107  -0.35653
 Alpha virt. eigenvalues --    0.00625   0.07570   0.12224   0.12900   0.15186
 Alpha virt. eigenvalues --    0.17115   0.18736   0.23811   0.29276   0.33737
 Alpha virt. eigenvalues --    0.35191   0.37061   0.39007   0.43088   0.46012

 Mulliken charges:
               1
     1  C    0.038209
     2  O   -0.472060
     3  H    0.097596
     4  H    0.048146
     5  H    0.050469
     6  H    0.237640
 Sum of Mulliken charges =   0.00000

 Dipole moment (field-independent basis, Debye):
    X=              0.9253    Y=              1.7420    Z=              0.2756  Tot=              1.9917
 Quadrupole moment (field-independent basis, Debye-Ang):
   XX=            -13.0283   YY=            -11.7150   ZZ=            -13.8339
   XY=             -2.2847   XZ=             -0.0357   YZ=              0.1716

 Normal termination of Gaussian 09 at Wed Aug 26 23:11:12 2020.
