 Gaussian 09, Revision D.01,
 Gaussian 09:  ES64L-G09RevD.01 24-Apr-2013

 --------------------
 #p B2PLYPD3/Def2QZVP
 --------------------

 --------
 methanol
 --------
 Symbolic Z-matrix:
 Charge =  0 Multiplicity = 1

                         Standard orientation:
 ---------------------------------------------------------------------
 Center     Atomic      Atomic             Coordinates (Angstroms)
 Number     Number       Type             X           Y           Z
 ---------------------------------------------------------------------
      1          6           0       -0.656571   -0.027893    0.003417
      2          8           0        0.739784    0.136961   -0.011121
      3          1           0       -1.004751   -0.454129    0.888558
      4          1           0       -1.026285   -0.634424   -0.817365
      5          1           0       -1.125773    0.962168   -0.059220
      6          1           0        1.177961   -0.801942    0.056488
 ---------------------------------------------------------------------

 SCF Done:  E(RB2PLYPD3) =  -115.544696102     A.U. after   10 cycles
 E2(B2PLYPD3) =    -0.1483034908D+00 E(B2PLYPD3) =    -0.11569299959319D+03

 The electronic state is 1-A.
 Alpha  occ. eigenvalues --  -19.73205 -10.64828  -1.15157  -0.78467  -0.58075
 Alpha  occ. eigenvalues --   -0.52114  -0.49798  -0.40587  -0.35217
 Alpha virt. eigenvalues --    0.04387   0.07943   0.12479   0.12661   0.14965
 Alpha virt. eigenvalues --    0.17480   0.18187   0.29166   0.32002   0.33402
 Alpha virt. eigenvalues --    0.34438   0.38870   0.39768   0.41685   0.44291

 Mulliken charges:
               1
     1  C    0.075242
     2  O   -0.474756
     3  H    0.047836
     4  H    0.042974
     5  H    0.064286
     6  H    0.244418
 Sum of Mulliken charges =   0.00000

 Dipole moment (field-independent basis, Debye):
    X=             -0.7982    Y=             -1.5924    Z=              0.1581  Tot=              1.7883
 Quadrupole moment (field-independent basis, Debye-Ang):
   XX=            -12.8465   YY=            -12.1798   ZZ=            -13.8781
   XY=             -2.3618   XZ=              0.1235   YZ=             -0.0815

 Normal termination of Gaussian 09 at Wed Aug 26 10:15:02 2020.
