 Gaussian 09, Revision D.01,
 Gaussian 09:  ES64L-G09RevD.01 24-Apr-2013

 --------------------
 #p B2PLYPD3/Def2QZVP
 --------------------

 --------
 methanol
 --------
 Symbolic Z-matrix:
 Charge =  0 Multiplicity = 1

                         Standard orientation:
 ---------------------------------------------------------------------
 Center     Atomic      Atomic             Coordinates (Angstroms)
 Number     Number       Type             X           Y           Z
 ---------------------------------------------------------------------
      1          6           0        0.664917    0.023863   -0.008029
      2          8           0       -0.742109   -0.145391    0.009583
      3          1           0        1.108858    0.506548    0.838888
      4          1           0        1.005239    0.539428   -0.812521
      5          1           0        1.013673   -0.953946   -0.040679
      6          1           0       -1.180402    0.927923   -0.014172
 ---------------------------------------------------------------------

 SCF Done:  E(RB2PLYPD3) =  -115.516857935     A.U. after   11 cycles
 E2(B2PLYPD3) =    -0.1507895642D+00 E(B2PLYPD3) =    -0.11566764749896D+03

 The electronic state is 1-A.
 Alpha  occ. eigenvalues --  -19.74122 -10.63634  -1.13382  -0.78778  -0.57119
 Alpha  occ. eigenvalues --   -0.51819  -0.49075  -0.41001  -0.35151
 Alpha virt. eigenvalues --    0.03020   0.07737   0.12440   0.12845   0.15218
 Alpha virt. eigenvalues --    0.17055   0.18347   0.27566   0.29640   0.33538
 Alpha virt. eigenvalues --    0.34468   0.38802   0.39394   0.41813   0.44697

 Mulliken charges:
               1
     1  C    0.079080
     2  O   -0.484587
     3  H    0.043368
     4  H    0.045268
     5  H    0.067119
     6  H    0.249752
 Sum of Mulliken charges =   0.00000

 Dipole moment (field-independent basis, Debye):
    X=              0.9065    Y=              1.6551    Z=             -0.0948  Tot=              1.8894
 Quadrupole moment (field-independent basis, Debye-Ang):
   XX=            -12.9950   YY=            -11.7840   ZZ=            -13.9819
   XY=             -2.2919   XZ=              0.0543   YZ=             -0.0610

 Normal termination of Gaussian 09 at Wed Aug 26 12:38:19 2020.
