 Gaussian 09, Revision D.01,
 Gaussian 09:  ES64L-G09RevD.01 24-Apr-2013

 --------------------
 #p B2PLYPD3/Def2QZVP
 --------------------

 --------
 methanol
 --------
 Symbolic Z-matrix:
 Charge =  0 Multiplicity = 1

                         Standard orientation:
 ---------------------------------------------------------------------
 Center     Atomic      Atomic             Coordinates (Angstroms)
 Number     Number       Type             X           Y           Z
 ---------------------------------------------------------------------
      1          6           0        0.640342    0.025557   -0.007967
      2          8           0       -0.722865   -0.154408    0.022310
      3          1           0        1.015118    0.591606    0.830659
      4          1           0        1.001319    0.404963   -0.821379
      5          1           0        0.998406   -0.919472   -0.005521
      6          1           0       -1.073973    1.004832   -0.134441
 ---------------------------------------------------------------------

 SCF Done:  E(RB2PLYPD3) =  -115.488973935     A.U. after   11 cycles
 E2(B2PLYPD3) =    -0.1514918230D+00 E(B2PLYPD3) =    -0.11564046575832D+03

 The electronic state is 1-A.
 Alpha  occ. eigenvalues --  -19.74478 -10.62421  -1.14698  -0.78938  -0.57283
 Alpha  occ. eigenvalues --   -0.53380  -0.49552  -0.40364  -0.35081
 Alpha virt. eigenvalues --    0.01900   0.07905   0.12570   0.12720   0.15146
 Alpha virt. eigenvalues --    0.17281   0.18463   0.25686   0.29370   0.33323
 Alpha virt. eigenvalues --    0.36245   0.38918   0.39849   0.42454   0.45660

 Mulliken charges:
               1
     1  C    0.084855
     2  O   -0.465475
     3  H    0.037876
     4  H    0.038340
     5  H    0.058147
     6  H    0.246257
 Sum of Mulliken charges =   0.00000

 Dipole moment (field-independent basis, Debye):
    X=              0.9598    Y=              1.6504    Z=             -0.3434  Tot=              1.9399
 Quadrupole moment (field-independent basis, Debye-Ang):
   XX=            -13.5513   YY=            -11.5932   ZZ=            -13.7953
   XY=             -2.1676   XZ=              0.1196   YZ=             -0.1947

 Normal termination of Gaussian 09 at Wed Aug 26 23:51:31 2020.
