 Gaussian 09, Revision D.01,
 Gaussian 09:  ES64L-G09RevD.01 24-Apr-2013

 --------------------
 #p B2PLYPD3/Def2QZVP
 --------------------

 --------
 methanol
 --------
 Symbolic Z-matrix:
 Charge =  0 Multiplicity = 1

                         Standard orientation:
 ---------------------------------------------------------------------
 Center     Atomic      Atomic             Coordinates (Angstroms)
 Number     Number       Type             X           Y           Z
 ---------------------------------------------------------------------
      1          6           0        0.681045    0.038672    0.000274
      2          8           0       -0.747675   -0.166119   -0.009132
      3          1           0        0.997438    0.464885    0.817651
      4          1           0        1.017208    0.608657   -0.764158
      5          1           0        1.135779   -0.922233   -0.029900
      6          1           0       -1.255295    0.945613    0.047822
 ---------------------------------------------------------------------

 SCF Done:  E(RB2PLYPD3) =  -115.494120031     A.U. after   11 cycles
 E2(B2PLYPD3) =    -0.1519608084D+00 E(B2PLYPD3) =    -0.11564608083953D+03

 The electronic state is 1-A.
 Alpha  occ. eigenvalues --  -19.74229 -10.62948  -1.11679  -0.79687  -0.55526
 Alpha  occ. eigenvalues --   -0.52804  -0.48654  -0.40439  -0.35269
 Alpha virt. eigenvalues --    0.02121   0.07529   0.12474   0.12998   0.14887
 Alpha virt. eigenvalues --    0.17451   0.18210   0.25888   0.29540   0.33332
 Alpha virt. eigenvalues --    0.33715   0.38878   0.39660   0.43098   0.44067

 Mulliken charges:
               1
     1  C    0.098735
     2  O   -0.506278
     3  H    0.048590
     4  H    0.045985
     5  H    0.062263
     6  H    0.250705
 Sum of Mulliken charges =   0.00000

 Dipole moment (field-independent basis, Debye):
    X=              0.9750    Y=              1.7427    Z=              0.1278  Tot=              2.0010
 Quadrupole moment (field-independent basis, Debye-Ang):
   XX=            -12.6298   YY=            -11.8021   ZZ=            -13.9608
   XY=             -2.4837   XZ=             -0.0797   YZ=              0.0474

 Normal termination of Gaussian 09 at Wed Aug 26 14:14:01 2020.
