 Gaussian 09, Revision D.01,
 Gaussian 09:  ES64L-G09RevD.01 24-Apr-2013

 --------------------
 #p B2PLYPD3/Def2QZVP
 --------------------

 --------
 methanol
 --------
 Symbolic Z-matrix:
 Charge =  0 Multiplicity = 1

                         Standard orientation:
 ---------------------------------------------------------------------
 Center     Atomic      Atomic             Coordinates (Angstroms)
 Number     Number       Type             X           Y           Z
 ---------------------------------------------------------------------
      1          6           0        0.677483   -0.021874   -0.005471
      2          8           0       -0.751841    0.110168    0.000597
      3          1           0        1.036638   -0.543035   -0.887865
      4          1           0        0.985077   -0.544296    0.928480
      5          1           0        1.061262    1.017489    0.007915
      6          1           0       -1.133143   -0.680255   -0.020476
 ---------------------------------------------------------------------

 SCF Done:  E(RB2PLYPD3) =  -115.545377482     A.U. after   10 cycles
 E2(B2PLYPD3) =    -0.1460903892D+00 E(B2PLYPD3) =    -0.11569146787133D+03

 The electronic state is 1-A.
 Alpha  occ. eigenvalues --  -19.71487 -10.66279  -1.17434  -0.79278  -0.59387
 Alpha  occ. eigenvalues --   -0.51918  -0.49614  -0.41142  -0.35584
 Alpha virt. eigenvalues --    0.05297   0.08582   0.12183   0.12280   0.14671
 Alpha virt. eigenvalues --    0.17046   0.17944   0.29103   0.32554   0.33418
 Alpha virt. eigenvalues --    0.37379   0.38642   0.39817   0.40732   0.43370

 Mulliken charges:
               1
     1  C    0.069074
     2  O   -0.430834
     3  H    0.054344
     4  H    0.050782
     5  H    0.073784
     6  H    0.182850
 Sum of Mulliken charges =   0.00000

 Dipole moment (field-independent basis, Debye):
    X=              0.9363    Y=             -1.4321    Z=             -0.0601  Tot=              1.7120
 Quadrupole moment (field-independent basis, Debye-Ang):
   XX=            -13.0735   YY=            -12.3048   ZZ=            -13.6457
   XY=              2.1575   XZ=             -0.0289   YZ=              0.0613

 Normal termination of Gaussian 09 at Wed Aug 26 23:59:25 2020.
