 Gaussian 09, Revision D.01,
 Gaussian 09:  ES64L-G09RevD.01 24-Apr-2013

 --------------------
 #p B2PLYPD3/Def2QZVP
 --------------------

 --------
 methanol
 --------
 Symbolic Z-matrix:
 Charge =  0 Multiplicity = 1

                         Standard orientation:
 ---------------------------------------------------------------------
 Center     Atomic      Atomic             Coordinates (Angstroms)
 Number     Number       Type             X           Y           Z
 ---------------------------------------------------------------------
      1          6           0        0.665084    0.007843    0.006119
      2          8           0       -0.762391   -0.086923   -0.038545
      3          1           0        1.034536    0.160916    1.067432
      4          1           0        1.028315    0.887458   -0.720284
      5          1           0        1.114618   -0.947168   -0.322344
      6          1           0       -1.068844    0.547116    0.246840
 ---------------------------------------------------------------------

 SCF Done:  E(RB2PLYPD3) =  -115.485430409     A.U. after   10 cycles
 E2(B2PLYPD3) =    -0.1448349319D+00 E(B2PLYPD3) =    -0.11563026534124D+03

 The electronic state is 1-A.
 Alpha  occ. eigenvalues --  -19.70727 -10.67926  -1.21828  -0.80024  -0.60693
 Alpha  occ. eigenvalues --   -0.51228  -0.50510  -0.41338  -0.35913
 Alpha virt. eigenvalues --    0.05358   0.08887   0.11655   0.12344   0.14309
 Alpha virt. eigenvalues --    0.17313   0.17975   0.28632   0.32187   0.33015
 Alpha virt. eigenvalues --    0.36150   0.38478   0.39693   0.40142   0.43313

 Mulliken charges:
               1
     1  C    0.057371
     2  O   -0.312885
     3  H    0.050832
     4  H    0.043930
     5  H    0.080375
     6  H    0.080377
 Sum of Mulliken charges =   0.00000

 Dipole moment (field-independent basis, Debye):
    X=              1.0002    Y=              1.1110    Z=              0.5825  Tot=              1.6044
 Quadrupole moment (field-independent basis, Debye-Ang):
   XX=            -13.2133   YY=            -12.6711   ZZ=            -13.4491
   XY=             -1.9790   XZ=             -0.7419   YZ=              0.3454

 Normal termination of Gaussian 09 at Wed Aug 26 13:50:57 2020.
