 Gaussian 09, Revision D.01,
 Gaussian 09:  ES64L-G09RevD.01 24-Apr-2013

 --------------------
 #p B2PLYPD3/Def2QZVP
 --------------------

 --------
 methanol
 --------
 Symbolic Z-matrix:
 Charge =  0 Multiplicity = 1

                         Standard orientation:
 ---------------------------------------------------------------------
 Center     Atomic      Atomic             Coordinates (Angstroms)
 Number     Number       Type             X           Y           Z
 ---------------------------------------------------------------------
      1          6           0        0.685214    0.037628   -0.006287
      2          8           0       -0.732545   -0.193335    0.006633
      3          1           0        1.178933    0.366627    0.765787
      4          1           0        0.835309    0.647765   -0.730074
      5          1           0        0.977699   -0.846659   -0.131367
      6          1           0       -1.242866    1.153178    0.080312
 ---------------------------------------------------------------------

 SCF Done:  E(RB2PLYPD3) =  -115.407252467     A.U. after   12 cycles
 E2(B2PLYPD3) =    -0.1569462194D+00 E(B2PLYPD3) =    -0.11556419868638D+03

 The electronic state is 1-A.
 Alpha  occ. eigenvalues --  -19.75372 -10.60883  -1.11330  -0.80775  -0.56933
 Alpha  occ. eigenvalues --   -0.53675  -0.47458  -0.39447  -0.35195
 Alpha virt. eigenvalues --   -0.01933   0.07560   0.12386   0.13061   0.14696
 Alpha virt. eigenvalues --    0.16837   0.18474   0.21878   0.29325   0.31668
 Alpha virt. eigenvalues --    0.34492   0.38957   0.39447   0.44320   0.45362

 Mulliken charges:
               1
     1  C    0.094282
     2  O   -0.476305
     3  H    0.040570
     4  H    0.046911
     5  H    0.076027
     6  H    0.218516
 Sum of Mulliken charges =   0.00000

 Dipole moment (field-independent basis, Debye):
    X=              1.1785    Y=              1.7004    Z=              0.0628  Tot=              2.0698
 Quadrupole moment (field-independent basis, Debye-Ang):
   XX=            -13.0413   YY=            -11.2565   ZZ=            -14.0031
   XY=             -2.3912   XZ=              0.1276   YZ=              0.0450

 Normal termination of Gaussian 09 at Wed Aug 26 23:47:27 2020.
