 Gaussian 09, Revision D.01,
 Gaussian 09:  ES64L-G09RevD.01 24-Apr-2013

 --------------------
 #p B2PLYPD3/Def2QZVP
 --------------------

 --------
 methanol
 --------
 Symbolic Z-matrix:
 Charge =  0 Multiplicity = 1

                         Standard orientation:
 ---------------------------------------------------------------------
 Center     Atomic      Atomic             Coordinates (Angstroms)
 Number     Number       Type             X           Y           Z
 ---------------------------------------------------------------------
      1          6           0        0.672188   -0.034089    0.026214
      2          8           0       -0.777959   -0.017110   -0.079392
      3          1           0        1.038037   -0.600001    0.876910
      4          1           0        1.094756    1.222430    0.021781
      5          1           0        1.116685   -0.451373   -0.909891
      6          1           0       -1.058939    0.170359    0.489057
 ---------------------------------------------------------------------

 SCF Done:  E(RB2PLYPD3) =  -115.345163383     A.U. after   11 cycles
 E2(B2PLYPD3) =    -0.1444879646D+00 E(B2PLYPD3) =    -0.11548965134738D+03

 The electronic state is 1-A.
 Alpha  occ. eigenvalues --  -19.69858 -10.69274  -1.25737  -0.81285  -0.62021
 Alpha  occ. eigenvalues --   -0.51133  -0.49778  -0.42042  -0.35803
 Alpha virt. eigenvalues --    0.05105   0.08964   0.10833   0.12129   0.14192
 Alpha virt. eigenvalues --    0.17185   0.18182   0.28167   0.30472   0.31692
 Alpha virt. eigenvalues --    0.34659   0.38033   0.39869   0.40674   0.43268

 Mulliken charges:
               1
     1  C    0.050614
     2  O   -0.227376
     3  H    0.070468
     4  H    0.027662
     5  H    0.086295
     6  H   -0.007664
 Sum of Mulliken charges =   0.00000

 Dipole moment (field-independent basis, Debye):
    X=              1.0807    Y=              0.0821    Z=              1.1544  Tot=              1.5834
 Quadrupole moment (field-independent basis, Debye-Ang):
   XX=            -13.2010   YY=            -13.5643   ZZ=            -12.6409
   XY=             -0.9584   XZ=             -1.8095   YZ=              0.1209

 Normal termination of Gaussian 09 at Wed Aug 26 21:40:29 2020.
