 Gaussian 09, Revision D.01,
 Gaussian 09:  ES64L-G09RevD.01 24-Apr-2013

 --------------------
 #p B2PLYPD3/Def2QZVP
 --------------------

 --------
 methanol
 --------
 Symbolic Z-matrix:
 Charge =  0 Multiplicity = 1

                         Standard orientation:
 ---------------------------------------------------------------------
 Center     Atomic      Atomic             Coordinates (Angstroms)
 Number     Number       Type             X           Y           Z
 ---------------------------------------------------------------------
      1          6           0        0.684284    0.046474    0.001439
      2          8           0       -0.719441   -0.205150    0.012893
      3          1           0        0.983236    0.547263    0.738203
      4          1           0        1.049861    0.504550   -0.674899
      5          1           0        0.965265   -0.873273   -0.079991
      6          1           0       -1.348534    1.183812   -0.095088
 ---------------------------------------------------------------------

 SCF Done:  E(RB2PLYPD3) =  -115.365714880     A.U. after   12 cycles
 E2(B2PLYPD3) =    -0.1584884059D+00 E(B2PLYPD3) =    -0.11552420328589D+03

 The electronic state is 1-A.
 Alpha  occ. eigenvalues --  -19.75720 -10.60079  -1.11429  -0.82065  -0.57386
 Alpha  occ. eigenvalues --   -0.53844  -0.47634  -0.38497  -0.35442
 Alpha virt. eigenvalues --   -0.03474   0.07454   0.12214   0.13403   0.14949
 Alpha virt. eigenvalues --    0.16835   0.18186   0.21147   0.29533   0.33493
 Alpha virt. eigenvalues --    0.34417   0.37610   0.39161   0.44659   0.46701

 Mulliken charges:
               1
     1  C    0.088130
     2  O   -0.466646
     3  H    0.047986
     4  H    0.057372
     5  H    0.071511
     6  H    0.201647
 Sum of Mulliken charges =   0.00000

 Dipole moment (field-independent basis, Debye):
    X=              1.1569    Y=              1.7312    Z=             -0.1985  Tot=              2.0916
 Quadrupole moment (field-independent basis, Debye-Ang):
   XX=            -12.7261   YY=            -11.1985   ZZ=            -14.0665
   XY=             -2.2703   XZ=              0.0361   YZ=             -0.0447

 Normal termination of Gaussian 09 at Wed Aug 26 21:35:53 2020.
