 Gaussian 09, Revision D.01,
 Gaussian 09:  ES64L-G09RevD.01 24-Apr-2013

 --------------------
 #p B2PLYPD3/Def2QZVP
 --------------------

 --------
 methanol
 --------
 Symbolic Z-matrix:
 Charge =  0 Multiplicity = 1

                         Standard orientation:
 ---------------------------------------------------------------------
 Center     Atomic      Atomic             Coordinates (Angstroms)
 Number     Number       Type             X           Y           Z
 ---------------------------------------------------------------------
      1          6           0       -0.663182    0.019250    0.011367
      2          8           0        0.747773   -0.143177   -0.014580
      3          1           0       -1.045519    0.629978   -0.815092
      4          1           0       -0.984960    0.475623    0.849825
      5          1           0       -1.132954   -0.936669   -0.044217
      6          1           0        1.160341    0.860978    0.057917
 ---------------------------------------------------------------------

 SCF Done:  E(RB2PLYPD3) =  -115.532870109     A.U. after   11 cycles
 E2(B2PLYPD3) =    -0.1493464016D+00 E(B2PLYPD3) =    -0.11568221651032D+03

 The electronic state is 1-A.
 Alpha  occ. eigenvalues --  -19.73614 -10.64280  -1.14052  -0.78815  -0.57344
 Alpha  occ. eigenvalues --   -0.51773  -0.49771  -0.41083  -0.35124
 Alpha virt. eigenvalues --    0.03864   0.07823   0.12531   0.12704   0.14951
 Alpha virt. eigenvalues --    0.17672   0.18071   0.29050   0.30421   0.33366
 Alpha virt. eigenvalues --    0.33943   0.39254   0.39656   0.41480   0.44263

 Mulliken charges:
               1
     1  C    0.084518
     2  O   -0.485692
     3  H    0.037814
     4  H    0.046773
     5  H    0.066590
     6  H    0.249996
 Sum of Mulliken charges =   0.00000

 Dipole moment (field-independent basis, Debye):
    X=             -0.9134    Y=              1.6317    Z=              0.1994  Tot=              1.8805
 Quadrupole moment (field-independent basis, Debye-Ang):
   XX=            -12.9456   YY=            -11.9673   ZZ=            -13.9439
   XY=              2.3902   XZ=              0.1053   YZ=              0.1418

 Normal termination of Gaussian 09 at Wed Aug 26 23:57:12 2020.
