 Gaussian 09, Revision D.01,
 Gaussian 09:  ES64L-G09RevD.01 24-Apr-2013

 --------------------
 #p B2PLYPD3/Def2QZVP
 --------------------

 --------
 methanol
 --------
 Symbolic Z-matrix:
 Charge =  0 Multiplicity = 1

                         Standard orientation:
 ---------------------------------------------------------------------
 Center     Atomic      Atomic             Coordinates (Angstroms)
 Number     Number       Type             X           Y           Z
 ---------------------------------------------------------------------
      1          6           0        0.665381    0.037644   -0.016940
      2          8           0       -0.736987   -0.184239   -0.002763
      3          1           0        0.948777    0.425639    0.817490
      4          1           0        1.021741    0.592804   -0.660558
      5          1           0        1.060560   -0.908213   -0.039658
      6          1           0       -1.127468    1.137816    0.006471
 ---------------------------------------------------------------------

 SCF Done:  E(RB2PLYPD3) =  -115.428391998     A.U. after   11 cycles
 E2(B2PLYPD3) =    -0.1551659317D+00 E(B2PLYPD3) =    -0.11558355792996D+03

 The electronic state is 1-A.
 Alpha  occ. eigenvalues --  -19.75248 -10.61116  -1.12072  -0.80805  -0.56431
 Alpha  occ. eigenvalues --   -0.53558  -0.48325  -0.40003  -0.35282
 Alpha virt. eigenvalues --   -0.00892   0.07625   0.12292   0.13171   0.14840
 Alpha virt. eigenvalues --    0.17401   0.18296   0.22593   0.29673   0.33395
 Alpha virt. eigenvalues --    0.34689   0.38664   0.39451   0.43406   0.46187

 Mulliken charges:
               1
     1  C    0.111987
     2  O   -0.477313
     3  H    0.041291
     4  H    0.041720
     5  H    0.053866
     6  H    0.228449
 Sum of Mulliken charges =   0.00000

 Dipole moment (field-independent basis, Debye):
    X=              1.2058    Y=              1.8012    Z=              0.0217  Tot=              2.1677
 Quadrupole moment (field-independent basis, Debye-Ang):
   XX=            -13.4090   YY=            -11.1501   ZZ=            -13.9895
   XY=             -2.1414   XZ=             -0.0566   YZ=             -0.0657

 Normal termination of Gaussian 09 at Wed Aug 26 22:24:36 2020.
