 Gaussian 09, Revision D.01,
 Gaussian 09:  ES64L-G09RevD.01 24-Apr-2013

 --------------------
 #p B2PLYPD3/Def2QZVP
 --------------------

 --------
 methanol
 --------
 Symbolic Z-matrix:
 Charge =  0 Multiplicity = 1

                         Standard orientation:
 ---------------------------------------------------------------------
 Center     Atomic      Atomic             Coordinates (Angstroms)
 Number     Number       Type             X           Y           Z
 ---------------------------------------------------------------------
      1          6           0        0.657480    0.013987   -0.008523
      2          8           0       -0.743598   -0.137556    0.003881
      3          1           0        1.045544    0.533049    0.891861
      4          1           0        1.031403    0.548882   -0.853184
      5          1           0        1.099368   -0.912761   -0.007742
      6          1           0       -1.172408    0.847357   -0.010844
 ---------------------------------------------------------------------

 SCF Done:  E(RB2PLYPD3) =  -115.537687512     A.U. after   11 cycles
 E2(B2PLYPD3) =    -0.1490354238D+00 E(B2PLYPD3) =    -0.11568672293599D+03

 The electronic state is 1-A.
 Alpha  occ. eigenvalues --  -19.73587 -10.64590  -1.14591  -0.78586  -0.57424
 Alpha  occ. eigenvalues --   -0.51387  -0.50515  -0.40898  -0.35001
 Alpha virt. eigenvalues --    0.04004   0.07842   0.12524   0.12773   0.14928
 Alpha virt. eigenvalues --    0.17537   0.18275   0.29031   0.30830   0.33303
 Alpha virt. eigenvalues --    0.34358   0.38929   0.40627   0.40936   0.43685

 Mulliken charges:
               1
     1  C    0.074882
     2  O   -0.478581
     3  H    0.038510
     4  H    0.043557
     5  H    0.070372
     6  H    0.251260
 Sum of Mulliken charges =   0.00000

 Dipole moment (field-independent basis, Debye):
    X=              0.8278    Y=              1.5573    Z=             -0.0663  Tot=              1.7649
 Quadrupole moment (field-independent basis, Debye-Ang):
   XX=            -12.8812   YY=            -12.0931   ZZ=            -13.9295
   XY=             -2.4582   XZ=             -0.0126   YZ=             -0.0624

 Normal termination of Gaussian 09 at Thu Aug 27 00:14:25 2020.
