 Gaussian 09, Revision D.01,
 Gaussian 09:  ES64L-G09RevD.01 24-Apr-2013

 --------------------
 #p B2PLYPD3/Def2QZVP
 --------------------

 --------
 methanol
 --------
 Symbolic Z-matrix:
 Charge =  0 Multiplicity = 1

                         Standard orientation:
 ---------------------------------------------------------------------
 Center     Atomic      Atomic             Coordinates (Angstroms)
 Number     Number       Type             X           Y           Z
 ---------------------------------------------------------------------
      1          6           0       -0.655017   -0.020107    0.011908
      2          8           0        0.749212    0.089183   -0.006469
      3          1           0       -1.019665   -0.556787    0.918495
      4          1           0       -1.122781   -0.571161   -0.913740
      5          1           0       -1.073856    1.095602   -0.010953
      6          1           0        1.152704   -0.560475   -0.013498
 ---------------------------------------------------------------------

 SCF Done:  E(RB2PLYPD3) =  -115.485864634     A.U. after   10 cycles
 E2(B2PLYPD3) =    -0.1448075094D+00 E(B2PLYPD3) =    -0.11563067214372D+03

 The electronic state is 1-A.
 Alpha  occ. eigenvalues --  -19.70791 -10.68274  -1.21783  -0.80396  -0.61629
 Alpha  occ. eigenvalues --   -0.51258  -0.49643  -0.40320  -0.35816
 Alpha virt. eigenvalues --    0.05350   0.08780   0.11740   0.12176   0.14892
 Alpha virt. eigenvalues --    0.16912   0.17959   0.28897   0.32866   0.33613
 Alpha virt. eigenvalues --    0.36091   0.37989   0.39680   0.40056   0.41888

 Mulliken charges:
               1
     1  C    0.051484
     2  O   -0.306409
     3  H    0.055882
     4  H    0.043742
     5  H    0.071550
     6  H    0.083751
 Sum of Mulliken charges =   0.00000

 Dipole moment (field-independent basis, Debye):
    X=             -0.7422    Y=             -1.3013    Z=              0.0461  Tot=              1.4988
 Quadrupole moment (field-independent basis, Debye-Ang):
   XX=            -12.8254   YY=            -12.5887   ZZ=            -13.7996
   XY=             -1.9497   XZ=             -0.0020   YZ=             -0.0635

 Normal termination of Gaussian 09 at Wed Aug 26 15:31:59 2020.
