 Gaussian 09, Revision D.01,
 Gaussian 09:  ES64L-G09RevD.01 24-Apr-2013

 --------------------
 #p B2PLYPD3/Def2QZVP
 --------------------

 --------
 methanol
 --------
 Symbolic Z-matrix:
 Charge =  0 Multiplicity = 1

                         Standard orientation:
 ---------------------------------------------------------------------
 Center     Atomic      Atomic             Coordinates (Angstroms)
 Number     Number       Type             X           Y           Z
 ---------------------------------------------------------------------
      1          6           0       -0.664908   -0.014579   -0.002837
      2          8           0        0.752222    0.103514   -0.011013
      3          1           0       -0.995421   -0.486212    0.974303
      4          1           0       -1.024245   -0.632702   -0.888861
      5          1           0       -1.118521    1.002049   -0.041527
      6          1           0        1.109859   -0.623771    0.061212
 ---------------------------------------------------------------------

 SCF Done:  E(RB2PLYPD3) =  -115.523197018     A.U. after   10 cycles
 E2(B2PLYPD3) =    -0.1451903603D+00 E(B2PLYPD3) =    -0.11566838737808D+03

 The electronic state is 1-A.
 Alpha  occ. eigenvalues --  -19.71079 -10.67220  -1.19880  -0.79638  -0.60275
 Alpha  occ. eigenvalues --   -0.51545  -0.50428  -0.40966  -0.35646
 Alpha virt. eigenvalues --    0.05371   0.08770   0.11980   0.12342   0.14488
 Alpha virt. eigenvalues --    0.17297   0.17873   0.28917   0.32924   0.32993
 Alpha virt. eigenvalues --    0.37022   0.39245   0.39636   0.39747   0.43281

 Mulliken charges:
               1
     1  C    0.064165
     2  O   -0.370746
     3  H    0.046137
     4  H    0.048775
     5  H    0.076935
     6  H    0.134734
 Sum of Mulliken charges =   0.00000

 Dipole moment (field-independent basis, Debye):
    X=             -0.9085    Y=             -1.3253    Z=              0.1432  Tot=              1.6131
 Quadrupole moment (field-independent basis, Debye-Ang):
   XX=            -13.0780   YY=            -12.4715   ZZ=            -13.6522
   XY=             -2.1701   XZ=              0.2107   YZ=             -0.0542

 Normal termination of Gaussian 09 at Wed Aug 26 23:59:49 2020.
