 Gaussian 09, Revision D.01,
 Gaussian 09:  ES64L-G09RevD.01 24-Apr-2013

 --------------------
 #p B2PLYPD3/Def2QZVP
 --------------------

 --------
 methanol
 --------
 Symbolic Z-matrix:
 Charge =  0 Multiplicity = 1

                         Standard orientation:
 ---------------------------------------------------------------------
 Center     Atomic      Atomic             Coordinates (Angstroms)
 Number     Number       Type             X           Y           Z
 ---------------------------------------------------------------------
      1          6           0        0.668357   -0.029793   -0.012976
      2          8           0       -0.761445    0.051589    0.009943
      3          1           0        1.007445   -0.696280   -0.854727
      4          1           0        1.152966   -0.412753    0.981540
      5          1           0        0.938799    1.278620   -0.147594
      6          1           0       -1.017790   -0.403538    0.019087
 ---------------------------------------------------------------------

 SCF Done:  E(RB2PLYPD3) =  -114.887710108     A.U. after   12 cycles
 E2(B2PLYPD3) =    -0.1436664380D+00 E(B2PLYPD3) =    -0.11503137654562D+03

 The electronic state is 1-A.
 Alpha  occ. eigenvalues --  -19.68754 -10.70418  -1.33103  -0.83373  -0.63422
 Alpha  occ. eigenvalues --   -0.51901  -0.48468  -0.40568  -0.37059
 Alpha virt. eigenvalues --    0.04583   0.09269   0.10495   0.11867   0.14795
 Alpha virt. eigenvalues --    0.16359   0.17613   0.27986   0.30065   0.33160
 Alpha virt. eigenvalues --    0.33296   0.36916   0.38967   0.41464   0.41913

 Mulliken charges:
               1
     1  C    0.034337
     2  O   -0.054866
     3  H    0.068033
     4  H    0.062384
     5  H    0.065337
     6  H   -0.175226
 Sum of Mulliken charges =   0.00000

 Dipole moment (field-independent basis, Debye):
    X=              1.0294    Y=             -1.2359    Z=             -0.0009  Tot=              1.6085
 Quadrupole moment (field-independent basis, Debye-Ang):
   XX=            -13.4003   YY=            -12.2900   ZZ=            -13.4953
   XY=              1.2727   XZ=              0.0930   YZ=              0.0801

 Normal termination of Gaussian 09 at Wed Aug 26 21:19:11 2020.
