 Gaussian 09, Revision D.01,
 Gaussian 09:  ES64L-G09RevD.01 24-Apr-2013

 --------------------
 #p B2PLYPD3/Def2QZVP
 --------------------

 --------
 methanol
 --------
 Symbolic Z-matrix:
 Charge =  0 Multiplicity = 1

                         Standard orientation:
 ---------------------------------------------------------------------
 Center     Atomic      Atomic             Coordinates (Angstroms)
 Number     Number       Type             X           Y           Z
 ---------------------------------------------------------------------
      1          6           0        0.655414    0.018091    0.001435
      2          8           0       -0.757504   -0.036396    0.029936
      3          1           0        1.045576    1.160673    0.069043
      4          1           0        1.240978   -0.588938   -0.967782
      5          1           0        0.950343   -0.585562    0.983821
      6          1           0       -1.109349    0.196448   -0.333175
 ---------------------------------------------------------------------

 SCF Done:  E(RB2PLYPD3) =  -115.043566589     A.U. after   11 cycles
 E2(B2PLYPD3) =    -0.1439358734D+00 E(B2PLYPD3) =    -0.11518750246291D+03

 The electronic state is 1-A.
 Alpha  occ. eigenvalues --  -19.68959 -10.71107  -1.30944  -0.84540  -0.61952
 Alpha  occ. eigenvalues --   -0.51020  -0.49944  -0.39846  -0.36309
 Alpha virt. eigenvalues --    0.04931   0.09037   0.11286   0.11552   0.14353
 Alpha virt. eigenvalues --    0.16354   0.18152   0.28219   0.31377   0.32708
 Alpha virt. eigenvalues --    0.33549   0.36724   0.37310   0.41017   0.42263

 Mulliken charges:
               1
     1  C    0.034441
     2  O   -0.086986
     3  H    0.055312
     4  H    0.043432
     5  H    0.088670
     6  H   -0.134868
 Sum of Mulliken charges =   0.00000

 Dipole moment (field-independent basis, Debye):
    X=              0.8078    Y=              0.5886    Z=             -0.7328  Tot=              1.2394
 Quadrupole moment (field-independent basis, Debye-Ang):
   XX=            -12.9227   YY=            -13.2135   ZZ=            -13.0952
   XY=             -0.9203   XZ=              1.3325   YZ=             -0.3645

 Normal termination of Gaussian 09 at Wed Aug 26 18:59:54 2020.
