 Gaussian 09, Revision D.01,
 Gaussian 09:  ES64L-G09RevD.01 24-Apr-2013

 --------------------
 #p B2PLYPD3/Def2QZVP
 --------------------

 --------
 methanol
 --------
 Symbolic Z-matrix:
 Charge =  0 Multiplicity = 1

                         Standard orientation:
 ---------------------------------------------------------------------
 Center     Atomic      Atomic             Coordinates (Angstroms)
 Number     Number       Type             X           Y           Z
 ---------------------------------------------------------------------
      1          6           0       -0.664920   -0.023901    0.002932
      2          8           0        0.748556    0.133583   -0.008370
      3          1           0       -0.997711   -0.453407    0.903978
      4          1           0       -1.008784   -0.601040   -0.845895
      5          1           0       -1.099788    0.950122   -0.054395
      6          1           0        1.107357   -0.820930    0.045679
 ---------------------------------------------------------------------

 SCF Done:  E(RB2PLYPD3) =  -115.547003003     A.U. after   10 cycles
 E2(B2PLYPD3) =    -0.1482451072D+00 E(B2PLYPD3) =    -0.11569524810980D+03

 The electronic state is 1-A.
 Alpha  occ. eigenvalues --  -19.73039 -10.64726  -1.15082  -0.78669  -0.57749
 Alpha  occ. eigenvalues --   -0.52431  -0.49674  -0.41184  -0.35389
 Alpha virt. eigenvalues --    0.04534   0.08137   0.12380   0.12587   0.14734
 Alpha virt. eigenvalues --    0.17521   0.18155   0.29097   0.32269   0.33372
 Alpha virt. eigenvalues --    0.34124   0.39097   0.40244   0.41692   0.44171

 Mulliken charges:
               1
     1  C    0.075892
     2  O   -0.474200
     3  H    0.048835
     4  H    0.045514
     5  H    0.065995
     6  H    0.237964
 Sum of Mulliken charges =   0.00000

 Dipole moment (field-independent basis, Debye):
    X=             -0.9717    Y=             -1.5682    Z=              0.1159  Tot=              1.8484
 Quadrupole moment (field-independent basis, Debye-Ang):
   XX=            -13.2053   YY=            -12.0767   ZZ=            -13.7392
   XY=             -2.2872   XZ=              0.1001   YZ=             -0.0662

 Normal termination of Gaussian 09 at Thu Aug 27 00:02:30 2020.
