 Gaussian 09, Revision D.01,
 Gaussian 09:  ES64L-G09RevD.01 24-Apr-2013

 --------------------
 #p B2PLYPD3/Def2QZVP
 --------------------

 --------
 methanol
 --------
 Symbolic Z-matrix:
 Charge =  0 Multiplicity = 1

                         Standard orientation:
 ---------------------------------------------------------------------
 Center     Atomic      Atomic             Coordinates (Angstroms)
 Number     Number       Type             X           Y           Z
 ---------------------------------------------------------------------
      1          6           0       -0.670041    0.012358   -0.001639
      2          8           0        0.743241   -0.129949   -0.004381
      3          1           0       -1.044062    0.561608   -0.854249
      4          1           0       -1.027276    0.507553    0.883103
      5          1           0       -1.006693   -0.949317   -0.007548
      6          1           0        1.152351    0.845603    0.023572
 ---------------------------------------------------------------------

 SCF Done:  E(RB2PLYPD3) =  -115.539955069     A.U. after   11 cycles
 E2(B2PLYPD3) =    -0.1488273598D+00 E(B2PLYPD3) =    -0.11568878242924D+03

 The electronic state is 1-A.
 Alpha  occ. eigenvalues --  -19.73204 -10.64346  -1.14393  -0.78748  -0.57788
 Alpha  occ. eigenvalues --   -0.51631  -0.49808  -0.41378  -0.35069
 Alpha virt. eigenvalues --    0.04225   0.08043   0.12518   0.12596   0.15037
 Alpha virt. eigenvalues --    0.17045   0.18163   0.29099   0.31749   0.33428
 Alpha virt. eigenvalues --    0.34061   0.38794   0.40279   0.41244   0.43951

 Mulliken charges:
               1
     1  C    0.074387
     2  O   -0.481635
     3  H    0.045086
     4  H    0.044383
     5  H    0.074134
     6  H    0.243644
 Sum of Mulliken charges =   0.00000

 Dipole moment (field-independent basis, Debye):
    X=             -0.9026    Y=              1.5547    Z=              0.0546  Tot=              1.7985
 Quadrupole moment (field-independent basis, Debye-Ang):
   XX=            -13.0869   YY=            -11.9324   ZZ=            -13.8497
   XY=              2.2951   XZ=              0.0639   YZ=              0.0205

 Normal termination of Gaussian 09 at Wed Aug 26 10:40:03 2020.
