 Gaussian 09, Revision D.01,
 Gaussian 09:  ES64L-G09RevD.01 24-Apr-2013

 --------------------
 #p B2PLYPD3/Def2QZVP
 --------------------

 --------
 methanol
 --------
 Symbolic Z-matrix:
 Charge =  0 Multiplicity = 1

                         Standard orientation:
 ---------------------------------------------------------------------
 Center     Atomic      Atomic             Coordinates (Angstroms)
 Number     Number       Type             X           Y           Z
 ---------------------------------------------------------------------
      1          6           0        0.668744    0.017751    0.003923
      2          8           0       -0.743334   -0.136900   -0.002754
      3          1           0        1.060993    0.470258    0.877384
      4          1           0        0.994663    0.624652   -0.835864
      5          1           0        1.079791   -0.935180   -0.080355
      6          1           0       -1.201236    0.828963    0.037332
 ---------------------------------------------------------------------

 SCF Done:  E(RB2PLYPD3) =  -115.539615757     A.U. after   11 cycles
 E2(B2PLYPD3) =    -0.1489442982D+00 E(B2PLYPD3) =    -0.11568856005530D+03

 The electronic state is 1-A.
 Alpha  occ. eigenvalues --  -19.73285 -10.64507  -1.14085  -0.78690  -0.57427
 Alpha  occ. eigenvalues --   -0.51590  -0.50029  -0.40868  -0.35025
 Alpha virt. eigenvalues --    0.04117   0.07882   0.12592   0.12647   0.14964
 Alpha virt. eigenvalues --    0.17296   0.18156   0.29160   0.31175   0.33296
 Alpha virt. eigenvalues --    0.34032   0.39071   0.40051   0.41462   0.43923

 Mulliken charges:
               1
     1  C    0.078211
     2  O   -0.487361
     3  H    0.047340
     4  H    0.041435
     5  H    0.071855
     6  H    0.248520
 Sum of Mulliken charges =   0.00000

 Dipole moment (field-independent basis, Debye):
    X=              0.8408    Y=              1.5719    Z=              0.0816  Tot=              1.7845
 Quadrupole moment (field-independent basis, Debye-Ang):
   XX=            -12.7899   YY=            -12.0695   ZZ=            -13.9061
   XY=             -2.4325   XZ=             -0.0233   YZ=              0.0765

 Normal termination of Gaussian 09 at Wed Aug 26 10:43:36 2020.
