 Gaussian 09, Revision D.01,
 Gaussian 09:  ES64L-G09RevD.01 24-Apr-2013

 --------------------
 #p B2PLYPD3/Def2QZVP
 --------------------

 --------
 methanol
 --------
 Symbolic Z-matrix:
 Charge =  0 Multiplicity = 1

                         Standard orientation:
 ---------------------------------------------------------------------
 Center     Atomic      Atomic             Coordinates (Angstroms)
 Number     Number       Type             X           Y           Z
 ---------------------------------------------------------------------
      1          6           0       -0.688545   -0.033858    0.049130
      2          8           0        0.772148    0.040164   -0.050879
      3          1           0       -0.927626    0.018725    1.116533
      4          1           0       -1.145477   -0.990337   -0.627194
      5          1           0       -1.169630    1.067607   -0.543365
      6          1           0        1.196822   -0.214160    0.166282
 ---------------------------------------------------------------------

 SCF Done:  E(RB2PLYPD3) =  -114.951289046     A.U. after   12 cycles
 E2(B2PLYPD3) =    -0.1447072990D+00 E(B2PLYPD3) =    -0.11509599634496D+03

 The electronic state is 1-A.
 Alpha  occ. eigenvalues --  -19.67605 -10.72217  -1.29457  -0.84278  -0.62140
 Alpha  occ. eigenvalues --   -0.51750  -0.47893  -0.38286  -0.36443
 Alpha virt. eigenvalues --    0.04383   0.09466   0.10286   0.11353   0.13506
 Alpha virt. eigenvalues --    0.16609   0.17967   0.28293   0.29333   0.31122
 Alpha virt. eigenvalues --    0.32174   0.34524   0.39941   0.41124   0.42096

 Mulliken charges:
               1
     1  C    0.058853
     2  O   -0.128670
     3  H    0.085440
     4  H    0.070441
     5  H    0.067614
     6  H   -0.153678
 Sum of Mulliken charges =   0.00000

 Dipole moment (field-independent basis, Debye):
    X=             -1.0307    Y=             -0.7280    Z=              0.7614  Tot=              1.4738
 Quadrupole moment (field-independent basis, Debye-Ang):
   XX=            -12.4647   YY=            -13.2572   ZZ=            -13.0464
   XY=             -1.1116   XZ=              1.0168   YZ=             -0.0303

 Normal termination of Gaussian 09 at Wed Aug 26 21:47:46 2020.
