 Gaussian 09, Revision D.01,
 Gaussian 09:  ES64L-G09RevD.01 24-Apr-2013

 --------------------
 #p B2PLYPD3/Def2QZVP
 --------------------

 --------
 methanol
 --------
 Symbolic Z-matrix:
 Charge =  0 Multiplicity = 1

                         Standard orientation:
 ---------------------------------------------------------------------
 Center     Atomic      Atomic             Coordinates (Angstroms)
 Number     Number       Type             X           Y           Z
 ---------------------------------------------------------------------
      1          6           0       -0.675204   -0.024372    0.018118
      2          8           0        0.751895    0.105269   -0.022103
      3          1           0       -0.986469   -0.417049    0.912745
      4          1           0       -1.051326   -0.667318   -0.852744
      5          1           0       -1.038639    1.058544   -0.093537
      6          1           0        1.112496   -0.670097    0.101649
 ---------------------------------------------------------------------

 SCF Done:  E(RB2PLYPD3) =  -115.536334496     A.U. after   10 cycles
 E2(B2PLYPD3) =    -0.1459881052D+00 E(B2PLYPD3) =    -0.11568232260069D+03

 The electronic state is 1-A.
 Alpha  occ. eigenvalues --  -19.71458 -10.66347  -1.18025  -0.79420  -0.60083
 Alpha  occ. eigenvalues --   -0.52018  -0.48983  -0.41336  -0.35740
 Alpha virt. eigenvalues --    0.05269   0.08662   0.11940   0.12251   0.14896
 Alpha virt. eigenvalues --    0.16945   0.17914   0.29076   0.32654   0.33276
 Alpha virt. eigenvalues --    0.37323   0.37784   0.39590   0.41241   0.43758

 Mulliken charges:
               1
     1  C    0.067908
     2  O   -0.416316
     3  H    0.059969
     4  H    0.047133
     5  H    0.069396
     6  H    0.171909
 Sum of Mulliken charges =   0.00000

 Dipole moment (field-independent basis, Debye):
    X=             -0.9357    Y=             -1.4338    Z=              0.3339  Tot=              1.7444
 Quadrupole moment (field-independent basis, Debye-Ang):
   XX=            -13.1892   YY=            -12.2689   ZZ=            -13.6367
   XY=             -2.0107   XZ=              0.2271   YZ=             -0.2118

 Normal termination of Gaussian 09 at Wed Aug 26 11:56:54 2020.
