 Gaussian 09, Revision D.01,
 Gaussian 09:  ES64L-G09RevD.01 24-Apr-2013

 --------------------
 #p B2PLYPD3/Def2QZVP
 --------------------

 --------
 methanol
 --------
 Symbolic Z-matrix:
 Charge =  0 Multiplicity = 1

                         Standard orientation:
 ---------------------------------------------------------------------
 Center     Atomic      Atomic             Coordinates (Angstroms)
 Number     Number       Type             X           Y           Z
 ---------------------------------------------------------------------
      1          6           0       -0.656275   -0.026632   -0.004991
      2          8           0        0.740605    0.140505    0.006010
      3          1           0       -1.019620   -0.562221    0.848279
      4          1           0       -1.020548   -0.528053   -0.833151
      5          1           0       -1.110993    0.965366    0.000831
      6          1           0        1.163975   -0.839346   -0.034095
 ---------------------------------------------------------------------

 SCF Done:  E(RB2PLYPD3) =  -115.539323201     A.U. after   11 cycles
 E2(B2PLYPD3) =    -0.1488498135D+00 E(B2PLYPD3) =    -0.11568817301468D+03

 The electronic state is 1-A.
 Alpha  occ. eigenvalues --  -19.73483 -10.64465  -1.14775  -0.78512  -0.57858
 Alpha  occ. eigenvalues --   -0.52081  -0.49632  -0.40828  -0.35181
 Alpha virt. eigenvalues --    0.04081   0.07906   0.12468   0.12710   0.15060
 Alpha virt. eigenvalues --    0.17499   0.18141   0.29122   0.31028   0.33440
 Alpha virt. eigenvalues --    0.34586   0.38762   0.39784   0.41844   0.44451

 Mulliken charges:
               1
     1  C    0.078417
     2  O   -0.477349
     3  H    0.042955
     4  H    0.045084
     5  H    0.063474
     6  H    0.247418
 Sum of Mulliken charges =   0.00000

 Dipole moment (field-independent basis, Debye):
    X=             -0.8378    Y=             -1.6353    Z=             -0.1017  Tot=              1.8402
 Quadrupole moment (field-independent basis, Debye-Ang):
   XX=            -12.9386   YY=            -12.0382   ZZ=            -13.9238
   XY=             -2.3288   XZ=             -0.0383   YZ=              0.0686

 Normal termination of Gaussian 09 at Thu Aug 27 00:11:09 2020.
