 Gaussian 09, Revision D.01,
 Gaussian 09:  ES64L-G09RevD.01 24-Apr-2013

 --------------------
 #p B2PLYPD3/Def2QZVP
 --------------------

 --------
 methanol
 --------
 Symbolic Z-matrix:
 Charge =  0 Multiplicity = 1

                         Standard orientation:
 ---------------------------------------------------------------------
 Center     Atomic      Atomic             Coordinates (Angstroms)
 Number     Number       Type             X           Y           Z
 ---------------------------------------------------------------------
      1          6           0        0.669307   -0.032221    0.006991
      2          8           0       -0.750891    0.104654   -0.006308
      3          1           0        0.974385   -0.681005   -0.852124
      4          1           0        1.030963   -0.411274    0.951168
      5          1           0        1.104899    1.055524   -0.142806
      6          1           0       -1.118966   -0.607155    0.052281
 ---------------------------------------------------------------------

 SCF Done:  E(RB2PLYPD3) =  -115.515615750     A.U. after   10 cycles
 E2(B2PLYPD3) =    -0.1450738458D+00 E(B2PLYPD3) =    -0.11566068959606D+03

 The electronic state is 1-A.
 Alpha  occ. eigenvalues --  -19.70812 -10.67137  -1.19990  -0.79794  -0.60609
 Alpha  occ. eigenvalues --   -0.52381  -0.49233  -0.40673  -0.35990
 Alpha virt. eigenvalues --    0.05364   0.08850   0.11903   0.12188   0.14605
 Alpha virt. eigenvalues --    0.17109   0.17888   0.28960   0.32646   0.33305
 Alpha virt. eigenvalues --    0.36382   0.38663   0.39952   0.41070   0.42944

 Mulliken charges:
               1
     1  C    0.063554
     2  O   -0.363435
     3  H    0.051969
     4  H    0.059845
     5  H    0.066499
     6  H    0.121567
 Sum of Mulliken charges =   0.00000

 Dipole moment (field-independent basis, Debye):
    X=              0.9076    Y=             -1.4025    Z=              0.1464  Tot=              1.6770
 Quadrupole moment (field-independent basis, Debye-Ang):
   XX=            -13.0647   YY=            -12.4693   ZZ=            -13.5845
   XY=              2.0389   XZ=             -0.0773   YZ=             -0.0782

 Normal termination of Gaussian 09 at Thu Aug 27 00:03:51 2020.
