 Gaussian 09, Revision D.01,
 Gaussian 09:  ES64L-G09RevD.01 24-Apr-2013

 --------------------
 #p B2PLYPD3/Def2QZVP
 --------------------

 --------
 methanol
 --------
 Symbolic Z-matrix:
 Charge =  0 Multiplicity = 1

                         Standard orientation:
 ---------------------------------------------------------------------
 Center     Atomic      Atomic             Coordinates (Angstroms)
 Number     Number       Type             X           Y           Z
 ---------------------------------------------------------------------
      1          6           0       -0.686213   -0.034477   -0.036879
      2          8           0        0.751217    0.107364    0.008879
      3          1           0       -0.925673   -0.714169    0.861797
      4          1           0       -1.022410   -0.430707   -0.836847
      5          1           0       -1.073831    1.109819    0.183624
      6          1           0        1.129452   -0.616992   -0.058328
 ---------------------------------------------------------------------

 SCF Done:  E(RB2PLYPD3) =  -115.498838100     A.U. after   11 cycles
 E2(B2PLYPD3) =    -0.1455876402D+00 E(B2PLYPD3) =    -0.11564442574044D+03

 The electronic state is 1-A.
 Alpha  occ. eigenvalues --  -19.70722 -10.66682  -1.18847  -0.80454  -0.61266
 Alpha  occ. eigenvalues --   -0.52508  -0.48115  -0.40966  -0.35722
 Alpha virt. eigenvalues --    0.05174   0.08854   0.11288   0.12283   0.14852
 Alpha virt. eigenvalues --    0.16886   0.17722   0.29124   0.31528   0.33437
 Alpha virt. eigenvalues --    0.34922   0.37487   0.39689   0.42267   0.44737

 Mulliken charges:
               1
     1  C    0.068166
     2  O   -0.384240
     3  H    0.044495
     4  H    0.069411
     5  H    0.067267
     6  H    0.134901
 Sum of Mulliken charges =   0.00000

 Dipole moment (field-independent basis, Debye):
    X=             -0.9363    Y=             -1.4640    Z=             -0.2599  Tot=              1.7571
 Quadrupole moment (field-independent basis, Debye-Ang):
   XX=            -13.1371   YY=            -12.2679   ZZ=            -13.6365
   XY=             -1.9809   XZ=              0.0813   YZ=              0.2578

 Normal termination of Gaussian 09 at Wed Aug 26 22:47:22 2020.
