 Gaussian 09, Revision D.01,
 Gaussian 09:  ES64L-G09RevD.01 24-Apr-2013

 --------------------
 #p B2PLYPD3/Def2QZVP
 --------------------

 --------
 methanol
 --------
 Symbolic Z-matrix:
 Charge =  0 Multiplicity = 1

                         Standard orientation:
 ---------------------------------------------------------------------
 Center     Atomic      Atomic             Coordinates (Angstroms)
 Number     Number       Type             X           Y           Z
 ---------------------------------------------------------------------
      1          6           0        0.676297    0.041975    0.005474
      2          8           0       -0.753132   -0.154666   -0.011424
      3          1           0        1.027894    0.407860    0.828210
      4          1           0        1.033611    0.584517   -0.789944
      5          1           0        1.059098   -0.964350   -0.046312
      6          1           0       -1.153327    0.957450    0.066599
 ---------------------------------------------------------------------

 SCF Done:  E(RB2PLYPD3) =  -115.502301850     A.U. after   11 cycles
 E2(B2PLYPD3) =    -0.1516300277D+00 E(B2PLYPD3) =    -0.11565393187725D+03

 The electronic state is 1-A.
 Alpha  occ. eigenvalues --  -19.74283 -10.63217  -1.12350  -0.79534  -0.55987
 Alpha  occ. eigenvalues --   -0.53362  -0.48052  -0.40775  -0.35655
 Alpha virt. eigenvalues --    0.02734   0.07697   0.12305   0.12789   0.14964
 Alpha virt. eigenvalues --    0.17212   0.18460   0.26746   0.29435   0.33388
 Alpha virt. eigenvalues --    0.33965   0.38159   0.39769   0.43127   0.44661

 Mulliken charges:
               1
     1  C    0.089375
     2  O   -0.493127
     3  H    0.051549
     4  H    0.048554
     5  H    0.057342
     6  H    0.246307
 Sum of Mulliken charges =   0.00000

 Dipole moment (field-independent basis, Debye):
    X=              1.0762    Y=              1.7176    Z=              0.1696  Tot=              2.0340
 Quadrupole moment (field-independent basis, Debye-Ang):
   XX=            -13.1331   YY=            -11.7493   ZZ=            -13.8424
   XY=             -2.2217   XZ=             -0.0818   YZ=              0.0799

 Normal termination of Gaussian 09 at Wed Aug 26 13:44:25 2020.
