 Gaussian 09, Revision D.01,
 Gaussian 09:  ES64L-G09RevD.01 24-Apr-2013

 --------------------
 #p B2PLYPD3/Def2QZVP
 --------------------

 --------
 methanol
 --------
 Symbolic Z-matrix:
 Charge =  0 Multiplicity = 1

                         Standard orientation:
 ---------------------------------------------------------------------
 Center     Atomic      Atomic             Coordinates (Angstroms)
 Number     Number       Type             X           Y           Z
 ---------------------------------------------------------------------
      1          6           0        0.647631    0.005716    0.005060
      2          8           0       -0.746268    0.085884   -0.012922
      3          1           0        1.087264   -0.755310   -0.827148
      4          1           0        1.038016   -0.376554    1.032502
      5          1           0        1.057826    0.998642   -0.192266
      6          1           0       -1.098748   -0.588150    0.059933
 ---------------------------------------------------------------------

 SCF Done:  E(RB2PLYPD3) =  -115.487175424     A.U. after   11 cycles
 E2(B2PLYPD3) =    -0.1445747847D+00 E(B2PLYPD3) =    -0.11563175020872D+03

 The electronic state is 1-A.
 Alpha  occ. eigenvalues --  -19.70961 -10.67989  -1.22468  -0.80544  -0.61308
 Alpha  occ. eigenvalues --   -0.51577  -0.50644  -0.41108  -0.35354
 Alpha virt. eigenvalues --    0.05350   0.08881   0.11807   0.12304   0.14785
 Alpha virt. eigenvalues --    0.17116   0.17825   0.28759   0.32469   0.33943
 Alpha virt. eigenvalues --    0.36126   0.38464   0.39801   0.40415   0.42567

 Mulliken charges:
               1
     1  C    0.053524
     2  O   -0.299974
     3  H    0.030192
     4  H    0.043323
     5  H    0.085514
     6  H    0.087421
 Sum of Mulliken charges =   0.00000

 Dipole moment (field-independent basis, Debye):
    X=              0.7666    Y=             -1.1820    Z=              0.1670  Tot=              1.4187
 Quadrupole moment (field-independent basis, Debye-Ang):
   XX=            -13.0980   YY=            -12.5111   ZZ=            -13.7885
   XY=              2.0802   XZ=             -0.2318   YZ=             -0.1837

 Normal termination of Gaussian 09 at Wed Aug 26 15:00:34 2020.
