 Gaussian 09, Revision D.01,
 Gaussian 09:  ES64L-G09RevD.01 24-Apr-2013

 --------------------
 #p B2PLYPD3/Def2QZVP
 --------------------

 --------
 methanol
 --------
 Symbolic Z-matrix:
 Charge =  0 Multiplicity = 1

                         Standard orientation:
 ---------------------------------------------------------------------
 Center     Atomic      Atomic             Coordinates (Angstroms)
 Number     Number       Type             X           Y           Z
 ---------------------------------------------------------------------
      1          6           0        0.683088   -0.022833    0.009568
      2          8           0       -0.763257    0.077045   -0.004727
      3          1           0        1.027735   -0.698850   -0.878810
      4          1           0        1.084169   -0.367078    1.001385
      5          1           0        0.996543    1.108953   -0.194079
      6          1           0       -1.100920   -0.522392    0.051916
 ---------------------------------------------------------------------

 SCF Done:  E(RB2PLYPD3) =  -115.404623917     A.U. after   11 cycles
 E2(B2PLYPD3) =    -0.1443194520D+00 E(B2PLYPD3) =    -0.11554894336915D+03

 The electronic state is 1-A.
 Alpha  occ. eigenvalues --  -19.69432 -10.68734  -1.23716  -0.80947  -0.61189
 Alpha  occ. eigenvalues --   -0.51523  -0.48919  -0.40856  -0.36438
 Alpha virt. eigenvalues --    0.05301   0.09087   0.11558   0.11854   0.14440
 Alpha virt. eigenvalues --    0.16583   0.17947   0.28720   0.31317   0.33290
 Alpha virt. eigenvalues --    0.35935   0.37707   0.39390   0.40827   0.42003

 Mulliken charges:
               1
     1  C    0.047114
     2  O   -0.251147
     3  H    0.055026
     4  H    0.066438
     5  H    0.077100
     6  H    0.005469
 Sum of Mulliken charges =   0.00000

 Dipole moment (field-independent basis, Debye):
    X=              1.0085    Y=             -1.2422    Z=              0.1500  Tot=              1.6070
 Quadrupole moment (field-independent basis, Debye-Ang):
   XX=            -13.1617   YY=            -12.5158   ZZ=            -13.4493
   XY=              1.7875   XZ=             -0.0705   YZ=             -0.1076

 Normal termination of Gaussian 09 at Wed Aug 26 13:44:57 2020.
