 Gaussian 09, Revision D.01,
 Gaussian 09:  ES64L-G09RevD.01 24-Apr-2013

 --------------------
 #p B2PLYPD3/Def2QZVP
 --------------------

 --------
 methanol
 --------
 Symbolic Z-matrix:
 Charge =  0 Multiplicity = 1

                         Standard orientation:
 ---------------------------------------------------------------------
 Center     Atomic      Atomic             Coordinates (Angstroms)
 Number     Number       Type             X           Y           Z
 ---------------------------------------------------------------------
      1          6           0        0.678617    0.019648   -0.001334
      2          8           0       -0.746799   -0.144940   -0.004072
      3          1           0        1.047538    0.446438    0.880645
      4          1           0        0.976179    0.647879   -0.804854
      5          1           0        1.087124   -0.919142   -0.086377
      6          1           0       -1.208153    0.866459    0.051171
 ---------------------------------------------------------------------

 SCF Done:  E(RB2PLYPD3) =  -115.529494302     A.U. after   11 cycles
 E2(B2PLYPD3) =    -0.1498189835D+00 E(B2PLYPD3) =    -0.11567931328570D+03

 The electronic state is 1-A.
 Alpha  occ. eigenvalues --  -19.73454 -10.64017  -1.13017  -0.78923  -0.56698
 Alpha  occ. eigenvalues --   -0.51879  -0.49671  -0.40906  -0.35014
 Alpha virt. eigenvalues --    0.03663   0.07804   0.12567   0.12719   0.14858
 Alpha virt. eigenvalues --    0.17316   0.18094   0.28845   0.30058   0.33152
 Alpha virt. eigenvalues --    0.33665   0.39214   0.40244   0.41821   0.43922

 Mulliken charges:
               1
     1  C    0.085823
     2  O   -0.499640
     3  H    0.047220
     4  H    0.043982
     5  H    0.071821
     6  H    0.250794
 Sum of Mulliken charges =   0.00000

 Dipole moment (field-independent basis, Debye):
    X=              0.9229    Y=              1.6144    Z=              0.0973  Tot=              1.8621
 Quadrupole moment (field-independent basis, Debye-Ang):
   XX=            -12.8145   YY=            -11.9444   ZZ=            -13.8979
   XY=             -2.4725   XZ=             -0.0585   YZ=              0.0625

 Normal termination of Gaussian 09 at Thu Aug 27 00:14:37 2020.
