 Gaussian 09, Revision D.01,
 Gaussian 09:  ES64L-G09RevD.01 24-Apr-2013

 --------------------
 #p B2PLYPD3/Def2QZVP
 --------------------

 --------
 methanol
 --------
 Symbolic Z-matrix:
 Charge =  0 Multiplicity = 1

                         Standard orientation:
 ---------------------------------------------------------------------
 Center     Atomic      Atomic             Coordinates (Angstroms)
 Number     Number       Type             X           Y           Z
 ---------------------------------------------------------------------
      1          6           0       -0.636512    0.015993    0.011819
      2          8           0        0.738751   -0.075620   -0.017617
      3          1           0       -0.943678    1.040537   -0.584131
      4          1           0       -1.193601   -0.015779    1.070361
      5          1           0       -1.116295   -0.908638   -0.596555
      6          1           0        1.162640    0.392882    0.180346
 ---------------------------------------------------------------------

 SCF Done:  E(RB2PLYPD3) =  -115.344042545     A.U. after   11 cycles
 E2(B2PLYPD3) =    -0.1440883721D+00 E(B2PLYPD3) =    -0.11548813091665D+03

 The electronic state is 1-A.
 Alpha  occ. eigenvalues --  -19.69902 -10.70064  -1.26561  -0.83163  -0.62262
 Alpha  occ. eigenvalues --   -0.51569  -0.50568  -0.38850  -0.35759
 Alpha virt. eigenvalues --    0.05151   0.08960   0.11630   0.11883   0.14388
 Alpha virt. eigenvalues --    0.16868   0.18105   0.28512   0.31924   0.34178
 Alpha virt. eigenvalues --    0.35145   0.36528   0.37737   0.40802   0.42646

 Mulliken charges:
               1
     1  C    0.039765
     2  O   -0.182299
     3  H    0.034001
     4  H    0.051994
     5  H    0.074821
     6  H   -0.018282
 Sum of Mulliken charges =   0.00000

 Dipole moment (field-independent basis, Debye):
    X=             -0.5684    Y=              0.9594    Z=              0.4258  Tot=              1.1937
 Quadrupole moment (field-independent basis, Debye-Ang):
   XX=            -12.6421   YY=            -13.1416   ZZ=            -13.6085
   XY=              1.8660   XZ=              0.5588   YZ=              0.2457

 Normal termination of Gaussian 09 at Wed Aug 26 23:36:17 2020.
