 Gaussian 09, Revision D.01,
 Gaussian 09:  ES64L-G09RevD.01 24-Apr-2013

 --------------------
 #p B2PLYPD3/Def2QZVP
 --------------------

 --------
 methanol
 --------
 Symbolic Z-matrix:
 Charge =  0 Multiplicity = 1

                         Standard orientation:
 ---------------------------------------------------------------------
 Center     Atomic      Atomic             Coordinates (Angstroms)
 Number     Number       Type             X           Y           Z
 ---------------------------------------------------------------------
      1          6           0        0.677512    0.020756    0.015353
      2          8           0       -0.746904   -0.166675   -0.010399
      3          1           0        0.954211    0.391039    0.885025
      4          1           0        0.918750    0.586006   -0.857695
      5          1           0        1.132977   -0.779715   -0.099053
      6          1           0       -1.095779    1.011540    0.062800
 ---------------------------------------------------------------------

 SCF Done:  E(RB2PLYPD3) =  -115.473114058     A.U. after   11 cycles
 E2(B2PLYPD3) =    -0.1521293343D+00 E(B2PLYPD3) =    -0.11562524339240D+03

 The electronic state is 1-A.
 Alpha  occ. eigenvalues --  -19.74095 -10.62082  -1.12108  -0.80326  -0.55518
 Alpha  occ. eigenvalues --   -0.53643  -0.49721  -0.40300  -0.35121
 Alpha virt. eigenvalues --    0.01917   0.07812   0.12236   0.12975   0.14193
 Alpha virt. eigenvalues --    0.18185   0.18282   0.25672   0.29380   0.32737
 Alpha virt. eigenvalues --    0.33316   0.38844   0.41763   0.43240   0.44028

 Mulliken charges:
               1
     1  C    0.089435
     2  O   -0.497894
     3  H    0.047193
     4  H    0.043612
     5  H    0.066011
     6  H    0.251644
 Sum of Mulliken charges =   0.00000

 Dipole moment (field-independent basis, Debye):
    X=              1.1923    Y=              1.6258    Z=              0.1407  Tot=              2.0210
 Quadrupole moment (field-independent basis, Debye-Ang):
   XX=            -13.3595   YY=            -11.7430   ZZ=            -13.5541
   XY=             -2.5419   XZ=             -0.0724   YZ=              0.1454

 Normal termination of Gaussian 09 at Wed Aug 26 18:35:47 2020.
