 Gaussian 09, Revision D.01,
 Gaussian 09:  ES64L-G09RevD.01 24-Apr-2013

 --------------------
 #p B2PLYPD3/Def2QZVP
 --------------------

 --------
 methanol
 --------
 Symbolic Z-matrix:
 Charge =  0 Multiplicity = 1

                         Standard orientation:
 ---------------------------------------------------------------------
 Center     Atomic      Atomic             Coordinates (Angstroms)
 Number     Number       Type             X           Y           Z
 ---------------------------------------------------------------------
      1          6           0       -0.657385    0.005587    0.005916
      2          8           0        0.754289   -0.155888   -0.017004
      3          1           0       -1.076049    0.635398   -0.793556
      4          1           0       -1.016453    0.400977    0.870305
      5          1           0       -1.103688   -0.840763   -0.058983
      6          1           0        1.106193    1.017967    0.082771
 ---------------------------------------------------------------------

 SCF Done:  E(RB2PLYPD3) =  -115.488033678     A.U. after   11 cycles
 E2(B2PLYPD3) =    -0.1523063510D+00 E(B2PLYPD3) =    -0.11564034002869D+03

 The electronic state is 1-A.
 Alpha  occ. eigenvalues --  -19.74821 -10.63078  -1.12850  -0.79657  -0.55774
 Alpha  occ. eigenvalues --   -0.51510  -0.50157  -0.40974  -0.35116
 Alpha virt. eigenvalues --    0.01755   0.07568   0.12585   0.12911   0.14779
 Alpha virt. eigenvalues --    0.17910   0.18470   0.25428   0.29558   0.33394
 Alpha virt. eigenvalues --    0.34086   0.38271   0.41258   0.41451   0.43351

 Mulliken charges:
               1
     1  C    0.089835
     2  O   -0.485237
     3  H    0.033181
     4  H    0.040748
     5  H    0.065455
     6  H    0.256019
 Sum of Mulliken charges =   0.00000

 Dipole moment (field-independent basis, Debye):
    X=             -1.0667    Y=              1.6390    Z=              0.2236  Tot=              1.9683
 Quadrupole moment (field-independent basis, Debye-Ang):
   XX=            -13.2254   YY=            -11.6383   ZZ=            -13.9806
   XY=              2.4204   XZ=              0.1290   YZ=              0.1544

 Normal termination of Gaussian 09 at Wed Aug 26 14:36:59 2020.
