 Gaussian 09, Revision D.01,
 Gaussian 09:  ES64L-G09RevD.01 24-Apr-2013

 --------------------
 #p B2PLYPD3/Def2QZVP
 --------------------

 --------
 methanol
 --------
 Symbolic Z-matrix:
 Charge =  0 Multiplicity = 1

                         Standard orientation:
 ---------------------------------------------------------------------
 Center     Atomic      Atomic             Coordinates (Angstroms)
 Number     Number       Type             X           Y           Z
 ---------------------------------------------------------------------
      1          6           0        0.671259   -0.014944    0.001805
      2          8           0       -0.757236    0.105869   -0.007439
      3          1           0        1.071336   -0.601718   -0.879978
      4          1           0        1.023821   -0.528695    0.920091
      5          1           0        1.097246    1.027330   -0.018425
      6          1           0       -1.162072   -0.654203    0.026995
 ---------------------------------------------------------------------

 SCF Done:  E(RB2PLYPD3) =  -115.540119097     A.U. after   10 cycles
 E2(B2PLYPD3) =    -0.1460492520D+00 E(B2PLYPD3) =    -0.11568616834868D+03

 The electronic state is 1-A.
 Alpha  occ. eigenvalues --  -19.71615 -10.67052  -1.17932  -0.79240  -0.59891
 Alpha  occ. eigenvalues --   -0.50994  -0.49812  -0.40992  -0.35566
 Alpha virt. eigenvalues --    0.05315   0.08431   0.12157   0.12264   0.14801
 Alpha virt. eigenvalues --    0.17149   0.17919   0.29099   0.32721   0.33255
 Alpha virt. eigenvalues --    0.37042   0.38810   0.39304   0.39808   0.42636

 Mulliken charges:
               1
     1  C    0.067251
     2  O   -0.417102
     3  H    0.048257
     4  H    0.050396
     5  H    0.075890
     6  H    0.175309
 Sum of Mulliken charges =   0.00000

 Dipole moment (field-independent basis, Debye):
    X=              0.8766    Y=             -1.3989    Z=              0.0895  Tot=              1.6532
 Quadrupole moment (field-independent basis, Debye-Ang):
   XX=            -12.8464   YY=            -12.3930   ZZ=            -13.8235
   XY=              2.1687   XZ=             -0.1008   YZ=             -0.0451

 Normal termination of Gaussian 09 at Wed Aug 26 23:59:41 2020.
