 Gaussian 09, Revision D.01,
 Gaussian 09:  ES64L-G09RevD.01 24-Apr-2013

 --------------------
 #p B2PLYPD3/Def2QZVP
 --------------------

 --------
 methanol
 --------
 Symbolic Z-matrix:
 Charge =  0 Multiplicity = 1

                         Standard orientation:
 ---------------------------------------------------------------------
 Center     Atomic      Atomic             Coordinates (Angstroms)
 Number     Number       Type             X           Y           Z
 ---------------------------------------------------------------------
      1          6           0        0.646291    0.003293   -0.038756
      2          8           0       -0.740586   -0.199641    0.019356
      3          1           0        1.108578    0.549650    0.836319
      4          1           0        0.993689    0.541234   -0.708922
      5          1           0        1.188366   -0.714496   -0.008030
      6          1           0       -1.243689    1.200980   -0.041674
 ---------------------------------------------------------------------

 SCF Done:  E(RB2PLYPD3) =  -115.379605495     A.U. after   13 cycles
 E2(B2PLYPD3) =    -0.1577224174D+00 E(B2PLYPD3) =    -0.11553732791255D+03

 The electronic state is 1-A.
 Alpha  occ. eigenvalues --  -19.76280 -10.61554  -1.12278  -0.81798  -0.55666
 Alpha  occ. eigenvalues --   -0.51076  -0.50037  -0.39304  -0.34509
 Alpha virt. eigenvalues --   -0.03726   0.07113   0.12863   0.13208   0.14593
 Alpha virt. eigenvalues --    0.18349   0.18881   0.21352   0.29935   0.32652
 Alpha virt. eigenvalues --    0.34620   0.37757   0.39946   0.41383   0.45106

 Mulliken charges:
               1
     1  C    0.087339
     2  O   -0.463054
     3  H    0.018484
     4  H    0.043166
     5  H    0.071621
     6  H    0.242444
 Sum of Mulliken charges =   0.00000

 Dipole moment (field-independent basis, Debye):
    X=              0.9538    Y=              1.7492    Z=             -0.2620  Tot=              2.0095
 Quadrupole moment (field-independent basis, Debye-Ang):
   XX=            -12.7212   YY=            -11.3476   ZZ=            -14.3154
   XY=             -2.7445   XZ=             -0.0541   YZ=             -0.2556

 Normal termination of Gaussian 09 at Wed Aug 26 23:37:08 2020.
