 Gaussian 09, Revision D.01,
 Gaussian 09:  ES64L-G09RevD.01 24-Apr-2013

 --------------------
 #p B2PLYPD3/Def2QZVP
 --------------------

 --------
 methanol
 --------
 Symbolic Z-matrix:
 Charge =  0 Multiplicity = 1

                         Standard orientation:
 ---------------------------------------------------------------------
 Center     Atomic      Atomic             Coordinates (Angstroms)
 Number     Number       Type             X           Y           Z
 ---------------------------------------------------------------------
      1          6           0        0.669767    0.025862   -0.012213
      2          8           0       -0.746449   -0.139264    0.005443
      3          1           0        0.994113    0.543842    0.885290
      4          1           0        1.012472    0.510005   -0.843076
      5          1           0        1.085923   -0.943955    0.018366
      6          1           0       -1.139513    0.849049   -0.030845
 ---------------------------------------------------------------------

 SCF Done:  E(RB2PLYPD3) =  -115.538539022     A.U. after   11 cycles
 E2(B2PLYPD3) =    -0.1489502478D+00 E(B2PLYPD3) =    -0.11568748927021D+03

 The electronic state is 1-A.
 Alpha  occ. eigenvalues --  -19.73260 -10.64238  -1.14176  -0.78830  -0.57369
 Alpha  occ. eigenvalues --   -0.52420  -0.49489  -0.41115  -0.35261
 Alpha virt. eigenvalues --    0.04179   0.08015   0.12469   0.12608   0.14802
 Alpha virt. eigenvalues --    0.17414   0.18182   0.29069   0.31241   0.33277
 Alpha virt. eigenvalues --    0.33951   0.39163   0.40060   0.41924   0.44417

 Mulliken charges:
               1
     1  C    0.080395
     2  O   -0.485060
     3  H    0.044495
     4  H    0.049472
     5  H    0.066322
     6  H    0.244376
 Sum of Mulliken charges =   0.00000

 Dipole moment (field-independent basis, Debye):
    X=              0.9603    Y=              1.6006    Z=             -0.1078  Tot=              1.8697
 Quadrupole moment (field-independent basis, Debye-Ang):
   XX=            -13.1039   YY=            -12.0078   ZZ=            -13.7655
   XY=             -2.3369   XZ=             -0.0047   YZ=             -0.1055

 Normal termination of Gaussian 09 at Thu Aug 27 00:11:29 2020.
