 Gaussian 09, Revision D.01,
 Gaussian 09:  ES64L-G09RevD.01 24-Apr-2013

 --------------------
 #p B2PLYPD3/Def2QZVP
 --------------------

 --------
 methanol
 --------
 Symbolic Z-matrix:
 Charge =  0 Multiplicity = 1

                         Standard orientation:
 ---------------------------------------------------------------------
 Center     Atomic      Atomic             Coordinates (Angstroms)
 Number     Number       Type             X           Y           Z
 ---------------------------------------------------------------------
      1          6           0       -0.673984    0.018402    0.005086
      2          8           0        0.761821   -0.070024   -0.024315
      3          1           0       -0.929013    1.005301   -0.611418
      4          1           0       -1.085823   -0.018869    1.065124
      5          1           0       -1.004475   -0.980404   -0.526018
      6          1           0        0.968641    0.443752    0.236315
 ---------------------------------------------------------------------

 SCF Done:  E(RB2PLYPD3) =  -115.246534831     A.U. after   11 cycles
 E2(B2PLYPD3) =    -0.1436161757D+00 E(B2PLYPD3) =    -0.11539015100637D+03

 The electronic state is 1-A.
 Alpha  occ. eigenvalues --  -19.68788 -10.68891  -1.28680  -0.81219  -0.61678
 Alpha  occ. eigenvalues --   -0.52231  -0.49354  -0.42033  -0.36595
 Alpha virt. eigenvalues --    0.05194   0.09364   0.11333   0.11794   0.14168
 Alpha virt. eigenvalues --    0.16758   0.17741   0.28107   0.31007   0.33122
 Alpha virt. eigenvalues --    0.35625   0.37228   0.38930   0.41373   0.43307

 Mulliken charges:
               1
     1  C    0.048650
     2  O   -0.181573
     3  H    0.053264
     4  H    0.060042
     5  H    0.076538
     6  H   -0.056921
 Sum of Mulliken charges =   0.00000

 Dipole moment (field-independent basis, Debye):
    X=             -1.1606    Y=              1.0335    Z=              0.5691  Tot=              1.6550
 Quadrupole moment (field-independent basis, Debye-Ang):
   XX=            -13.7130   YY=            -12.4503   ZZ=            -13.1928
   XY=              1.6284   XZ=              0.5678   YZ=              0.3046

 Normal termination of Gaussian 09 at Wed Aug 26 19:45:40 2020.
