 Gaussian 09, Revision D.01,
 Gaussian 09:  ES64L-G09RevD.01 24-Apr-2013

 --------------------
 #p B2PLYPD3/Def2QZVP
 --------------------

 --------
 methanol
 --------
 Symbolic Z-matrix:
 Charge =  0 Multiplicity = 1

                         Standard orientation:
 ---------------------------------------------------------------------
 Center     Atomic      Atomic             Coordinates (Angstroms)
 Number     Number       Type             X           Y           Z
 ---------------------------------------------------------------------
      1          6           0       -0.669944   -0.037624   -0.006894
      2          8           0        0.734254    0.143338    0.010456
      3          1           0       -1.010655   -0.536856    0.865445
      4          1           0       -1.016685   -0.510537   -0.823751
      5          1           0       -1.048711    0.973091   -0.022300
      6          1           0        1.221681   -0.846660   -0.061674
 ---------------------------------------------------------------------

 SCF Done:  E(RB2PLYPD3) =  -115.529515463     A.U. after   11 cycles
 E2(B2PLYPD3) =    -0.1494795407D+00 E(B2PLYPD3) =    -0.11567899500411D+03

 The electronic state is 1-A.
 Alpha  occ. eigenvalues --  -19.73381 -10.63904  -1.13727  -0.78718  -0.57297
 Alpha  occ. eigenvalues --   -0.52727  -0.49004  -0.40438  -0.35205
 Alpha virt. eigenvalues --    0.03798   0.07876   0.12442   0.12718   0.15085
 Alpha virt. eigenvalues --    0.17033   0.18280   0.28892   0.30302   0.33508
 Alpha virt. eigenvalues --    0.34410   0.38613   0.39600   0.42426   0.44962

 Mulliken charges:
               1
     1  C    0.078385
     2  O   -0.490059
     3  H    0.049549
     4  H    0.049358
     5  H    0.064865
     6  H    0.247902
 Sum of Mulliken charges =   0.00000

 Dipole moment (field-independent basis, Debye):
    X=             -0.8196    Y=             -1.6329    Z=             -0.1697  Tot=              1.8349
 Quadrupole moment (field-independent basis, Debye-Ang):
   XX=            -12.7985   YY=            -12.0515   ZZ=            -13.8051
   XY=             -2.3447   XZ=             -0.0798   YZ=              0.1007

 Normal termination of Gaussian 09 at Wed Aug 26 14:04:40 2020.
