 Gaussian 09, Revision D.01,
 Gaussian 09:  ES64L-G09RevD.01 24-Apr-2013

 --------------------
 #p B2PLYPD3/Def2QZVP
 --------------------

 --------
 methanol
 --------
 Symbolic Z-matrix:
 Charge =  0 Multiplicity = 1

                         Standard orientation:
 ---------------------------------------------------------------------
 Center     Atomic      Atomic             Coordinates (Angstroms)
 Number     Number       Type             X           Y           Z
 ---------------------------------------------------------------------
      1          6           0        0.676353    0.027842   -0.008626
      2          8           0       -0.737213   -0.170564    0.005839
      3          1           0        0.940479    0.565545    0.833608
      4          1           0        0.951647    0.511718   -0.812656
      5          1           0        1.147609   -0.849121    0.016920
      6          1           0       -1.200146    0.969319   -0.032824
 ---------------------------------------------------------------------

 SCF Done:  E(RB2PLYPD3) =  -115.489816444     A.U. after   11 cycles
 E2(B2PLYPD3) =    -0.1516732453D+00 E(B2PLYPD3) =    -0.11564148968922D+03

 The electronic state is 1-A.
 Alpha  occ. eigenvalues --  -19.73988 -10.62300  -1.12187  -0.79636  -0.55718
 Alpha  occ. eigenvalues --   -0.53214  -0.49653  -0.40349  -0.34931
 Alpha virt. eigenvalues --    0.01914   0.07753   0.12711   0.12836   0.14609
 Alpha virt. eigenvalues --    0.17891   0.17951   0.25721   0.29629   0.33209
 Alpha virt. eigenvalues --    0.33686   0.39663   0.41036   0.42804   0.44105

 Mulliken charges:
               1
     1  C    0.102569
     2  O   -0.503336
     3  H    0.042665
     4  H    0.043858
     5  H    0.063128
     6  H    0.251115
 Sum of Mulliken charges =   0.00000

 Dipole moment (field-independent basis, Debye):
    X=              1.0130    Y=              1.7061    Z=             -0.0950  Tot=              1.9865
 Quadrupole moment (field-independent basis, Debye-Ang):
   XX=            -12.9120   YY=            -11.7407   ZZ=            -13.7992
   XY=             -2.5900   XZ=              0.0164   YZ=             -0.0819

 Normal termination of Gaussian 09 at Wed Aug 26 11:57:31 2020.
