 Gaussian 09, Revision D.01,
 Gaussian 09:  ES64L-G09RevD.01 24-Apr-2013

 --------------------
 #p B2PLYPD3/Def2QZVP
 --------------------

 --------
 methanol
 --------
 Symbolic Z-matrix:
 Charge =  0 Multiplicity = 1

                         Standard orientation:
 ---------------------------------------------------------------------
 Center     Atomic      Atomic             Coordinates (Angstroms)
 Number     Number       Type             X           Y           Z
 ---------------------------------------------------------------------
      1          6           0        0.673890    0.062223    0.003643
      2          8           0       -0.748887   -0.182712   -0.021155
      3          1           0        0.944931    0.378125    0.786402
      4          1           0        0.993643    0.595128   -0.753391
      5          1           0        1.186512   -0.913498   -0.000557
      6          1           0       -1.177325    1.028606    0.114927
 ---------------------------------------------------------------------

 SCF Done:  E(RB2PLYPD3) =  -115.443416591     A.U. after   11 cycles
 E2(B2PLYPD3) =    -0.1535924504D+00 E(B2PLYPD3) =    -0.11559700904127D+03

 The electronic state is 1-A.
 Alpha  occ. eigenvalues --  -19.74838 -10.61971  -1.11555  -0.80879  -0.55544
 Alpha  occ. eigenvalues --   -0.54161  -0.48059  -0.39708  -0.35861
 Alpha virt. eigenvalues --    0.00891   0.07455   0.12402   0.12827   0.14671
 Alpha virt. eigenvalues --    0.17691   0.18615   0.24036   0.29294   0.33200
 Alpha virt. eigenvalues --    0.33795   0.37635   0.40505   0.43018   0.45076

 Mulliken charges:
               1
     1  C    0.080064
     2  O   -0.495609
     3  H    0.075108
     4  H    0.052958
     5  H    0.045254
     6  H    0.242225
 Sum of Mulliken charges =   0.00000

 Dipole moment (field-independent basis, Debye):
    X=              1.1375    Y=              1.8221    Z=              0.2794  Tot=              2.1661
 Quadrupole moment (field-independent basis, Debye-Ang):
   XX=            -13.0538   YY=            -11.6936   ZZ=            -13.7691
   XY=             -2.3237   XZ=             -0.1552   YZ=              0.0961

 Normal termination of Gaussian 09 at Wed Aug 26 18:47:40 2020.
