 Gaussian 09, Revision D.01,
 Gaussian 09:  ES64L-G09RevD.01 24-Apr-2013

 --------------------
 #p B2PLYPD3/Def2QZVP
 --------------------

 --------
 methanol
 --------
 Symbolic Z-matrix:
 Charge =  0 Multiplicity = 1

                         Standard orientation:
 ---------------------------------------------------------------------
 Center     Atomic      Atomic             Coordinates (Angstroms)
 Number     Number       Type             X           Y           Z
 ---------------------------------------------------------------------
      1          6           0       -0.669562   -0.020217    0.016298
      2          8           0        0.749675    0.082794   -0.009321
      3          1           0       -1.054170   -0.458561    0.953333
      4          1           0       -1.000125   -0.700642   -0.898619
      5          1           0       -1.096021    1.096633   -0.140680
      6          1           0        1.170292   -0.478482    0.062748
 ---------------------------------------------------------------------

 SCF Done:  E(RB2PLYPD3) =  -115.421493643     A.U. after   11 cycles
 E2(B2PLYPD3) =    -0.1441539011D+00 E(B2PLYPD3) =    -0.11556564754388D+03

 The electronic state is 1-A.
 Alpha  occ. eigenvalues --  -19.69520 -10.68849  -1.23197  -0.81596  -0.61753
 Alpha  occ. eigenvalues --   -0.51303  -0.49688  -0.39950  -0.35873
 Alpha virt. eigenvalues --    0.05297   0.09120   0.11649   0.11963   0.14528
 Alpha virt. eigenvalues --    0.16806   0.17703   0.28928   0.32151   0.33163
 Alpha virt. eigenvalues --    0.35604   0.37634   0.39983   0.40324   0.42018

 Mulliken charges:
               1
     1  C    0.056037
     2  O   -0.258236
     3  H    0.062228
     4  H    0.045541
     5  H    0.077591
     6  H    0.016839
 Sum of Mulliken charges =   0.00000

 Dipole moment (field-independent basis, Debye):
    X=             -0.8146    Y=             -1.1974    Z=              0.2331  Tot=              1.4668
 Quadrupole moment (field-independent basis, Debye-Ang):
   XX=            -12.7576   YY=            -12.6717   ZZ=            -13.6078
   XY=             -1.9220   XZ=              0.0894   YZ=             -0.1760

 Normal termination of Gaussian 09 at Wed Aug 26 10:56:52 2020.
