 Gaussian 09, Revision D.01,
 Gaussian 09:  ES64L-G09RevD.01 24-Apr-2013

 --------------------
 #p B2PLYPD3/Def2QZVP
 --------------------

 --------
 methanol
 --------
 Symbolic Z-matrix:
 Charge =  0 Multiplicity = 1

                         Standard orientation:
 ---------------------------------------------------------------------
 Center     Atomic      Atomic             Coordinates (Angstroms)
 Number     Number       Type             X           Y           Z
 ---------------------------------------------------------------------
      1          6           0       -0.676338   -0.017126    0.007271
      2          8           0        0.755658    0.093522   -0.012176
      3          1           0       -1.009187   -0.442032    0.979318
      4          1           0       -1.040067   -0.638433   -0.896208
      5          1           0       -1.038991    1.039235   -0.089536
      6          1           0        1.101003   -0.604191    0.060202
 ---------------------------------------------------------------------

 SCF Done:  E(RB2PLYPD3) =  -115.504866296     A.U. after   10 cycles
 E2(B2PLYPD3) =    -0.1449129529D+00 E(B2PLYPD3) =    -0.11564977924922D+03

 The electronic state is 1-A.
 Alpha  occ. eigenvalues --  -19.70524 -10.67365  -1.20469  -0.80034  -0.60326
 Alpha  occ. eigenvalues --   -0.51640  -0.49830  -0.41216  -0.35901
 Alpha virt. eigenvalues --    0.05414   0.08911   0.11920   0.12153   0.14493
 Alpha virt. eigenvalues --    0.16908   0.17920   0.28891   0.32280   0.33160
 Alpha virt. eigenvalues --    0.37186   0.38913   0.39855   0.40261   0.42805

 Mulliken charges:
               1
     1  C    0.060318
     2  O   -0.343668
     3  H    0.056516
     4  H    0.050164
     5  H    0.077831
     6  H    0.098838
 Sum of Mulliken charges =   0.00000

 Dipole moment (field-independent basis, Debye):
    X=             -0.9684    Y=             -1.3019    Z=              0.1769  Tot=              1.6322
 Quadrupole moment (field-independent basis, Debye-Ang):
   XX=            -13.1854   YY=            -12.4284   ZZ=            -13.5273
   XY=             -2.0211   XZ=              0.1809   YZ=             -0.1137

 Normal termination of Gaussian 09 at Thu Aug 27 00:15:34 2020.
