 Gaussian 09, Revision D.01,
 Gaussian 09:  ES64L-G09RevD.01 24-Apr-2013

 --------------------
 #p B2PLYPD3/Def2QZVP
 --------------------

 --------
 methanol
 --------
 Symbolic Z-matrix:
 Charge =  0 Multiplicity = 1

                         Standard orientation:
 ---------------------------------------------------------------------
 Center     Atomic      Atomic             Coordinates (Angstroms)
 Number     Number       Type             X           Y           Z
 ---------------------------------------------------------------------
      1          6           0        0.658008    0.021501   -0.002758
      2          8           0       -0.733684   -0.162036   -0.002553
      3          1           0        1.039655    0.453896    0.819276
      4          1           0        0.934859    0.629107   -0.773645
      5          1           0        1.086536   -0.898373   -0.064004
      6          1           0       -1.139627    0.982656    0.055345
 ---------------------------------------------------------------------

 SCF Done:  E(RB2PLYPD3) =  -115.497256260     A.U. after   11 cycles
 E2(B2PLYPD3) =    -0.1513733277D+00 E(B2PLYPD3) =    -0.11564862958805D+03

 The electronic state is 1-A.
 Alpha  occ. eigenvalues --  -19.74245 -10.62505  -1.13374  -0.79248  -0.56757
 Alpha  occ. eigenvalues --   -0.52796  -0.49454  -0.40839  -0.34903
 Alpha virt. eigenvalues --    0.02037   0.07822   0.12584   0.12919   0.15019
 Alpha virt. eigenvalues --    0.17569   0.18107   0.25941   0.29658   0.33176
 Alpha virt. eigenvalues --    0.34965   0.39384   0.39964   0.43012   0.44503

 Mulliken charges:
               1
     1  C    0.100395
     2  O   -0.486477
     3  H    0.037349
     4  H    0.036327
     5  H    0.062693
     6  H    0.249713
 Sum of Mulliken charges =   0.00000

 Dipole moment (field-independent basis, Debye):
    X=              0.9863    Y=              1.7157    Z=              0.1019  Tot=              1.9816
 Quadrupole moment (field-independent basis, Debye-Ang):
   XX=            -13.1742   YY=            -11.5651   ZZ=            -13.9530
   XY=             -2.3707   XZ=             -0.0040   YZ=              0.0559

 Normal termination of Gaussian 09 at Wed Aug 26 15:41:18 2020.
