 Gaussian 09, Revision D.01,
 Gaussian 09:  ES64L-G09RevD.01 24-Apr-2013

 --------------------
 #p B2PLYPD3/Def2QZVP
 --------------------

 --------
 methanol
 --------
 Symbolic Z-matrix:
 Charge =  0 Multiplicity = 1

                         Standard orientation:
 ---------------------------------------------------------------------
 Center     Atomic      Atomic             Coordinates (Angstroms)
 Number     Number       Type             X           Y           Z
 ---------------------------------------------------------------------
      1          6           0        0.649644   -0.020271    0.001597
      2          8           0       -0.746330    0.099922   -0.004051
      3          1           0        1.009461   -0.637366   -0.888517
      4          1           0        1.074240   -0.439156    0.963006
      5          1           0        1.073137    1.030531   -0.103835
      6          1           0       -1.084059   -0.631763    0.052176
 ---------------------------------------------------------------------

 SCF Done:  E(RB2PLYPD3) =  -115.519742583     A.U. after   10 cycles
 E2(B2PLYPD3) =    -0.1450675211D+00 E(B2PLYPD3) =    -0.11566481010402D+03

 The electronic state is 1-A.
 Alpha  occ. eigenvalues --  -19.71358 -10.67225  -1.20978  -0.79550  -0.60932
 Alpha  occ. eigenvalues --   -0.51783  -0.50236  -0.40922  -0.35786
 Alpha virt. eigenvalues --    0.05366   0.08798   0.12066   0.12194   0.14727
 Alpha virt. eigenvalues --    0.17184   0.18107   0.28776   0.33061   0.33910
 Alpha virt. eigenvalues --    0.36965   0.38733   0.39870   0.40076   0.42931

 Mulliken charges:
               1
     1  C    0.054689
     2  O   -0.348483
     3  H    0.045864
     4  H    0.049231
     5  H    0.069312
     6  H    0.129387
 Sum of Mulliken charges =   0.00000

 Dipole moment (field-independent basis, Debye):
    X=              0.8284    Y=             -1.3404    Z=              0.1099  Tot=              1.5796
 Quadrupole moment (field-independent basis, Debye-Ang):
   XX=            -13.1702   YY=            -12.4878   ZZ=            -13.6733
   XY=              2.0446   XZ=             -0.0888   YZ=             -0.0732

 Normal termination of Gaussian 09 at Thu Aug 27 01:11:18 2020.
