 Gaussian 09, Revision D.01,
 Gaussian 09:  ES64L-G09RevD.01 24-Apr-2013

 --------------------
 #p B2PLYPD3/Def2QZVP
 --------------------

 --------
 methanol
 --------
 Symbolic Z-matrix:
 Charge =  0 Multiplicity = 1

                         Standard orientation:
 ---------------------------------------------------------------------
 Center     Atomic      Atomic             Coordinates (Angstroms)
 Number     Number       Type             X           Y           Z
 ---------------------------------------------------------------------
      1          6           0       -0.646771    0.010047    0.000490
      2          8           0        0.743496   -0.097191   -0.028578
      3          1           0       -1.025873    0.860779   -0.710547
      4          1           0       -1.044923    0.171514    1.047374
      5          1           0       -1.071209   -0.940374   -0.306084
      6          1           0        1.074658    0.625328    0.194939
 ---------------------------------------------------------------------

 SCF Done:  E(RB2PLYPD3) =  -115.527028068     A.U. after   11 cycles
 E2(B2PLYPD3) =    -0.1451768085D+00 E(B2PLYPD3) =    -0.11567220487685D+03

 The electronic state is 1-A.
 Alpha  occ. eigenvalues --  -19.71563 -10.66901  -1.20645  -0.79576  -0.60626
 Alpha  occ. eigenvalues --   -0.51699  -0.50916  -0.41133  -0.35494
 Alpha virt. eigenvalues --    0.05336   0.08766   0.11929   0.12520   0.14680
 Alpha virt. eigenvalues --    0.17238   0.18145   0.28746   0.32854   0.34138
 Alpha virt. eigenvalues --    0.36534   0.39317   0.39691   0.40524   0.43504

 Mulliken charges:
               1
     1  C    0.057508
     2  O   -0.363285
     3  H    0.037765
     4  H    0.044829
     5  H    0.075448
     6  H    0.147735
 Sum of Mulliken charges =   0.00000

 Dipole moment (field-independent basis, Debye):
    X=             -0.8208    Y=              1.2349    Z=              0.4200  Tot=              1.5411
 Quadrupole moment (field-independent basis, Debye-Ang):
   XX=            -13.2190   YY=            -12.4989   ZZ=            -13.6409
   XY=              2.0724   XZ=              0.5692   YZ=              0.2766

 Normal termination of Gaussian 09 at Wed Aug 26 11:11:32 2020.
