 Gaussian 09, Revision D.01,
 Gaussian 09:  ES64L-G09RevD.01 24-Apr-2013

 --------------------
 #p B2PLYPD3/Def2QZVP
 --------------------

 --------
 methanol
 --------
 Symbolic Z-matrix:
 Charge =  0 Multiplicity = 1

                         Standard orientation:
 ---------------------------------------------------------------------
 Center     Atomic      Atomic             Coordinates (Angstroms)
 Number     Number       Type             X           Y           Z
 ---------------------------------------------------------------------
      1          6           0       -0.690113    0.014937    0.014801
      2          8           0        0.763020   -0.134953   -0.013616
      3          1           0       -1.146138    0.557408   -0.818912
      4          1           0       -0.962002    0.447995    0.876661
      5          1           0       -0.962363   -0.953192   -0.043886
      6          1           0        1.107016    0.937792    0.006259
 ---------------------------------------------------------------------

 SCF Done:  E(RB2PLYPD3) =  -115.517153240     A.U. after   11 cycles
 E2(B2PLYPD3) =    -0.1509940280D+00 E(B2PLYPD3) =    -0.11566814726835D+03

 The electronic state is 1-A.
 Alpha  occ. eigenvalues --  -19.73798 -10.63799  -1.12458  -0.79225  -0.56997
 Alpha  occ. eigenvalues --   -0.52144  -0.47868  -0.41870  -0.35424
 Alpha virt. eigenvalues --    0.03545   0.07782   0.12404   0.12552   0.14845
 Alpha virt. eigenvalues --    0.16880   0.18315   0.27970   0.30074   0.32484
 Alpha virt. eigenvalues --    0.33849   0.38417   0.39837   0.41797   0.44523

 Mulliken charges:
               1
     1  C    0.076792
     2  O   -0.495927
     3  H    0.045843
     4  H    0.054961
     5  H    0.074283
     6  H    0.244048
 Sum of Mulliken charges =   0.00000

 Dipole moment (field-independent basis, Debye):
    X=             -1.1566    Y=              1.6099    Z=              0.1021  Tot=              1.9849
 Quadrupole moment (field-independent basis, Debye-Ang):
   XX=            -13.3784   YY=            -11.6793   ZZ=            -13.8203
   XY=              2.1429   XZ=              0.1038   YZ=              0.0894

 Normal termination of Gaussian 09 at Wed Aug 26 23:48:49 2020.
