 Gaussian 09, Revision D.01,
 Gaussian 09:  ES64L-G09RevD.01 24-Apr-2013

 --------------------
 #p B2PLYPD3/Def2QZVP
 --------------------

 --------
 methanol
 --------
 Symbolic Z-matrix:
 Charge =  0 Multiplicity = 1

                         Standard orientation:
 ---------------------------------------------------------------------
 Center     Atomic      Atomic             Coordinates (Angstroms)
 Number     Number       Type             X           Y           Z
 ---------------------------------------------------------------------
      1          6           0       -0.660064   -0.023549    0.031001
      2          8           0        0.752083    0.090345   -0.027238
      3          1           0       -1.010889   -0.374293    0.932675
      4          1           0       -1.098193   -0.730777   -0.845963
      5          1           0       -1.068329    1.098338   -0.165298
      6          1           0        1.121130   -0.574738    0.110481
 ---------------------------------------------------------------------

 SCF Done:  E(RB2PLYPD3) =  -115.485751698     A.U. after   10 cycles
 E2(B2PLYPD3) =    -0.1449627086D+00 E(B2PLYPD3) =    -0.11563071440608D+03

 The electronic state is 1-A.
 Alpha  occ. eigenvalues --  -19.70887 -10.67831  -1.21474  -0.80298  -0.61911
 Alpha  occ. eigenvalues --   -0.51449  -0.49239  -0.40796  -0.35916
 Alpha virt. eigenvalues --    0.05280   0.08832   0.11543   0.12131   0.14941
 Alpha virt. eigenvalues --    0.16945   0.17998   0.28865   0.32702   0.33116
 Alpha virt. eigenvalues --    0.35648   0.37105   0.39975   0.41440   0.42868

 Mulliken charges:
               1
     1  C    0.054003
     2  O   -0.317276
     3  H    0.067101
     4  H    0.038806
     5  H    0.066259
     6  H    0.091107
 Sum of Mulliken charges =   0.00000

 Dipole moment (field-independent basis, Debye):
    X=             -0.8139    Y=             -1.3080    Z=              0.4426  Tot=              1.6029
 Quadrupole moment (field-independent basis, Debye-Ang):
   XX=            -13.0311   YY=            -12.5628   ZZ=            -13.6594
   XY=             -1.8991   XZ=              0.2396   YZ=             -0.2945

 Normal termination of Gaussian 09 at Wed Aug 26 15:44:31 2020.
