 Gaussian 09, Revision D.01,
 Gaussian 09:  ES64L-G09RevD.01 24-Apr-2013

 --------------------
 #p B2PLYPD3/Def2QZVP
 --------------------

 --------
 methanol
 --------
 Symbolic Z-matrix:
 Charge =  0 Multiplicity = 1

                         Standard orientation:
 ---------------------------------------------------------------------
 Center     Atomic      Atomic             Coordinates (Angstroms)
 Number     Number       Type             X           Y           Z
 ---------------------------------------------------------------------
      1          6           0       -0.667680    0.008411    0.001990
      2          8           0        0.739563   -0.155433   -0.010375
      3          1           0       -1.118270    0.516294   -0.845029
      4          1           0       -1.015335    0.512241    0.849758
      5          1           0       -0.973718   -0.854098    0.042484
      6          1           0        1.196904    1.018559    0.023845
 ---------------------------------------------------------------------

 SCF Done:  E(RB2PLYPD3) =  -115.472806134     A.U. after   11 cycles
 E2(B2PLYPD3) =    -0.1527700327D+00 E(B2PLYPD3) =    -0.11562557616673D+03

 The electronic state is 1-A.
 Alpha  occ. eigenvalues --  -19.74666 -10.62682  -1.12650  -0.79531  -0.56504
 Alpha  occ. eigenvalues --   -0.51376  -0.49651  -0.40823  -0.34915
 Alpha virt. eigenvalues --    0.01379   0.07608   0.12704   0.12881   0.15006
 Alpha virt. eigenvalues --    0.17046   0.18513   0.24944   0.29434   0.33408
 Alpha virt. eigenvalues --    0.34595   0.37964   0.40630   0.41464   0.43820

 Mulliken charges:
               1
     1  C    0.064225
     2  O   -0.487098
     3  H    0.043454
     4  H    0.041712
     5  H    0.087585
     6  H    0.250123
 Sum of Mulliken charges =   0.00000

 Dipole moment (field-independent basis, Debye):
    X=             -0.9495    Y=              1.6148    Z=              0.1052  Tot=              1.8762
 Quadrupole moment (field-independent basis, Debye-Ang):
   XX=            -13.0150   YY=            -11.6126   ZZ=            -13.9637
   XY=              2.4486   XZ=              0.0729   YZ=              0.0282

 Normal termination of Gaussian 09 at Wed Aug 26 15:37:57 2020.
