 Gaussian 09, Revision D.01,
 Gaussian 09:  ES64L-G09RevD.01 24-Apr-2013

 --------------------
 #p B2PLYPD3/Def2QZVP
 --------------------

 --------
 methanol
 --------
 Symbolic Z-matrix:
 Charge =  0 Multiplicity = 1

                         Standard orientation:
 ---------------------------------------------------------------------
 Center     Atomic      Atomic             Coordinates (Angstroms)
 Number     Number       Type             X           Y           Z
 ---------------------------------------------------------------------
      1          6           0        0.633607    0.037222   -0.035666
      2          8           0       -0.715450   -0.196326    0.024592
      3          1           0        1.122754    0.579533    0.759888
      4          1           0        0.873706    0.464228   -0.733235
      5          1           0        1.150302   -0.820905    0.022022
      6          1           0       -1.224799    1.124415   -0.031416
 ---------------------------------------------------------------------

 SCF Done:  E(RB2PLYPD3) =  -115.396247505     A.U. after   12 cycles
 E2(B2PLYPD3) =    -0.1551786626D+00 E(B2PLYPD3) =    -0.11555142616722D+03

 The electronic state is 1-A.
 Alpha  occ. eigenvalues --  -19.75561 -10.60964  -1.13748  -0.80881  -0.56964
 Alpha  occ. eigenvalues --   -0.52458  -0.50211  -0.39096  -0.34874
 Alpha virt. eigenvalues --   -0.01994   0.07415   0.12751   0.13179   0.15003
 Alpha virt. eigenvalues --    0.18041   0.18542   0.21904   0.29638   0.32753
 Alpha virt. eigenvalues --    0.36052   0.38732   0.39981   0.42333   0.45583

 Mulliken charges:
               1
     1  C    0.052150
     2  O   -0.464033
     3  H    0.029855
     4  H    0.091678
     5  H    0.052815
     6  H    0.237535
 Sum of Mulliken charges =   0.00000

 Dipole moment (field-independent basis, Debye):
    X=              0.9070    Y=              1.7569    Z=             -0.2376  Tot=              1.9914
 Quadrupole moment (field-independent basis, Debye-Ang):
   XX=            -12.8626   YY=            -11.4846   ZZ=            -14.0457
   XY=             -2.5495   XZ=              0.0706   YZ=             -0.2364

 Normal termination of Gaussian 09 at Wed Aug 26 22:36:39 2020.
