 Gaussian 09, Revision D.01,
 Gaussian 09:  ES64L-G09RevD.01 24-Apr-2013

 --------------------
 #p B2PLYPD3/Def2QZVP
 --------------------

 --------
 methanol
 --------
 Symbolic Z-matrix:
 Charge =  0 Multiplicity = 1

                         Standard orientation:
 ---------------------------------------------------------------------
 Center     Atomic      Atomic             Coordinates (Angstroms)
 Number     Number       Type             X           Y           Z
 ---------------------------------------------------------------------
      1          6           0        0.652966   -0.026866    0.000634
      2          8           0       -0.741920    0.105604   -0.007210
      3          1           0        0.982397   -0.710734   -0.812877
      4          1           0        1.044508   -0.348276    0.975058
      5          1           0        1.057019    1.033416   -0.179271
      6          1           0       -1.066363   -0.658043    0.070961
 ---------------------------------------------------------------------

 SCF Done:  E(RB2PLYPD3) =  -115.531431655     A.U. after   10 cycles
 E2(B2PLYPD3) =    -0.1452614772D+00 E(B2PLYPD3) =    -0.11567669313232D+03

 The electronic state is 1-A.
 Alpha  occ. eigenvalues --  -19.71415 -10.66567  -1.20191  -0.79288  -0.60699
 Alpha  occ. eigenvalues --   -0.52471  -0.49769  -0.41062  -0.35776
 Alpha virt. eigenvalues --    0.05314   0.08862   0.12010   0.12275   0.14792
 Alpha virt. eigenvalues --    0.17131   0.18035   0.28887   0.33116   0.33821
 Alpha virt. eigenvalues --    0.37320   0.38283   0.40378   0.40922   0.43267

 Mulliken charges:
               1
     1  C    0.060095
     2  O   -0.374271
     3  H    0.047480
     4  H    0.052218
     5  H    0.064445
     6  H    0.150033
 Sum of Mulliken charges =   0.00000

 Dipole moment (field-independent basis, Debye):
    X=              0.8635    Y=             -1.4141    Z=              0.1545  Tot=              1.6641
 Quadrupole moment (field-independent basis, Debye-Ang):
   XX=            -13.3192   YY=            -12.3403   ZZ=            -13.6341
   XY=              1.9974   XZ=             -0.1390   YZ=             -0.0705

 Normal termination of Gaussian 09 at Wed Aug 26 10:21:02 2020.
