 Gaussian 09, Revision D.01,
 Gaussian 09:  ES64L-G09RevD.01 24-Apr-2013

 --------------------
 #p B2PLYPD3/Def2QZVP
 --------------------

 --------
 methanol
 --------
 Symbolic Z-matrix:
 Charge =  0 Multiplicity = 1

                         Standard orientation:
 ---------------------------------------------------------------------
 Center     Atomic      Atomic             Coordinates (Angstroms)
 Number     Number       Type             X           Y           Z
 ---------------------------------------------------------------------
      1          6           0        0.686663    0.039722   -0.026038
      2          8           0       -0.736695   -0.190179    0.011517
      3          1           0        0.963573    0.492537    0.905624
      4          1           0        1.067844    0.486715   -0.726388
      5          1           0        1.047055   -0.800330   -0.030641
      6          1           0       -1.304885    1.104179   -0.084502
 ---------------------------------------------------------------------

 SCF Done:  E(RB2PLYPD3) =  -115.407223618     A.U. after   11 cycles
 E2(B2PLYPD3) =    -0.1561435158D+00 E(B2PLYPD3) =    -0.11556336713340D+03

 The electronic state is 1-A.
 Alpha  occ. eigenvalues --  -19.75237 -10.61197  -1.10901  -0.81336  -0.55969
 Alpha  occ. eigenvalues --   -0.52719  -0.48371  -0.39607  -0.35106
 Alpha virt. eigenvalues --   -0.01419   0.07471   0.12575   0.13031   0.14589
 Alpha virt. eigenvalues --    0.17142   0.18737   0.22239   0.29348   0.32629
 Alpha virt. eigenvalues --    0.34548   0.38197   0.40100   0.42389   0.46338

 Mulliken charges:
               1
     1  C    0.075103
     2  O   -0.487024
     3  H    0.050195
     4  H    0.053807
     5  H    0.075186
     6  H    0.232734
 Sum of Mulliken charges =   0.00000

 Dipole moment (field-independent basis, Debye):
    X=              1.0658    Y=              1.6570    Z=             -0.2324  Tot=              1.9838
 Quadrupole moment (field-independent basis, Debye-Ang):
   XX=            -12.6612   YY=            -11.6156   ZZ=            -13.8261
   XY=             -2.6355   XZ=             -0.0749   YZ=             -0.1895

 Normal termination of Gaussian 09 at Wed Aug 26 22:53:41 2020.
