 Gaussian 09, Revision D.01,
 Gaussian 09:  ES64L-G09RevD.01 24-Apr-2013

 --------------------
 #p B2PLYPD3/Def2QZVP
 --------------------

 --------
 methanol
 --------
 Symbolic Z-matrix:
 Charge =  0 Multiplicity = 1

                         Standard orientation:
 ---------------------------------------------------------------------
 Center     Atomic      Atomic             Coordinates (Angstroms)
 Number     Number       Type             X           Y           Z
 ---------------------------------------------------------------------
      1          6           0       -0.672156   -0.021316   -0.000589
      2          8           0        0.742935    0.114152   -0.003504
      3          1           0       -1.032559   -0.492732    0.917723
      4          1           0       -1.006183   -0.619170   -0.862899
      5          1           0       -1.061276    1.015065   -0.055753
      6          1           0        1.189479   -0.688480    0.032496
 ---------------------------------------------------------------------

 SCF Done:  E(RB2PLYPD3) =  -115.550988368     A.U. after   10 cycles
 E2(B2PLYPD3) =    -0.1465259202D+00 E(B2PLYPD3) =    -0.11569751428848D+03

 The electronic state is 1-A.
 Alpha  occ. eigenvalues --  -19.71843 -10.66083  -1.16599  -0.79000  -0.59262
 Alpha  occ. eigenvalues --   -0.51671  -0.49794  -0.40649  -0.35306
 Alpha virt. eigenvalues --    0.05184   0.08370   0.12267   0.12401   0.14882
 Alpha virt. eigenvalues --    0.16992   0.17948   0.29191   0.33220   0.33487
 Alpha virt. eigenvalues --    0.36524   0.38776   0.39528   0.40771   0.43203

 Mulliken charges:
               1
     1  C    0.070536
     2  O   -0.451999
     3  H    0.050447
     4  H    0.048848
     5  H    0.074308
     6  H    0.207860
 Sum of Mulliken charges =   0.00000

 Dipole moment (field-independent basis, Debye):
    X=             -0.7960    Y=             -1.4527    Z=              0.0718  Tot=              1.6581
 Quadrupole moment (field-independent basis, Debye-Ang):
   XX=            -12.8224   YY=            -12.3205   ZZ=            -13.7748
   XY=             -2.2320   XZ=              0.0653   YZ=             -0.0372

 Normal termination of Gaussian 09 at Thu Aug 27 00:00:12 2020.
