 Gaussian 09, Revision D.01,
 Gaussian 09:  ES64L-G09RevD.01 24-Apr-2013

 --------------------
 #p B2PLYPD3/Def2QZVP
 --------------------

 --------
 methanol
 --------
 Symbolic Z-matrix:
 Charge =  0 Multiplicity = 1

                         Standard orientation:
 ---------------------------------------------------------------------
 Center     Atomic      Atomic             Coordinates (Angstroms)
 Number     Number       Type             X           Y           Z
 ---------------------------------------------------------------------
      1          6           0        0.676694   -0.038186    0.009713
      2          8           0       -0.734656    0.145840   -0.015208
      3          1           0        1.021158   -0.617839   -0.808413
      4          1           0        1.011548   -0.437963    0.834841
      5          1           0        1.032488    0.979409   -0.044572
      6          1           0       -1.248108   -0.861211    0.081532
 ---------------------------------------------------------------------

 SCF Done:  E(RB2PLYPD3) =  -115.518586027     A.U. after   11 cycles
 E2(B2PLYPD3) =    -0.1500714780D+00 E(B2PLYPD3) =    -0.11566865750518D+03

 The electronic state is 1-A.
 Alpha  occ. eigenvalues --  -19.73493 -10.63600  -1.13083  -0.79000  -0.57108
 Alpha  occ. eigenvalues --   -0.52757  -0.48644  -0.40399  -0.35197
 Alpha virt. eigenvalues --    0.03481   0.07801   0.12336   0.12833   0.15170
 Alpha virt. eigenvalues --    0.16912   0.18248   0.28539   0.29779   0.33574
 Alpha virt. eigenvalues --    0.34165   0.38401   0.39296   0.42485   0.45362

 Mulliken charges:
               1
     1  C    0.081517
     2  O   -0.496274
     3  H    0.047932
     4  H    0.051965
     5  H    0.066550
     6  H    0.248310
 Sum of Mulliken charges =   0.00000

 Dipole moment (field-independent basis, Debye):
    X=              0.8344    Y=             -1.6471    Z=              0.2283  Tot=              1.8604
 Quadrupole moment (field-independent basis, Debye-Ang):
   XX=            -12.7136   YY=            -11.9724   ZZ=            -13.8472
   XY=              2.3419   XZ=             -0.1229   YZ=             -0.1258

 Normal termination of Gaussian 09 at Wed Aug 26 13:16:09 2020.
