 Gaussian 09, Revision D.01,
 Gaussian 09:  ES64L-G09RevD.01 24-Apr-2013

 --------------------
 #p B2PLYPD3/Def2QZVP
 --------------------

 --------
 methanol
 --------
 Symbolic Z-matrix:
 Charge =  0 Multiplicity = 1

                         Standard orientation:
 ---------------------------------------------------------------------
 Center     Atomic      Atomic             Coordinates (Angstroms)
 Number     Number       Type             X           Y           Z
 ---------------------------------------------------------------------
      1          6           0        0.659457   -0.016582    0.000668
      2          8           0       -0.747289    0.101316   -0.007108
      3          1           0        1.057566   -0.652538   -0.860105
      4          1           0        1.043861   -0.476897    0.949738
      5          1           0        1.087089    1.041453   -0.075346
      6          1           0       -1.166945   -0.623056    0.038565
 ---------------------------------------------------------------------

 SCF Done:  E(RB2PLYPD3) =  -115.531654419     A.U. after   10 cycles
 E2(B2PLYPD3) =    -0.1455579927D+00 E(B2PLYPD3) =    -0.11567721241133D+03

 The electronic state is 1-A.
 Alpha  occ. eigenvalues --  -19.71450 -10.67355  -1.19216  -0.79464  -0.60598
 Alpha  occ. eigenvalues --   -0.51107  -0.50035  -0.40579  -0.35504
 Alpha virt. eigenvalues --    0.05343   0.08554   0.12087   0.12268   0.14875
 Alpha virt. eigenvalues --    0.17064   0.17957   0.29047   0.33109   0.33610
 Alpha virt. eigenvalues --    0.36986   0.38769   0.39368   0.39794   0.42289

 Mulliken charges:
               1
     1  C    0.061683
     2  O   -0.388692
     3  H    0.045467
     4  H    0.049002
     5  H    0.074062
     6  H    0.158478
 Sum of Mulliken charges =   0.00000

 Dipole moment (field-independent basis, Debye):
    X=              0.7556    Y=             -1.3578    Z=              0.1054  Tot=              1.5574
 Quadrupole moment (field-independent basis, Debye-Ang):
   XX=            -12.8123   YY=            -12.4889   ZZ=            -13.8303
   XY=              2.1237   XZ=             -0.1191   YZ=             -0.0570

 Normal termination of Gaussian 09 at Wed Aug 26 23:57:13 2020.
