 Gaussian 09, Revision D.01,
 Gaussian 09:  ES64L-G09RevD.01 24-Apr-2013

 --------------------
 #p B2PLYPD3/Def2QZVP
 --------------------

 --------
 methanol
 --------
 Symbolic Z-matrix:
 Charge =  0 Multiplicity = 1

                         Standard orientation:
 ---------------------------------------------------------------------
 Center     Atomic      Atomic             Coordinates (Angstroms)
 Number     Number       Type             X           Y           Z
 ---------------------------------------------------------------------
      1          6           0        0.663945    0.010609    0.001954
      2          8           0       -0.751444   -0.127301   -0.009535
      3          1           0        1.026211    0.468904    0.908743
      4          1           0        1.011557    0.621943   -0.860220
      5          1           0        1.099820   -0.936349   -0.049656
      6          1           0       -1.109703    0.800257    0.065685
 ---------------------------------------------------------------------

 SCF Done:  E(RB2PLYPD3) =  -115.549070050     A.U. after   10 cycles
 E2(B2PLYPD3) =    -0.1478918300D+00 E(B2PLYPD3) =    -0.11569696187980D+03

 The electronic state is 1-A.
 Alpha  occ. eigenvalues --  -19.72948 -10.65163  -1.15507  -0.78722  -0.58076
 Alpha  occ. eigenvalues --   -0.51593  -0.50319  -0.41412  -0.35222
 Alpha virt. eigenvalues --    0.04675   0.08149   0.12320   0.12639   0.14776
 Alpha virt. eigenvalues --    0.17552   0.18076   0.29154   0.32869   0.33254
 Alpha virt. eigenvalues --    0.34107   0.39061   0.40389   0.40918   0.44131

 Mulliken charges:
               1
     1  C    0.074119
     2  O   -0.467411
     3  H    0.044685
     4  H    0.041541
     5  H    0.072325
     6  H    0.234741
 Sum of Mulliken charges =   0.00000

 Dipole moment (field-independent basis, Debye):
    X=              0.9494    Y=              1.5083    Z=              0.1582  Tot=              1.7892
 Quadrupole moment (field-independent basis, Debye-Ang):
   XX=            -13.1571   YY=            -12.1048   ZZ=            -13.8155
   XY=             -2.3241   XZ=             -0.1165   YZ=              0.1016

 Normal termination of Gaussian 09 at Wed Aug 26 22:59:51 2020.
