 Gaussian 09, Revision D.01,
 Gaussian 09:  ES64L-G09RevD.01 24-Apr-2013

 --------------------
 #p B2PLYPD3/Def2QZVP
 --------------------

 --------
 methanol
 --------
 Symbolic Z-matrix:
 Charge =  0 Multiplicity = 1

                         Standard orientation:
 ---------------------------------------------------------------------
 Center     Atomic      Atomic             Coordinates (Angstroms)
 Number     Number       Type             X           Y           Z
 ---------------------------------------------------------------------
      1          6           0        0.669137   -0.006308   -0.004497
      2          8           0       -0.744673    0.119859   -0.008221
      3          1           0        1.046094   -0.620966   -0.843860
      4          1           0        1.017511   -0.470928    0.931958
      5          1           0        1.016850    0.957217   -0.042301
      6          1           0       -1.137900   -0.786347    0.046952
 ---------------------------------------------------------------------

 SCF Done:  E(RB2PLYPD3) =  -115.548598467     A.U. after   10 cycles
 E2(B2PLYPD3) =    -0.1476711432D+00 E(B2PLYPD3) =    -0.11569626960990D+03

 The electronic state is 1-A.
 Alpha  occ. eigenvalues --  -19.72667 -10.65118  -1.15541  -0.78821  -0.58398
 Alpha  occ. eigenvalues --   -0.51322  -0.50354  -0.41468  -0.35045
 Alpha virt. eigenvalues --    0.04750   0.08232   0.12330   0.12594   0.14949
 Alpha virt. eigenvalues --    0.17063   0.18058   0.29177   0.33222   0.33615
 Alpha virt. eigenvalues --    0.34348   0.38745   0.40451   0.40568   0.43876

 Mulliken charges:
               1
     1  C    0.071805
     2  O   -0.467855
     3  H    0.044103
     4  H    0.043005
     5  H    0.077286
     6  H    0.231656
 Sum of Mulliken charges =   0.00000

 Dipole moment (field-independent basis, Debye):
    X=              0.8811    Y=             -1.4815    Z=              0.0985  Tot=              1.7265
 Quadrupole moment (field-independent basis, Debye-Ang):
   XX=            -13.1176   YY=            -12.0489   ZZ=            -13.8283
   XY=              2.2745   XZ=             -0.1489   YZ=             -0.0435

 Normal termination of Gaussian 09 at Thu Aug 27 00:13:52 2020.
