 Gaussian 09, Revision D.01,
 Gaussian 09:  ES64L-G09RevD.01 24-Apr-2013

 --------------------
 #p B2PLYPD3/Def2QZVP
 --------------------

 --------
 methanol
 --------
 Symbolic Z-matrix:
 Charge =  0 Multiplicity = 1

                         Standard orientation:
 ---------------------------------------------------------------------
 Center     Atomic      Atomic             Coordinates (Angstroms)
 Number     Number       Type             X           Y           Z
 ---------------------------------------------------------------------
      1          6           0        0.661993   -0.011897    0.010193
      2          8           0       -0.746409    0.094703   -0.011001
      3          1           0        1.043041   -0.687970   -0.854670
      4          1           0        0.990141   -0.412038    0.986697
      5          1           0        1.041849    1.031091   -0.143954
      6          1           0       -1.075714   -0.617324    0.038778
 ---------------------------------------------------------------------

 SCF Done:  E(RB2PLYPD3) =  -115.508089701     A.U. after   10 cycles
 E2(B2PLYPD3) =    -0.1446888313D+00 E(B2PLYPD3) =    -0.11565277853199D+03

 The electronic state is 1-A.
 Alpha  occ. eigenvalues --  -19.70735 -10.67118  -1.21166  -0.79995  -0.60799
 Alpha  occ. eigenvalues --   -0.51840  -0.50220  -0.41309  -0.35718
 Alpha virt. eigenvalues --    0.05389   0.09002   0.11961   0.12194   0.14696
 Alpha virt. eigenvalues --    0.17012   0.17803   0.28894   0.32893   0.33337
 Alpha virt. eigenvalues --    0.37224   0.38970   0.39833   0.40616   0.43012

 Mulliken charges:
               1
     1  C    0.060131
     2  O   -0.336397
     3  H    0.041030
     4  H    0.053992
     5  H    0.076215
     6  H    0.105030
 Sum of Mulliken charges =   0.00000

 Dipole moment (field-independent basis, Debye):
    X=              0.8986    Y=             -1.3101    Z=              0.1397  Tot=              1.5948
 Quadrupole moment (field-independent basis, Debye-Ang):
   XX=            -13.2831   YY=            -12.3650   ZZ=            -13.5993
   XY=              2.0127   XZ=             -0.1414   YZ=             -0.1210

 Normal termination of Gaussian 09 at Thu Aug 27 00:01:36 2020.
