 Gaussian 09, Revision D.01,
 Gaussian 09:  ES64L-G09RevD.01 24-Apr-2013

 --------------------
 #p B2PLYPD3/Def2QZVP
 --------------------

 --------
 methanol
 --------
 Symbolic Z-matrix:
 Charge =  0 Multiplicity = 1

                         Standard orientation:
 ---------------------------------------------------------------------
 Center     Atomic      Atomic             Coordinates (Angstroms)
 Number     Number       Type             X           Y           Z
 ---------------------------------------------------------------------
      1          6           0        0.662593    0.014466   -0.013764
      2          8           0       -0.738330   -0.160441    0.014168
      3          1           0        1.071261    0.557767    0.857822
      4          1           0        1.016589    0.490627   -0.830777
      5          1           0        1.069212   -0.836357   -0.002984
      6          1           0       -1.225983    0.984691   -0.054817
 ---------------------------------------------------------------------

 SCF Done:  E(RB2PLYPD3) =  -115.481953532     A.U. after   11 cycles
 E2(B2PLYPD3) =    -0.1521760290D+00 E(B2PLYPD3) =    -0.11563412956086D+03

 The electronic state is 1-A.
 Alpha  occ. eigenvalues --  -19.74569 -10.62763  -1.12737  -0.79622  -0.55989
 Alpha  occ. eigenvalues --   -0.51459  -0.50401  -0.40490  -0.34875
 Alpha virt. eigenvalues --    0.01550   0.07582   0.12726   0.12978   0.14934
 Alpha virt. eigenvalues --    0.17498   0.18476   0.25162   0.29522   0.33352
 Alpha virt. eigenvalues --    0.34593   0.38435   0.41208   0.41250   0.44037

 Mulliken charges:
               1
     1  C    0.082877
     2  O   -0.490451
     3  H    0.036969
     4  H    0.042484
     5  H    0.072290
     6  H    0.255832
 Sum of Mulliken charges =   0.00000

 Dipole moment (field-independent basis, Debye):
    X=              0.8820    Y=              1.6213    Z=             -0.1975  Tot=              1.8562
 Quadrupole moment (field-independent basis, Debye-Ang):
   XX=            -12.7632   YY=            -11.7979   ZZ=            -13.9542
   XY=             -2.6085   XZ=              0.0538   YZ=             -0.1382

 Normal termination of Gaussian 09 at Wed Aug 26 15:05:05 2020.
