 Gaussian 09, Revision D.01,
 Gaussian 09:  ES64L-G09RevD.01 24-Apr-2013

 --------------------
 #p B2PLYPD3/Def2QZVP
 --------------------

 --------
 methanol
 --------
 Symbolic Z-matrix:
 Charge =  0 Multiplicity = 1

                         Standard orientation:
 ---------------------------------------------------------------------
 Center     Atomic      Atomic             Coordinates (Angstroms)
 Number     Number       Type             X           Y           Z
 ---------------------------------------------------------------------
      1          6           0       -0.653468   -0.021898    0.000942
      2          8           0        0.742978    0.103001   -0.005557
      3          1           0       -1.009537   -0.540904    0.926391
      4          1           0       -1.014230   -0.597981   -0.905045
      5          1           0       -1.127397    1.043684   -0.015219
      6          1           0        1.128149   -0.597425    0.032681
 ---------------------------------------------------------------------

 SCF Done:  E(RB2PLYPD3) =  -115.514704018     A.U. after   10 cycles
 E2(B2PLYPD3) =    -0.1448543906D+00 E(B2PLYPD3) =    -0.11565955840815D+03

 The electronic state is 1-A.
 Alpha  occ. eigenvalues --  -19.71009 -10.67412  -1.20828  -0.79847  -0.61118
 Alpha  occ. eigenvalues --   -0.51791  -0.50143  -0.40494  -0.35655
 Alpha virt. eigenvalues --    0.05365   0.08824   0.12092   0.12166   0.14704
 Alpha virt. eigenvalues --    0.17252   0.17814   0.28922   0.32984   0.33824
 Alpha virt. eigenvalues --    0.36661   0.38725   0.39961   0.39971   0.42834

 Mulliken charges:
               1
     1  C    0.060571
     2  O   -0.348428
     3  H    0.047965
     4  H    0.047419
     5  H    0.070425
     6  H    0.122048
 Sum of Mulliken charges =   0.00000

 Dipole moment (field-independent basis, Debye):
    X=             -0.7804    Y=             -1.3531    Z=              0.0906  Tot=              1.5646
 Quadrupole moment (field-independent basis, Debye-Ang):
   XX=            -12.9679   YY=            -12.5277   ZZ=            -13.7157
   XY=             -2.0987   XZ=              0.0854   YZ=             -0.0431

 Normal termination of Gaussian 09 at Wed Aug 26 10:29:11 2020.
