 Gaussian 09, Revision D.01,
 Gaussian 09:  ES64L-G09RevD.01 24-Apr-2013

 --------------------
 #p B2PLYPD3/Def2QZVP
 --------------------

 --------
 methanol
 --------
 Symbolic Z-matrix:
 Charge =  0 Multiplicity = 1

                         Standard orientation:
 ---------------------------------------------------------------------
 Center     Atomic      Atomic             Coordinates (Angstroms)
 Number     Number       Type             X           Y           Z
 ---------------------------------------------------------------------
      1          6           0        0.671393   -0.021087    0.000408
      2          8           0       -0.746931    0.118529   -0.003023
      3          1           0        0.966607   -0.607937   -0.886406
      4          1           0        1.026232   -0.480292    0.928464
      5          1           0        1.095442    0.973735   -0.062107
      6          1           0       -1.141191   -0.707215    0.041786
 ---------------------------------------------------------------------

 SCF Done:  E(RB2PLYPD3) =  -115.551293666     A.U. after   10 cycles
 E2(B2PLYPD3) =    -0.1464808633D+00 E(B2PLYPD3) =    -0.11569777452944D+03

 The electronic state is 1-A.
 Alpha  occ. eigenvalues --  -19.71884 -10.65844  -1.16784  -0.79058  -0.58897
 Alpha  occ. eigenvalues --   -0.52069  -0.50125  -0.40905  -0.35406
 Alpha virt. eigenvalues --    0.05178   0.08448   0.12216   0.12508   0.14604
 Alpha virt. eigenvalues --    0.17279   0.17982   0.29115   0.32945   0.33382
 Alpha virt. eigenvalues --    0.36186   0.39241   0.39966   0.40857   0.43977

 Mulliken charges:
               1
     1  C    0.071250
     2  O   -0.448880
     3  H    0.048520
     4  H    0.050011
     5  H    0.073370
     6  H    0.205729
 Sum of Mulliken charges =   0.00000

 Dipole moment (field-independent basis, Debye):
    X=              0.8976    Y=             -1.4461    Z=              0.0839  Tot=              1.7041
 Quadrupole moment (field-independent basis, Debye-Ang):
   XX=            -13.0199   YY=            -12.3252   ZZ=            -13.6609
   XY=              2.2881   XZ=             -0.0565   YZ=             -0.0548

 Normal termination of Gaussian 09 at Wed Aug 26 23:46:11 2020.
