 Gaussian 09, Revision D.01,
 Gaussian 09:  ES64L-G09RevD.01 24-Apr-2013

 --------------------
 #p B2PLYPD3/Def2QZVP
 --------------------

 --------
 methanol
 --------
 Symbolic Z-matrix:
 Charge =  0 Multiplicity = 1

                         Standard orientation:
 ---------------------------------------------------------------------
 Center     Atomic      Atomic             Coordinates (Angstroms)
 Number     Number       Type             X           Y           Z
 ---------------------------------------------------------------------
      1          6           0       -0.707706    0.024909   -0.025754
      2          8           0        0.751411   -0.194797    0.004127
      3          1           0       -1.052426    0.428021   -0.704044
      4          1           0       -0.921788    0.634619    0.746901
      5          1           0       -1.017923   -0.840656    0.126124
      6          1           0        1.227086    1.186939   -0.047471
 ---------------------------------------------------------------------

 SCF Done:  E(RB2PLYPD3) =  -115.371155413     A.U. after   12 cycles
 E2(B2PLYPD3) =    -0.1578168884D+00 E(B2PLYPD3) =    -0.11552897230113D+03

 The electronic state is 1-A.
 Alpha  occ. eigenvalues --  -19.75414 -10.60457  -1.09874  -0.82371  -0.57716
 Alpha  occ. eigenvalues --   -0.53064  -0.46941  -0.39755  -0.35308
 Alpha virt. eigenvalues --   -0.02264   0.07478   0.12344   0.13135   0.14374
 Alpha virt. eigenvalues --    0.17170   0.18065   0.21717   0.29158   0.31944
 Alpha virt. eigenvalues --    0.34145   0.37787   0.39895   0.43290   0.47211

 Mulliken charges:
               1
     1  C    0.067456
     2  O   -0.490183
     3  H    0.086310
     4  H    0.042968
     5  H    0.076176
     6  H    0.217273
 Sum of Mulliken charges =   0.00000

 Dipole moment (field-independent basis, Debye):
    X=             -1.3375    Y=              1.7502    Z=             -0.1035  Tot=              2.2052
 Quadrupole moment (field-independent basis, Debye-Ang):
   XX=            -13.0980   YY=            -11.0454   ZZ=            -13.9886
   XY=              2.3322   XZ=              0.0894   YZ=             -0.1660

 Normal termination of Gaussian 09 at Wed Aug 26 23:26:12 2020.
