 Gaussian 09, Revision D.01,
 Gaussian 09:  ES64L-G09RevD.01 24-Apr-2013

 --------------------
 #p B2PLYPD3/Def2QZVP
 --------------------

 --------
 methanol
 --------
 Symbolic Z-matrix:
 Charge =  0 Multiplicity = 1

                         Standard orientation:
 ---------------------------------------------------------------------
 Center     Atomic      Atomic             Coordinates (Angstroms)
 Number     Number       Type             X           Y           Z
 ---------------------------------------------------------------------
      1          6           0       -0.663082   -0.022160    0.017875
      2          8           0        0.737646    0.082104   -0.024395
      3          1           0       -0.925145   -0.347364    1.052649
      4          1           0       -1.015907   -0.719412   -0.873123
      5          1           0       -1.051710    1.039611   -0.188496
      6          1           0        1.070088   -0.496710    0.096879
 ---------------------------------------------------------------------

 SCF Done:  E(RB2PLYPD3) =  -115.390084033     A.U. after   11 cycles
 E2(B2PLYPD3) =    -0.1433991829D+00 E(B2PLYPD3) =    -0.11553348321578D+03

 The electronic state is 1-A.
 Alpha  occ. eigenvalues --  -19.69133 -10.67984  -1.25305  -0.81863  -0.61360
 Alpha  occ. eigenvalues --   -0.52622  -0.50480  -0.40490  -0.36019
 Alpha virt. eigenvalues --    0.05396   0.09475   0.11676   0.12078   0.14087
 Alpha virt. eigenvalues --    0.16865   0.17778   0.28518   0.32751   0.33027
 Alpha virt. eigenvalues --    0.36482   0.38392   0.40005   0.41017   0.43352

 Mulliken charges:
               1
     1  C    0.053241
     2  O   -0.230252
     3  H    0.057334
     4  H    0.045884
     5  H    0.077112
     6  H   -0.003320
 Sum of Mulliken charges =   0.00000

 Dipole moment (field-independent basis, Debye):
    X=             -0.8743    Y=             -1.1477    Z=              0.3109  Tot=              1.4759
 Quadrupole moment (field-independent basis, Debye-Ang):
   XX=            -13.3008   YY=            -12.6381   ZZ=            -13.2514
   XY=             -1.9206   XZ=              0.4058   YZ=             -0.1872

 Normal termination of Gaussian 09 at Wed Aug 26 11:44:25 2020.
