 Gaussian 09, Revision D.01,
 Gaussian 09:  ES64L-G09RevD.01 24-Apr-2013

 --------------------
 #p B2PLYPD3/Def2QZVP
 --------------------

 --------
 methanol
 --------
 Symbolic Z-matrix:
 Charge =  0 Multiplicity = 1

                         Standard orientation:
 ---------------------------------------------------------------------
 Center     Atomic      Atomic             Coordinates (Angstroms)
 Number     Number       Type             X           Y           Z
 ---------------------------------------------------------------------
      1          6           0        0.662567   -0.012502   -0.005355
      2          8           0       -0.754119    0.110254    0.004952
      3          1           0        1.033569   -0.553935   -0.898442
      4          1           0        1.112708   -0.525695    0.906679
      5          1           0        1.044828    1.001361   -0.021541
      6          1           0       -1.133556   -0.728753    0.005819
 ---------------------------------------------------------------------

 SCF Done:  E(RB2PLYPD3) =  -115.550084691     A.U. after   10 cycles
 E2(B2PLYPD3) =    -0.1469280356D+00 E(B2PLYPD3) =    -0.11569701272687D+03

 The electronic state is 1-A.
 Alpha  occ. eigenvalues --  -19.72468 -10.66355  -1.17058  -0.78751  -0.59300
 Alpha  occ. eigenvalues --   -0.51034  -0.49922  -0.41338  -0.35447
 Alpha virt. eigenvalues --    0.05126   0.08234   0.12285   0.12354   0.14960
 Alpha virt. eigenvalues --    0.17105   0.18206   0.29013   0.33140   0.33590
 Alpha virt. eigenvalues --    0.36201   0.38320   0.39814   0.39959   0.43222

 Mulliken charges:
               1
     1  C    0.062589
     2  O   -0.438401
     3  H    0.048182
     4  H    0.044213
     5  H    0.074167
     6  H    0.209251
 Sum of Mulliken charges =   0.00000

 Dipole moment (field-independent basis, Debye):
    X=              0.8584    Y=             -1.4340    Z=             -0.0337  Tot=              1.6716
 Quadrupole moment (field-independent basis, Debye-Ang):
   XX=            -13.0173   YY=            -12.2808   ZZ=            -13.8600
   XY=              2.1844   XZ=              0.0193   YZ=              0.0236

 Normal termination of Gaussian 09 at Wed Aug 26 18:34:48 2020.
