 Gaussian 09, Revision D.01,
 Gaussian 09:  ES64L-G09RevD.01 24-Apr-2013

 --------------------
 #p B2PLYPD3/Def2QZVP
 --------------------

 --------
 methanol
 --------
 Symbolic Z-matrix:
 Charge =  0 Multiplicity = 1

                         Standard orientation:
 ---------------------------------------------------------------------
 Center     Atomic      Atomic             Coordinates (Angstroms)
 Number     Number       Type             X           Y           Z
 ---------------------------------------------------------------------
      1          6           0        0.655728    0.017940    0.009966
      2          8           0       -0.753224   -0.145772   -0.023298
      3          1           0        0.991866    0.347585    0.909733
      4          1           0        1.074569    0.660796   -0.798528
      5          1           0        1.120746   -0.879242   -0.093393
      6          1           0       -1.095756    0.929397    0.108777
 ---------------------------------------------------------------------

 SCF Done:  E(RB2PLYPD3) =  -115.518586157     A.U. after   11 cycles
 E2(B2PLYPD3) =    -0.1505121230D+00 E(B2PLYPD3) =    -0.11566909828004D+03

 The electronic state is 1-A.
 Alpha  occ. eigenvalues --  -19.74227 -10.63914  -1.13823  -0.79000  -0.56302
 Alpha  occ. eigenvalues --   -0.52096  -0.50034  -0.40894  -0.35358
 Alpha virt. eigenvalues --    0.03255   0.07718   0.12390   0.12876   0.14686
 Alpha virt. eigenvalues --    0.17846   0.18541   0.27831   0.29543   0.33417
 Alpha virt. eigenvalues --    0.34102   0.38462   0.41012   0.41621   0.43406

 Mulliken charges:
               1
     1  C    0.080563
     2  O   -0.481077
     3  H    0.047135
     4  H    0.037512
     5  H    0.061221
     6  H    0.254646
 Sum of Mulliken charges =   0.00000

 Dipole moment (field-independent basis, Debye):
    X=              1.0200    Y=              1.5891    Z=              0.2892  Tot=              1.9103
 Quadrupole moment (field-independent basis, Debye-Ang):
   XX=            -13.2320   YY=            -11.9394   ZZ=            -13.8301
   XY=             -2.3755   XZ=             -0.2269   YZ=              0.1812

 Normal termination of Gaussian 09 at Wed Aug 26 12:39:01 2020.
