 Gaussian 09, Revision D.01,
 Gaussian 09:  ES64L-G09RevD.01 24-Apr-2013

 --------------------
 #p B2PLYPD3/Def2QZVP
 --------------------

 --------
 methanol
 --------
 Symbolic Z-matrix:
 Charge =  0 Multiplicity = 1

                         Standard orientation:
 ---------------------------------------------------------------------
 Center     Atomic      Atomic             Coordinates (Angstroms)
 Number     Number       Type             X           Y           Z
 ---------------------------------------------------------------------
      1          6           0        0.669473    0.022332   -0.011450
      2          8           0       -0.743876   -0.145920    0.008026
      3          1           0        0.976621    0.582780    0.862099
      4          1           0        1.022958    0.485922   -0.836304
      5          1           0        1.091019   -0.918895    0.036791
      6          1           0       -1.156424    0.883565   -0.058089
 ---------------------------------------------------------------------

 SCF Done:  E(RB2PLYPD3) =  -115.527524387     A.U. after   11 cycles
 E2(B2PLYPD3) =    -0.1496824475D+00 E(B2PLYPD3) =    -0.11567720683439D+03

 The electronic state is 1-A.
 Alpha  occ. eigenvalues --  -19.73558 -10.63741  -1.13602  -0.78982  -0.56972
 Alpha  occ. eigenvalues --   -0.52308  -0.49656  -0.41051  -0.35093
 Alpha virt. eigenvalues --    0.03648   0.07910   0.12569   0.12676   0.14843
 Alpha virt. eigenvalues --    0.17485   0.18149   0.28750   0.30057   0.33167
 Alpha virt. eigenvalues --    0.34112   0.39252   0.40208   0.41956   0.44429

 Mulliken charges:
               1
     1  C    0.085388
     2  O   -0.490379
     3  H    0.042061
     4  H    0.046446
     5  H    0.066841
     6  H    0.249643
 Sum of Mulliken charges =   0.00000

 Dipole moment (field-independent basis, Debye):
    X=              0.9547    Y=              1.6223    Z=             -0.1612  Tot=              1.8893
 Quadrupole moment (field-independent basis, Debye-Ang):
   XX=            -13.0410   YY=            -11.9176   ZZ=            -13.8186
   XY=             -2.4050   XZ=              0.0234   YZ=             -0.1329

 Normal termination of Gaussian 09 at Thu Aug 27 00:11:08 2020.
