 Gaussian 09, Revision D.01,
 Gaussian 09:  ES64L-G09RevD.01 24-Apr-2013

 --------------------
 #p B2PLYPD3/Def2QZVP
 --------------------

 --------
 methanol
 --------
 Symbolic Z-matrix:
 Charge =  0 Multiplicity = 1

                         Standard orientation:
 ---------------------------------------------------------------------
 Center     Atomic      Atomic             Coordinates (Angstroms)
 Number     Number       Type             X           Y           Z
 ---------------------------------------------------------------------
      1          6           0       -0.668331   -0.019301   -0.002654
      2          8           0        0.735619    0.109691   -0.007645
      3          1           0       -0.901841   -0.587933    0.934675
      4          1           0       -1.052802   -0.523901   -0.915910
      5          1           0       -1.070554    0.993978    0.069377
      6          1           0        1.150231   -0.643872   -0.011062
 ---------------------------------------------------------------------

 SCF Done:  E(RB2PLYPD3) =  -115.539972066     A.U. after   10 cycles
 E2(B2PLYPD3) =    -0.1454643946D+00 E(B2PLYPD3) =    -0.11568543646022D+03

 The electronic state is 1-A.
 Alpha  occ. eigenvalues --  -19.71115 -10.66330  -1.18471  -0.79561  -0.59728
 Alpha  occ. eigenvalues --   -0.52148  -0.50575  -0.40504  -0.35252
 Alpha virt. eigenvalues --    0.05332   0.08726   0.12122   0.12450   0.14540
 Alpha virt. eigenvalues --    0.17055   0.17858   0.29099   0.32696   0.33695
 Alpha virt. eigenvalues --    0.37318   0.39556   0.39797   0.40340   0.43726

 Mulliken charges:
               1
     1  C    0.066415
     2  O   -0.412023
     3  H    0.045449
     4  H    0.050341
     5  H    0.076322
     6  H    0.173496
 Sum of Mulliken charges =   0.00000

 Dipole moment (field-independent basis, Debye):
    X=             -0.7953    Y=             -1.3656    Z=             -0.0035  Tot=              1.5803
 Quadrupole moment (field-independent basis, Debye-Ang):
   XX=            -12.9987   YY=            -12.4260   ZZ=            -13.6102
   XY=             -2.2484   XZ=              0.1276   YZ=              0.0549

 Normal termination of Gaussian 09 at Wed Aug 26 11:20:19 2020.
