 Gaussian 09, Revision D.01,
 Gaussian 09:  ES64L-G09RevD.01 24-Apr-2013

 --------------------
 #p B2PLYPD3/Def2QZVP
 --------------------

 --------
 methanol
 --------
 Symbolic Z-matrix:
 Charge =  0 Multiplicity = 1

                         Standard orientation:
 ---------------------------------------------------------------------
 Center     Atomic      Atomic             Coordinates (Angstroms)
 Number     Number       Type             X           Y           Z
 ---------------------------------------------------------------------
      1          6           0       -0.662446   -0.020993    0.008585
      2          8           0        0.752559    0.128567   -0.009144
      3          1           0       -0.999552   -0.494138    0.895541
      4          1           0       -1.037247   -0.563652   -0.888648
      5          1           0       -1.116326    0.947948   -0.020790
      6          1           0        1.107328   -0.792738    0.035539
 ---------------------------------------------------------------------

 SCF Done:  E(RB2PLYPD3) =  -115.550049545     A.U. after   10 cycles
 E2(B2PLYPD3) =    -0.1478073809D+00 E(B2PLYPD3) =    -0.11569785692611D+03

 The electronic state is 1-A.
 Alpha  occ. eigenvalues --  -19.72927 -10.65263  -1.15694  -0.78673  -0.58117
 Alpha  occ. eigenvalues --   -0.52012  -0.49964  -0.41171  -0.35454
 Alpha virt. eigenvalues --    0.04772   0.08142   0.12296   0.12614   0.14673
 Alpha virt. eigenvalues --    0.17607   0.18211   0.29053   0.32872   0.33317
 Alpha virt. eigenvalues --    0.34353   0.38899   0.40249   0.41139   0.44296

 Mulliken charges:
               1
     1  C    0.071370
     2  O   -0.464623
     3  H    0.049842
     4  H    0.043933
     5  H    0.067433
     6  H    0.232046
 Sum of Mulliken charges =   0.00000

 Dipole moment (field-independent basis, Debye):
    X=             -0.9548    Y=             -1.5224    Z=              0.1241  Tot=              1.8013
 Quadrupole moment (field-independent basis, Debye-Ang):
   XX=            -13.1450   YY=            -12.2021   ZZ=            -13.7464
   XY=             -2.3008   XZ=              0.0726   YZ=             -0.0919

 Normal termination of Gaussian 09 at Thu Aug 27 00:06:32 2020.
