 Gaussian 09, Revision D.01,
 Gaussian 09:  ES64L-G09RevD.01 24-Apr-2013

 --------------------
 #p B2PLYPD3/Def2QZVP
 --------------------

 --------
 methanol
 --------
 Symbolic Z-matrix:
 Charge =  0 Multiplicity = 1

                         Standard orientation:
 ---------------------------------------------------------------------
 Center     Atomic      Atomic             Coordinates (Angstroms)
 Number     Number       Type             X           Y           Z
 ---------------------------------------------------------------------
      1          6           0        0.663613    0.018471    0.016781
      2          8           0       -0.735414   -0.165299   -0.032205
      3          1           0        1.003147    0.290474    0.905456
      4          1           0        1.121246    0.748994   -0.734545
      5          1           0        1.119619   -0.790504   -0.146111
      6          1           0       -1.342381    0.962606    0.132152
 ---------------------------------------------------------------------

 SCF Done:  E(RB2PLYPD3) =  -115.464253232     A.U. after   12 cycles
 E2(B2PLYPD3) =    -0.1531020304D+00 E(B2PLYPD3) =    -0.11561735526187D+03

 The electronic state is 1-A.
 Alpha  occ. eigenvalues --  -19.74777 -10.62939  -1.12278  -0.79805  -0.54940
 Alpha  occ. eigenvalues --   -0.51328  -0.50684  -0.39488  -0.34866
 Alpha virt. eigenvalues --    0.00646   0.07352   0.12687   0.13199   0.14865
 Alpha virt. eigenvalues --    0.17539   0.18710   0.23958   0.29460   0.33332
 Alpha virt. eigenvalues --    0.34622   0.37698   0.40930   0.41666   0.43866

 Mulliken charges:
               1
     1  C    0.081065
     2  O   -0.495152
     3  H    0.049917
     4  H    0.030847
     5  H    0.071603
     6  H    0.261720
 Sum of Mulliken charges =   0.00000

 Dipole moment (field-independent basis, Debye):
    X=              0.7239    Y=              1.5559    Z=              0.3653  Tot=              1.7545
 Quadrupole moment (field-independent basis, Debye-Ang):
   XX=            -12.1643   YY=            -12.0886   ZZ=            -14.0012
   XY=             -2.8469   XZ=             -0.3102   YZ=              0.2473

 Normal termination of Gaussian 09 at Wed Aug 26 23:46:13 2020.
