 Gaussian 09, Revision D.01,
 Gaussian 09:  ES64L-G09RevD.01 24-Apr-2013

 --------------------
 #p B2PLYPD3/Def2QZVP
 --------------------

 --------
 methanol
 --------
 Symbolic Z-matrix:
 Charge =  0 Multiplicity = 1

                         Standard orientation:
 ---------------------------------------------------------------------
 Center     Atomic      Atomic             Coordinates (Angstroms)
 Number     Number       Type             X           Y           Z
 ---------------------------------------------------------------------
      1          6           0       -0.687711   -0.035139    0.007717
      2          8           0        0.738611    0.099898   -0.021820
      3          1           0       -1.043382   -0.257382    0.968844
      4          1           0       -0.949873   -0.871582   -0.723884
      5          1           0       -1.084749    1.063817   -0.266887
      6          1           0        1.295385   -0.523200    0.150186
 ---------------------------------------------------------------------

 SCF Done:  E(RB2PLYPD3) =  -115.522812720     A.U. after   11 cycles
 E2(B2PLYPD3) =    -0.1459244770D+00 E(B2PLYPD3) =    -0.11566873719729D+03

 The electronic state is 1-A.
 Alpha  occ. eigenvalues --  -19.70485 -10.67522  -1.17120  -0.79941  -0.60020
 Alpha  occ. eigenvalues --   -0.51968  -0.48798  -0.38909  -0.35334
 Alpha virt. eigenvalues --    0.05341   0.08404   0.11707   0.12329   0.14682
 Alpha virt. eigenvalues --    0.16629   0.17848   0.29188   0.31804   0.33225
 Alpha virt. eigenvalues --    0.35897   0.38530   0.39312   0.41521   0.42492

 Mulliken charges:
               1
     1  C    0.071676
     2  O   -0.431591
     3  H    0.063908
     4  H    0.053191
     5  H    0.074323
     6  H    0.168492
 Sum of Mulliken charges =   0.00000

 Dipole moment (field-independent basis, Debye):
    X=             -0.6683    Y=             -1.2872    Z=              0.4421  Tot=              1.5162
 Quadrupole moment (field-independent basis, Debye-Ang):
   XX=            -12.3107   YY=            -12.6529   ZZ=            -13.7274
   XY=             -2.0740   XZ=              0.3359   YZ=             -0.1443

 Normal termination of Gaussian 09 at Wed Aug 26 19:24:47 2020.
