 Gaussian 09, Revision D.01,
 Gaussian 09:  ES64L-G09RevD.01 24-Apr-2013

 --------------------
 #p B2PLYPD3/Def2QZVP
 --------------------

 --------
 methanol
 --------
 Symbolic Z-matrix:
 Charge =  0 Multiplicity = 1

                         Standard orientation:
 ---------------------------------------------------------------------
 Center     Atomic      Atomic             Coordinates (Angstroms)
 Number     Number       Type             X           Y           Z
 ---------------------------------------------------------------------
      1          6           0        0.659847   -0.001051   -0.000320
      2          8           0       -0.750459    0.076892   -0.006409
      3          1           0        1.095246   -0.654159   -0.878514
      4          1           0        1.029400   -0.472939    0.997725
      5          1           0        1.000151    1.071423   -0.083346
      6          1           0       -1.080209   -0.553155    0.017329
 ---------------------------------------------------------------------

 SCF Done:  E(RB2PLYPD3) =  -115.437239961     A.U. after   11 cycles
 E2(B2PLYPD3) =    -0.1440380023D+00 E(B2PLYPD3) =    -0.11558127796374D+03

 The electronic state is 1-A.
 Alpha  occ. eigenvalues --  -19.70049 -10.68234  -1.23952  -0.81124  -0.61547
 Alpha  occ. eigenvalues --   -0.50983  -0.50544  -0.41422  -0.35759
 Alpha virt. eigenvalues --    0.05376   0.09116   0.11830   0.12007   0.14797
 Alpha virt. eigenvalues --    0.16751   0.17752   0.28767   0.32654   0.33274
 Alpha virt. eigenvalues --    0.36676   0.38518   0.38953   0.40692   0.42265

 Mulliken charges:
               1
     1  C    0.050488
     2  O   -0.254592
     3  H    0.043496
     4  H    0.046283
     5  H    0.084388
     6  H    0.029936
 Sum of Mulliken charges =   0.00000

 Dipole moment (field-independent basis, Debye):
    X=              0.8731    Y=             -1.2013    Z=              0.0538  Tot=              1.4860
 Quadrupole moment (field-independent basis, Debye-Ang):
   XX=            -13.2069   YY=            -12.3854   ZZ=            -13.6865
   XY=              1.8752   XZ=             -0.1235   YZ=             -0.0432

 Normal termination of Gaussian 09 at Wed Aug 26 11:25:24 2020.
