 Gaussian 09, Revision D.01,
 Gaussian 09:  ES64L-G09RevD.01 24-Apr-2013

 --------------------
 #p B2PLYPD3/Def2QZVP
 --------------------

 --------
 methanol
 --------
 Symbolic Z-matrix:
 Charge =  0 Multiplicity = 1

                         Standard orientation:
 ---------------------------------------------------------------------
 Center     Atomic      Atomic             Coordinates (Angstroms)
 Number     Number       Type             X           Y           Z
 ---------------------------------------------------------------------
      1          6           0       -0.672137   -0.023558   -0.002922
      2          8           0        0.745923    0.135591    0.004139
      3          1           0       -0.997616   -0.546870    0.887491
      4          1           0       -0.984731   -0.527034   -0.883739
      5          1           0       -1.112788    0.932615   -0.000475
      6          1           0        1.160569   -0.802090   -0.018854
 ---------------------------------------------------------------------

 SCF Done:  E(RB2PLYPD3) =  -115.546742740     A.U. after   10 cycles
 E2(B2PLYPD3) =    -0.1482036096D+00 E(B2PLYPD3) =    -0.11569494634919D+03

 The electronic state is 1-A.
 Alpha  occ. eigenvalues --  -19.72835 -10.64723  -1.14586  -0.78775  -0.57435
 Alpha  occ. eigenvalues --   -0.52290  -0.50027  -0.40834  -0.35224
 Alpha virt. eigenvalues --    0.04543   0.08076   0.12383   0.12685   0.14646
 Alpha virt. eigenvalues --    0.17480   0.18086   0.29167   0.32526   0.33301
 Alpha virt. eigenvalues --    0.33491   0.39430   0.40457   0.41525   0.43948

 Mulliken charges:
               1
     1  C    0.077707
     2  O   -0.483651
     3  H    0.047328
     4  H    0.048440
     5  H    0.069949
     6  H    0.240226
 Sum of Mulliken charges =   0.00000

 Dipole moment (field-independent basis, Debye):
    X=             -0.9197    Y=             -1.5507    Z=             -0.0587  Tot=              1.8039
 Quadrupole moment (field-independent basis, Debye-Ang):
   XX=            -12.9754   YY=            -12.1635   ZZ=            -13.7270
   XY=             -2.4163   XZ=             -0.0364   YZ=              0.0375

 Normal termination of Gaussian 09 at Wed Aug 26 10:41:50 2020.
