 Gaussian 09, Revision D.01,
 Gaussian 09:  ES64L-G09RevD.01 24-Apr-2013

 --------------------
 #p B2PLYPD3/Def2QZVP
 --------------------

 --------
 methanol
 --------
 Symbolic Z-matrix:
 Charge =  0 Multiplicity = 1

                         Standard orientation:
 ---------------------------------------------------------------------
 Center     Atomic      Atomic             Coordinates (Angstroms)
 Number     Number       Type             X           Y           Z
 ---------------------------------------------------------------------
      1          6           0        0.700077    0.059250    0.003077
      2          8           0       -0.737286   -0.205699   -0.011544
      3          1           0        0.995607    0.398085    0.743094
      4          1           0        0.965895    0.686863   -0.662609
      5          1           0        1.141064   -0.877424   -0.074672
      6          1           0       -1.404737    1.082568    0.068076
 ---------------------------------------------------------------------

 SCF Done:  E(RB2PLYPD3) =  -115.387180606     A.U. after   12 cycles
 E2(B2PLYPD3) =    -0.1568310328D+00 E(B2PLYPD3) =    -0.11554401163891D+03

 The electronic state is 1-A.
 Alpha  occ. eigenvalues --  -19.75191 -10.60900  -1.09946  -0.82105  -0.54917
 Alpha  occ. eigenvalues --   -0.54129  -0.47556  -0.39080  -0.35392
 Alpha virt. eigenvalues --   -0.02072   0.07321   0.12238   0.13421   0.14724
 Alpha virt. eigenvalues --    0.17206   0.18223   0.21772   0.29343   0.32888
 Alpha virt. eigenvalues --    0.33810   0.38040   0.39343   0.44405   0.44833

 Mulliken charges:
               1
     1  C    0.073213
     2  O   -0.499747
     3  H    0.088843
     4  H    0.049456
     5  H    0.063101
     6  H    0.225134
 Sum of Mulliken charges =   0.00000

 Dipole moment (field-independent basis, Debye):
    X=              1.0745    Y=              1.7991    Z=              0.1869  Tot=              2.1038
 Quadrupole moment (field-independent basis, Debye-Ang):
   XX=            -12.2216   YY=            -11.4751   ZZ=            -14.0761
   XY=             -2.6034   XZ=             -0.0096   YZ=              0.0562

 Normal termination of Gaussian 09 at Wed Aug 26 21:27:56 2020.
