 Gaussian 09, Revision D.01,
 Gaussian 09:  ES64L-G09RevD.01 24-Apr-2013

 --------------------
 #p B2PLYPD3/Def2QZVP
 --------------------

 --------
 methanol
 --------
 Symbolic Z-matrix:
 Charge =  0 Multiplicity = 1

                         Standard orientation:
 ---------------------------------------------------------------------
 Center     Atomic      Atomic             Coordinates (Angstroms)
 Number     Number       Type             X           Y           Z
 ---------------------------------------------------------------------
      1          6           0        0.664015   -0.006409    0.001666
      2          8           0       -0.747909    0.088309   -0.008251
      3          1           0        1.072283   -0.678134   -0.864781
      4          1           0        1.030936   -0.395061    1.031204
      5          1           0        1.006212    1.010267   -0.148550
      6          1           0       -1.110248   -0.605090    0.038144
 ---------------------------------------------------------------------

 SCF Done:  E(RB2PLYPD3) =  -115.504015360     A.U. after   10 cycles
 E2(B2PLYPD3) =    -0.1448086030D+00 E(B2PLYPD3) =    -0.11564882396284D+03

 The electronic state is 1-A.
 Alpha  occ. eigenvalues --  -19.70762 -10.67462  -1.20990  -0.80302  -0.60522
 Alpha  occ. eigenvalues --   -0.51213  -0.50657  -0.41115  -0.35621
 Alpha virt. eigenvalues --    0.05410   0.08868   0.11848   0.12352   0.14621
 Alpha virt. eigenvalues --    0.16839   0.18030   0.28853   0.32810   0.33375
 Alpha virt. eigenvalues --    0.36502   0.38962   0.40044   0.40301   0.42913

 Mulliken charges:
               1
     1  C    0.054621
     2  O   -0.333142
     3  H    0.043675
     4  H    0.048347
     5  H    0.082859
     6  H    0.103639
 Sum of Mulliken charges =   0.00000

 Dipole moment (field-independent basis, Debye):
    X=              0.8415    Y=             -1.2411    Z=              0.0801  Tot=              1.5016
 Quadrupole moment (field-independent basis, Debye-Ang):
   XX=            -13.1295   YY=            -12.4706   ZZ=            -13.6157
   XY=              2.0479   XZ=             -0.1911   YZ=             -0.0841

 Normal termination of Gaussian 09 at Wed Aug 26 15:31:18 2020.
