 Gaussian 09, Revision D.01,
 Gaussian 09:  ES64L-G09RevD.01 24-Apr-2013

 --------------------
 #p B2PLYPD3/Def2QZVP
 --------------------

 --------
 methanol
 --------
 Symbolic Z-matrix:
 Charge =  0 Multiplicity = 1

                         Standard orientation:
 ---------------------------------------------------------------------
 Center     Atomic      Atomic             Coordinates (Angstroms)
 Number     Number       Type             X           Y           Z
 ---------------------------------------------------------------------
      1          6           0       -0.659814    0.019532    0.007770
      2          8           0        0.737960   -0.140971   -0.010758
      3          1           0       -1.046222    0.579734   -0.835739
      4          1           0       -0.980431    0.478954    0.865871
      5          1           0       -1.051784   -0.933559   -0.026662
      6          1           0        1.133642    0.885447    0.035981
 ---------------------------------------------------------------------

 SCF Done:  E(RB2PLYPD3) =  -115.530902685     A.U. after   11 cycles
 E2(B2PLYPD3) =    -0.1493710197D+00 E(B2PLYPD3) =    -0.11568027370486D+03

 The electronic state is 1-A.
 Alpha  occ. eigenvalues --  -19.73576 -10.63757  -1.14384  -0.78721  -0.57485
 Alpha  occ. eigenvalues --   -0.52286  -0.49800  -0.41107  -0.35084
 Alpha virt. eigenvalues --    0.03727   0.07992   0.12590   0.12654   0.15018
 Alpha virt. eigenvalues --    0.17350   0.18184   0.28840   0.30231   0.33362
 Alpha virt. eigenvalues --    0.34664   0.39091   0.40266   0.41862   0.44321

 Mulliken charges:
               1
     1  C    0.080513
     2  O   -0.480870
     3  H    0.039783
     4  H    0.044966
     5  H    0.067071
     6  H    0.248538
 Sum of Mulliken charges =   0.00000

 Dipole moment (field-independent basis, Debye):
    X=             -0.9112    Y=              1.6090    Z=              0.1284  Tot=              1.8536
 Quadrupole moment (field-independent basis, Debye-Ang):
   XX=            -13.1572   YY=            -11.8755   ZZ=            -13.8383
   XY=              2.3247   XZ=              0.0846   YZ=              0.0890

 Normal termination of Gaussian 09 at Thu Aug 27 00:11:39 2020.
