 Gaussian 09, Revision D.01,
 Gaussian 09:  ES64L-G09RevD.01 24-Apr-2013

 --------------------
 #p B2PLYPD3/Def2QZVP
 --------------------

 --------
 methanol
 --------
 Symbolic Z-matrix:
 Charge =  0 Multiplicity = 1

                         Standard orientation:
 ---------------------------------------------------------------------
 Center     Atomic      Atomic             Coordinates (Angstroms)
 Number     Number       Type             X           Y           Z
 ---------------------------------------------------------------------
      1          6           0       -0.668630    0.020812   -0.004082
      2          8           0        0.753226   -0.135668   -0.001227
      3          1           0       -1.028211    0.558385   -0.860316
      4          1           0       -1.088125    0.476823    0.886579
      5          1           0       -1.060938   -0.935588   -0.027775
      6          1           0        1.163249    0.860850    0.035823
 ---------------------------------------------------------------------

 SCF Done:  E(RB2PLYPD3) =  -115.537406773     A.U. after   11 cycles
 E2(B2PLYPD3) =    -0.1494983366D+00 E(B2PLYPD3) =    -0.11568690510958D+03

 The electronic state is 1-A.
 Alpha  occ. eigenvalues --  -19.73641 -10.64615  -1.13879  -0.78689  -0.57023
 Alpha  occ. eigenvalues --   -0.51639  -0.49554  -0.41119  -0.35328
 Alpha virt. eigenvalues --    0.04052   0.07794   0.12496   0.12647   0.14896
 Alpha virt. eigenvalues --    0.17252   0.18451   0.28848   0.30903   0.33434
 Alpha virt. eigenvalues --    0.33856   0.38661   0.40115   0.41298   0.43733

 Mulliken charges:
               1
     1  C    0.072387
     2  O   -0.484156
     3  H    0.048179
     4  H    0.046300
     5  H    0.069109
     6  H    0.248181
 Sum of Mulliken charges =   0.00000

 Dipole moment (field-independent basis, Debye):
    X=             -0.9304    Y=              1.5686    Z=              0.0482  Tot=              1.8244
 Quadrupole moment (field-independent basis, Debye-Ang):
   XX=            -12.9626   YY=            -12.0559   ZZ=            -13.8681
   XY=              2.3657   XZ=              0.0444   YZ=              0.0177

 Normal termination of Gaussian 09 at Wed Aug 26 15:21:07 2020.
