 Gaussian 09, Revision D.01,
 Gaussian 09:  ES64L-G09RevD.01 24-Apr-2013

 --------------------
 #p B2PLYPD3/Def2QZVP
 --------------------

 --------
 methanol
 --------
 Symbolic Z-matrix:
 Charge =  0 Multiplicity = 1

                         Standard orientation:
 ---------------------------------------------------------------------
 Center     Atomic      Atomic             Coordinates (Angstroms)
 Number     Number       Type             X           Y           Z
 ---------------------------------------------------------------------
      1          6           0        0.684357   -0.003919   -0.010273
      2          8           0       -0.764758   -0.154935    0.017239
      3          1           0        1.118087    0.574572    0.871644
      4          1           0        1.033080    0.562253   -0.821741
      5          1           0        1.138817   -0.824964   -0.057621
      6          1           0       -1.278065    0.951127   -0.068556
 ---------------------------------------------------------------------

 SCF Done:  E(RB2PLYPD3) =  -115.485013887     A.U. after   11 cycles
 E2(B2PLYPD3) =    -0.1525865191D+00 E(B2PLYPD3) =    -0.11563760040601D+03

 The electronic state is 1-A.
 Alpha  occ. eigenvalues --  -19.74597 -10.64107  -1.11313  -0.79719  -0.55147
 Alpha  occ. eigenvalues --   -0.50786  -0.49633  -0.40693  -0.34777
 Alpha virt. eigenvalues --    0.01909   0.07251   0.12622   0.12881   0.14632
 Alpha virt. eigenvalues --    0.17895   0.18264   0.25709   0.29441   0.32640
 Alpha virt. eigenvalues --    0.33216   0.38200   0.39523   0.41484   0.42822

 Mulliken charges:
               1
     1  C    0.084779
     2  O   -0.505853
     3  H    0.036993
     4  H    0.041109
     5  H    0.080876
     6  H    0.262096
 Sum of Mulliken charges =   0.00000

 Dipole moment (field-independent basis, Debye):
    X=              0.9064    Y=              1.6164    Z=             -0.2454  Tot=              1.8693
 Quadrupole moment (field-independent basis, Debye-Ang):
   XX=            -12.4418   YY=            -11.9041   ZZ=            -14.1739
   XY=             -2.7311   XZ=              0.0856   YZ=             -0.1275

 Normal termination of Gaussian 09 at Wed Aug 26 23:44:19 2020.
