 Gaussian 09, Revision D.01,
 Gaussian 09:  ES64L-G09RevD.01 24-Apr-2013

 --------------------
 #p B2PLYPD3/Def2QZVP
 --------------------

 --------
 methanol
 --------
 Symbolic Z-matrix:
 Charge =  0 Multiplicity = 1

                         Standard orientation:
 ---------------------------------------------------------------------
 Center     Atomic      Atomic             Coordinates (Angstroms)
 Number     Number       Type             X           Y           Z
 ---------------------------------------------------------------------
      1          6           0       -0.657081   -0.022130   -0.002837
      2          8           0        0.742369    0.111443   -0.001400
      3          1           0       -1.029622   -0.539988    0.911655
      4          1           0       -0.989119   -0.594078   -0.892416
      5          1           0       -1.128429    1.019935   -0.018757
      6          1           0        1.150704   -0.644629    0.027736
 ---------------------------------------------------------------------

 SCF Done:  E(RB2PLYPD3) =  -115.539982918     A.U. after   10 cycles
 E2(B2PLYPD3) =    -0.1456090164D+00 E(B2PLYPD3) =    -0.11568559193429D+03

 The electronic state is 1-A.
 Alpha  occ. eigenvalues --  -19.71559 -10.66770  -1.18838  -0.79252  -0.60352
 Alpha  occ. eigenvalues --   -0.51806  -0.50074  -0.40529  -0.35465
 Alpha virt. eigenvalues --    0.05306   0.08573   0.12242   0.12285   0.14767
 Alpha virt. eigenvalues --    0.17312   0.17873   0.29067   0.33043   0.33867
 Alpha virt. eigenvalues --    0.36787   0.38628   0.39781   0.40375   0.43149

 Mulliken charges:
               1
     1  C    0.066129
     2  O   -0.405890
     3  H    0.046134
     4  H    0.048253
     5  H    0.070584
     6  H    0.174791
 Sum of Mulliken charges =   0.00000

 Dipole moment (field-independent basis, Debye):
    X=             -0.7748    Y=             -1.4134    Z=              0.0502  Tot=              1.6126
 Quadrupole moment (field-independent basis, Debye-Ang):
   XX=            -12.8943   YY=            -12.4588   ZZ=            -13.7673
   XY=             -2.1972   XZ=              0.0446   YZ=             -0.0151

 Normal termination of Gaussian 09 at Thu Aug 27 00:01:04 2020.
