 Gaussian 09, Revision D.01,
 Gaussian 09:  ES64L-G09RevD.01 24-Apr-2013

 --------------------
 #p B2PLYPD3/Def2QZVP
 --------------------

 --------
 methanol
 --------
 Symbolic Z-matrix:
 Charge =  0 Multiplicity = 1

                         Standard orientation:
 ---------------------------------------------------------------------
 Center     Atomic      Atomic             Coordinates (Angstroms)
 Number     Number       Type             X           Y           Z
 ---------------------------------------------------------------------
      1          6           0       -0.663701   -0.017821    0.001811
      2          8           0        0.750654    0.116135   -0.015344
      3          1           0       -0.976048   -0.462992    0.949676
      4          1           0       -1.043325   -0.635974   -0.860642
      5          1           0       -1.121932    0.979090   -0.045890
      6          1           0        1.118277   -0.702279    0.068739
 ---------------------------------------------------------------------

 SCF Done:  E(RB2PLYPD3) =  -115.549097851     A.U. after   10 cycles
 E2(B2PLYPD3) =    -0.1463797727D+00 E(B2PLYPD3) =    -0.11569547762421D+03

 The electronic state is 1-A.
 Alpha  occ. eigenvalues --  -19.72025 -10.66245  -1.17505  -0.78919  -0.59297
 Alpha  occ. eigenvalues --   -0.51738  -0.50211  -0.41035  -0.35482
 Alpha virt. eigenvalues --    0.05191   0.08437   0.12172   0.12476   0.14629
 Alpha virt. eigenvalues --    0.17432   0.18011   0.29063   0.33090   0.33280
 Alpha virt. eigenvalues --    0.36220   0.39138   0.39711   0.40418   0.43962

 Mulliken charges:
               1
     1  C    0.068547
     2  O   -0.434160
     3  H    0.048305
     4  H    0.045929
     5  H    0.072121
     6  H    0.199258
 Sum of Mulliken charges =   0.00000

 Dipole moment (field-independent basis, Debye):
    X=             -0.9026    Y=             -1.4309    Z=              0.1879  Tot=              1.7022
 Quadrupole moment (field-independent basis, Debye-Ang):
   XX=            -13.0728   YY=            -12.3518   ZZ=            -13.7196
   XY=             -2.2462   XZ=              0.2246   YZ=             -0.0897

 Normal termination of Gaussian 09 at Wed Aug 26 15:42:55 2020.
