 Gaussian 09, Revision D.01,
 Gaussian 09:  ES64L-G09RevD.01 24-Apr-2013

 --------------------
 #p B2PLYPD3/Def2QZVP
 --------------------

 --------
 methanol
 --------
 Symbolic Z-matrix:
 Charge =  0 Multiplicity = 1

                         Standard orientation:
 ---------------------------------------------------------------------
 Center     Atomic      Atomic             Coordinates (Angstroms)
 Number     Number       Type             X           Y           Z
 ---------------------------------------------------------------------
      1          6           0       -0.656050   -0.052646    0.008511
      2          8           0        0.722662    0.119499   -0.012649
      3          1           0       -0.861186   -0.548264    0.895244
      4          1           0       -0.959259   -0.602962   -0.872969
      5          1           0       -1.200746    1.072727   -0.003129
      6          1           0        1.176195   -0.561614    0.030983
 ---------------------------------------------------------------------

 SCF Done:  E(RB2PLYPD3) =  -115.511167990     A.U. after   11 cycles
 E2(B2PLYPD3) =    -0.1447604935D+00 E(B2PLYPD3) =    -0.11565592848358D+03

 The electronic state is 1-A.
 Alpha  occ. eigenvalues --  -19.70535 -10.66614  -1.20155  -0.80247  -0.61148
 Alpha  occ. eigenvalues --   -0.53901  -0.49212  -0.39225  -0.35634
 Alpha virt. eigenvalues --    0.05313   0.08759   0.11837   0.12375   0.14613
 Alpha virt. eigenvalues --    0.17314   0.17509   0.28989   0.32843   0.34061
 Alpha virt. eigenvalues --    0.34274   0.38745   0.40729   0.41819   0.45019

 Mulliken charges:
               1
     1  C    0.068984
     2  O   -0.373149
     3  H    0.056363
     4  H    0.053300
     5  H    0.056270
     6  H    0.138234
 Sum of Mulliken charges =   0.00000

 Dipole moment (field-independent basis, Debye):
    X=             -0.6472    Y=             -1.4823    Z=              0.1264  Tot=              1.6224
 Quadrupole moment (field-independent basis, Debye-Ang):
   XX=            -12.8356   YY=            -12.6177   ZZ=            -13.5658
   XY=             -2.1049   XZ=              0.1726   YZ=             -0.0640

 Normal termination of Gaussian 09 at Wed Aug 26 22:23:56 2020.
