 Gaussian 09, Revision D.01,
 Gaussian 09:  ES64L-G09RevD.01 24-Apr-2013

 --------------------
 #p B2PLYPD3/Def2QZVP
 --------------------

 --------
 methanol
 --------
 Symbolic Z-matrix:
 Charge =  0 Multiplicity = 1

                         Standard orientation:
 ---------------------------------------------------------------------
 Center     Atomic      Atomic             Coordinates (Angstroms)
 Number     Number       Type             X           Y           Z
 ---------------------------------------------------------------------
      1          6           0       -0.651368    0.012667    0.010914
      2          8           0        0.737806   -0.130964   -0.010769
      3          1           0       -1.042202    0.599744   -0.885732
      4          1           0       -1.046148    0.475539    0.898592
      5          1           0       -1.092533   -0.907328   -0.049972
      6          1           0        1.186643    0.803753    0.057784
 ---------------------------------------------------------------------

 SCF Done:  E(RB2PLYPD3) =  -115.541556559     A.U. after   11 cycles
 E2(B2PLYPD3) =    -0.1482913817D+00 E(B2PLYPD3) =    -0.11568984794108D+03

 The electronic state is 1-A.
 Alpha  occ. eigenvalues --  -19.73346 -10.64926  -1.15479  -0.78616  -0.58013
 Alpha  occ. eigenvalues --   -0.51297  -0.51026  -0.40611  -0.34934
 Alpha virt. eigenvalues --    0.04341   0.07909   0.12423   0.12862   0.14932
 Alpha virt. eigenvalues --    0.17461   0.18369   0.29043   0.31901   0.33185
 Alpha virt. eigenvalues --    0.34746   0.38621   0.40693   0.40852   0.43747

 Mulliken charges:
               1
     1  C    0.068888
     2  O   -0.468780
     3  H    0.034508
     4  H    0.044673
     5  H    0.072157
     6  H    0.248554
 Sum of Mulliken charges =   0.00000

 Dipole moment (field-independent basis, Debye):
    X=             -0.7265    Y=              1.4812    Z=              0.1784  Tot=              1.6594
 Quadrupole moment (field-independent basis, Debye-Ang):
   XX=            -12.7779   YY=            -12.2725   ZZ=            -13.8886
   XY=              2.4900   XZ=              0.0804   YZ=              0.1433

 Normal termination of Gaussian 09 at Wed Aug 26 11:17:18 2020.
