 Gaussian 09, Revision D.01,
 Gaussian 09:  ES64L-G09RevD.01 24-Apr-2013

 --------------------
 #p B2PLYPD3/Def2QZVP
 --------------------

 --------
 methanol
 --------
 Symbolic Z-matrix:
 Charge =  0 Multiplicity = 1

                         Standard orientation:
 ---------------------------------------------------------------------
 Center     Atomic      Atomic             Coordinates (Angstroms)
 Number     Number       Type             X           Y           Z
 ---------------------------------------------------------------------
      1          6           0        0.666900   -0.040467    0.002166
      2          8           0       -0.779152    0.093412   -0.000074
      3          1           0        1.063915   -0.695911   -0.805915
      4          1           0        1.175309   -0.312489    0.945341
      5          1           0        1.034140    1.145010   -0.202783
      6          1           0       -1.041544   -0.641104    0.050953
 ---------------------------------------------------------------------

 SCF Done:  E(RB2PLYPD3) =  -115.488982587     A.U. after   11 cycles
 E2(B2PLYPD3) =    -0.1461708781D+00 E(B2PLYPD3) =    -0.11563515346483D+03

 The electronic state is 1-A.
 Alpha  occ. eigenvalues --  -19.71613 -10.68304  -1.21163  -0.79020  -0.61110
 Alpha  occ. eigenvalues --   -0.51645  -0.48221  -0.41008  -0.36694
 Alpha virt. eigenvalues --    0.05112   0.08461   0.11099   0.12221   0.14961
 Alpha virt. eigenvalues --    0.16962   0.18426   0.28405   0.30982   0.33688
 Alpha virt. eigenvalues --    0.34525   0.39040   0.39377   0.40161   0.41976

 Mulliken charges:
               1
     1  C    0.039922
     2  O   -0.320636
     3  H    0.062420
     4  H    0.067810
     5  H    0.051228
     6  H    0.099257
 Sum of Mulliken charges =   0.00000

 Dipole moment (field-independent basis, Debye):
    X=              1.0467    Y=             -1.4823    Z=              0.1191  Tot=              1.8185
 Quadrupole moment (field-independent basis, Debye-Ang):
   XX=            -13.3113   YY=            -12.4176   ZZ=            -13.7898
   XY=              1.6615   XZ=              0.0084   YZ=              0.0053

 Normal termination of Gaussian 09 at Wed Aug 26 22:21:38 2020.
