 Gaussian 09, Revision D.01,
 Gaussian 09:  ES64L-G09RevD.01 24-Apr-2013

 --------------------
 #p B2PLYPD3/Def2QZVP
 --------------------

 --------
 methanol
 --------
 Symbolic Z-matrix:
 Charge =  0 Multiplicity = 1

                         Standard orientation:
 ---------------------------------------------------------------------
 Center     Atomic      Atomic             Coordinates (Angstroms)
 Number     Number       Type             X           Y           Z
 ---------------------------------------------------------------------
      1          6           0        0.663525    0.018933   -0.008463
      2          8           0       -0.744989   -0.144058    0.004744
      3          1           0        1.061274    0.541560    0.833248
      4          1           0        0.982879    0.543521   -0.829060
      5          1           0        1.075649   -0.945392    0.001073
      6          1           0       -1.141036    0.899180    0.007563
 ---------------------------------------------------------------------

 SCF Done:  E(RB2PLYPD3) =  -115.528393088     A.U. after   11 cycles
 E2(B2PLYPD3) =    -0.1498553275D+00 E(B2PLYPD3) =    -0.11567824841553D+03

 The electronic state is 1-A.
 Alpha  occ. eigenvalues --  -19.73775 -10.63889  -1.13845  -0.78757  -0.57274
 Alpha  occ. eigenvalues --   -0.52009  -0.49422  -0.41250  -0.35100
 Alpha virt. eigenvalues --    0.03543   0.07870   0.12488   0.12739   0.15048
 Alpha virt. eigenvalues --    0.17441   0.18096   0.28607   0.29984   0.33387
 Alpha virt. eigenvalues --    0.34300   0.39109   0.39805   0.41876   0.44326

 Mulliken charges:
               1
     1  C    0.084905
     2  O   -0.485550
     3  H    0.039741
     4  H    0.044494
     5  H    0.066857
     6  H    0.249553
 Sum of Mulliken charges =   0.00000

 Dipole moment (field-independent basis, Debye):
    X=              0.9485    Y=              1.6526    Z=             -0.0304  Tot=              1.9056
 Quadrupole moment (field-independent basis, Debye-Ang):
   XX=            -13.1101   YY=            -11.8065   ZZ=            -13.9469
   XY=             -2.3155   XZ=              0.0158   YZ=             -0.0415

 Normal termination of Gaussian 09 at Wed Aug 26 23:58:34 2020.
