 Gaussian 09, Revision D.01,
 Gaussian 09:  ES64L-G09RevD.01 24-Apr-2013

 --------------------
 #p B2PLYPD3/Def2QZVP
 --------------------

 --------
 methanol
 --------
 Symbolic Z-matrix:
 Charge =  0 Multiplicity = 1

                         Standard orientation:
 ---------------------------------------------------------------------
 Center     Atomic      Atomic             Coordinates (Angstroms)
 Number     Number       Type             X           Y           Z
 ---------------------------------------------------------------------
      1          6           0        0.642701   -0.031489    0.001173
      2          8           0       -0.751943    0.103375   -0.003701
      3          1           0        1.024593   -0.629065   -0.860672
      4          1           0        1.055941   -0.451046    0.936273
      5          1           0        1.119348    1.076013   -0.087403
      6          1           0       -1.040540   -0.633965    0.034368
 ---------------------------------------------------------------------

 SCF Done:  E(RB2PLYPD3) =  -115.506776410     A.U. after   10 cycles
 E2(B2PLYPD3) =    -0.1450826340D+00 E(B2PLYPD3) =    -0.11565185904351D+03

 The electronic state is 1-A.
 Alpha  occ. eigenvalues --  -19.71487 -10.67411  -1.21955  -0.79325  -0.61579
 Alpha  occ. eigenvalues --   -0.52262  -0.49706  -0.40834  -0.36172
 Alpha virt. eigenvalues --    0.05280   0.08851   0.11766   0.12206   0.14817
 Alpha virt. eigenvalues --    0.17412   0.18071   0.28695   0.33265   0.33497
 Alpha virt. eigenvalues --    0.35754   0.38709   0.40100   0.40394   0.42992

 Mulliken charges:
               1
     1  C    0.053541
     2  O   -0.327119
     3  H    0.050709
     4  H    0.053600
     5  H    0.056033
     6  H    0.113235
 Sum of Mulliken charges =   0.00000

 Dipole moment (field-independent basis, Debye):
    X=              0.8877    Y=             -1.4372    Z=              0.0860  Tot=              1.6914
 Quadrupole moment (field-independent basis, Debye-Ang):
   XX=            -13.3028   YY=            -12.4589   ZZ=            -13.7079
   XY=              1.8861   XZ=             -0.0562   YZ=             -0.0292

 Normal termination of Gaussian 09 at Wed Aug 26 15:49:01 2020.
