 Gaussian 09, Revision D.01,
 Gaussian 09:  ES64L-G09RevD.01 24-Apr-2013

 --------------------
 #p B2PLYPD3/Def2QZVP
 --------------------

 --------
 methanol
 --------
 Symbolic Z-matrix:
 Charge =  0 Multiplicity = 1

                         Standard orientation:
 ---------------------------------------------------------------------
 Center     Atomic      Atomic             Coordinates (Angstroms)
 Number     Number       Type             X           Y           Z
 ---------------------------------------------------------------------
      1          6           0       -0.671229   -0.022348    0.010304
      2          8           0        0.745178    0.083841   -0.008642
      3          1           0       -1.039654   -0.472691    0.963069
      4          1           0       -0.996961   -0.696105   -0.894794
      5          1           0       -1.095195    1.104430   -0.120028
      6          1           0        1.197758   -0.472278    0.059067
 ---------------------------------------------------------------------

 SCF Done:  E(RB2PLYPD3) =  -115.438400329     A.U. after   11 cycles
 E2(B2PLYPD3) =    -0.1443281862D+00 E(B2PLYPD3) =    -0.11558272851495D+03

 The electronic state is 1-A.
 Alpha  occ. eigenvalues --  -19.69520 -10.68910  -1.22399  -0.81500  -0.61445
 Alpha  occ. eigenvalues --   -0.51344  -0.49647  -0.39511  -0.35762
 Alpha virt. eigenvalues --    0.05293   0.09068   0.11641   0.11994   0.14497
 Alpha virt. eigenvalues --    0.16765   0.17637   0.28997   0.32269   0.33056
 Alpha virt. eigenvalues --    0.35542   0.37993   0.39718   0.40196   0.41978

 Mulliken charges:
               1
     1  C    0.057370
     2  O   -0.273550
     3  H    0.059657
     4  H    0.049062
     5  H    0.077892
     6  H    0.029570
 Sum of Mulliken charges =   0.00000

 Dipole moment (field-independent basis, Debye):
    X=             -0.7555    Y=             -1.1991    Z=              0.2018  Tot=              1.4316
 Quadrupole moment (field-independent basis, Debye-Ang):
   XX=            -12.6748   YY=            -12.6960   ZZ=            -13.6301
   XY=             -1.9294   XZ=              0.1143   YZ=             -0.1295

 Normal termination of Gaussian 09 at Wed Aug 26 13:19:57 2020.
