 Gaussian 09, Revision D.01,
 Gaussian 09:  ES64L-G09RevD.01 24-Apr-2013

 --------------------
 #p B2PLYPD3/Def2QZVP
 --------------------

 --------
 methanol
 --------
 Symbolic Z-matrix:
 Charge =  0 Multiplicity = 1

                         Standard orientation:
 ---------------------------------------------------------------------
 Center     Atomic      Atomic             Coordinates (Angstroms)
 Number     Number       Type             X           Y           Z
 ---------------------------------------------------------------------
      1          6           0        0.669153    0.040901    0.001802
      2          8           0       -0.743931   -0.163741    0.000394
      3          1           0        0.995603    0.475026    0.821840
      4          1           0        0.954851    0.543065   -0.803641
      5          1           0        1.121014   -0.920897   -0.040896
      6          1           0       -1.134936    0.967331    0.008733
 ---------------------------------------------------------------------

 SCF Done:  E(RB2PLYPD3) =  -115.499218639     A.U. after   11 cycles
 E2(B2PLYPD3) =    -0.1513508720D+00 E(B2PLYPD3) =    -0.11565056951083D+03

 The electronic state is 1-A.
 Alpha  occ. eigenvalues --  -19.74128 -10.62676  -1.12709  -0.79510  -0.55836
 Alpha  occ. eigenvalues --   -0.54029  -0.48684  -0.40598  -0.35443
 Alpha virt. eigenvalues --    0.02488   0.07783   0.12545   0.12737   0.14761
 Alpha virt. eigenvalues --    0.17695   0.18184   0.26420   0.29491   0.33481
 Alpha virt. eigenvalues --    0.33953   0.38965   0.40230   0.43715   0.44050

 Mulliken charges:
               1
     1  C    0.100503
     2  O   -0.495158
     3  H    0.046250
     4  H    0.044864
     5  H    0.055841
     6  H    0.247702
 Sum of Mulliken charges =   0.00000

 Dipole moment (field-independent basis, Debye):
    X=              1.0760    Y=              1.7428    Z=              0.0146  Tot=              2.0482
 Quadrupole moment (field-independent basis, Debye-Ang):
   XX=            -13.1971   YY=            -11.7206   ZZ=            -13.7741
   XY=             -2.3211   XZ=              0.0186   YZ=              0.0090

 Normal termination of Gaussian 09 at Wed Aug 26 11:44:03 2020.
