 Gaussian 09, Revision D.01,
 Gaussian 09:  ES64L-G09RevD.01 24-Apr-2013

 --------------------
 #p B2PLYPD3/Def2QZVP
 --------------------

 --------
 methanol
 --------
 Symbolic Z-matrix:
 Charge =  0 Multiplicity = 1

                         Standard orientation:
 ---------------------------------------------------------------------
 Center     Atomic      Atomic             Coordinates (Angstroms)
 Number     Number       Type             X           Y           Z
 ---------------------------------------------------------------------
      1          6           0        0.665129   -0.006535    0.009907
      2          8           0       -0.740431    0.100074   -0.017586
      3          1           0        1.004511   -0.754013   -0.826797
      4          1           0        0.995483   -0.371639    0.994237
      5          1           0        1.062588    0.984191   -0.182584
      6          1           0       -1.129905   -0.619916    0.096389
 ---------------------------------------------------------------------

 SCF Done:  E(RB2PLYPD3) =  -115.528028634     A.U. after   10 cycles
 E2(B2PLYPD3) =    -0.1450503774D+00 E(B2PLYPD3) =    -0.11567307901163D+03

 The electronic state is 1-A.
 Alpha  occ. eigenvalues --  -19.70960 -10.66770  -1.19562  -0.79942  -0.60275
 Alpha  occ. eigenvalues --   -0.51538  -0.50944  -0.40889  -0.35293
 Alpha virt. eigenvalues --    0.05360   0.08846   0.12015   0.12406   0.14659
 Alpha virt. eigenvalues --    0.17069   0.17744   0.29027   0.32770   0.33472
 Alpha virt. eigenvalues --    0.37174   0.39475   0.39963   0.40332   0.43323

 Mulliken charges:
               1
     1  C    0.066594
     2  O   -0.382159
     3  H    0.036933
     4  H    0.050893
     5  H    0.081112
     6  H    0.146629
 Sum of Mulliken charges =   0.00000

 Dipole moment (field-independent basis, Debye):
    X=              0.8172    Y=             -1.2844    Z=              0.2721  Tot=              1.5464
 Quadrupole moment (field-independent basis, Debye-Ang):
   XX=            -13.0618   YY=            -12.4213   ZZ=            -13.6378
   XY=              2.1819   XZ=             -0.2660   YZ=             -0.2117

 Normal termination of Gaussian 09 at Wed Aug 26 23:59:47 2020.
