 Gaussian 09, Revision D.01,
 Gaussian 09:  ES64L-G09RevD.01 24-Apr-2013

 --------------------
 #p B2PLYPD3/Def2QZVP
 --------------------

 --------
 methanol
 --------
 Symbolic Z-matrix:
 Charge =  0 Multiplicity = 1

                         Standard orientation:
 ---------------------------------------------------------------------
 Center     Atomic      Atomic             Coordinates (Angstroms)
 Number     Number       Type             X           Y           Z
 ---------------------------------------------------------------------
      1          6           0        0.668043   -0.029502   -0.012323
      2          8           0       -0.743876    0.131161    0.007271
      3          1           0        1.011286   -0.503541   -0.850402
      4          1           0        1.050582   -0.566341    0.854536
      5          1           0        1.058708    0.999646    0.030675
      6          1           0       -1.177831   -0.802039   -0.019041
 ---------------------------------------------------------------------

 SCF Done:  E(RB2PLYPD3) =  -115.544153737     A.U. after   10 cycles
 E2(B2PLYPD3) =    -0.1483645237D+00 E(B2PLYPD3) =    -0.11569251826033D+03

 The electronic state is 1-A.
 Alpha  occ. eigenvalues --  -19.73040 -10.64815  -1.14750  -0.78679  -0.58198
 Alpha  occ. eigenvalues --   -0.52137  -0.49102  -0.40891  -0.35347
 Alpha virt. eigenvalues --    0.04512   0.08017   0.12295   0.12640   0.15084
 Alpha virt. eigenvalues --    0.17119   0.18184   0.29141   0.32612   0.33575
 Alpha virt. eigenvalues --    0.34032   0.38268   0.39589   0.41764   0.44692

 Mulliken charges:
               1
     1  C    0.074445
     2  O   -0.477892
     3  H    0.052807
     4  H    0.045220
     5  H    0.066173
     6  H    0.239246
 Sum of Mulliken charges =   0.00000

 Dipole moment (field-independent basis, Debye):
    X=              0.8514    Y=             -1.5949    Z=             -0.0977  Tot=              1.8106
 Quadrupole moment (field-independent basis, Debye-Ang):
   XX=            -12.9166   YY=            -12.0977   ZZ=            -13.8478
   XY=              2.2520   XZ=              0.0259   YZ=              0.0908

 Normal termination of Gaussian 09 at Wed Aug 26 23:58:24 2020.
