 Gaussian 09, Revision D.01,
 Gaussian 09:  ES64L-G09RevD.01 24-Apr-2013

 --------------------
 #p B2PLYPD3/Def2QZVP
 --------------------

 --------
 methanol
 --------
 Symbolic Z-matrix:
 Charge =  0 Multiplicity = 1

                         Standard orientation:
 ---------------------------------------------------------------------
 Center     Atomic      Atomic             Coordinates (Angstroms)
 Number     Number       Type             X           Y           Z
 ---------------------------------------------------------------------
      1          6           0        0.669477    0.023591    0.000385
      2          8           0       -0.742359   -0.143657    0.000206
      3          1           0        1.028123    0.529165    0.839490
      4          1           0        1.038475    0.532475   -0.833037
      5          1           0        1.039184   -0.948632   -0.004793
      6          1           0       -1.183773    0.894707   -0.005614
 ---------------------------------------------------------------------

 SCF Done:  E(RB2PLYPD3) =  -115.526244182     A.U. after   11 cycles
 E2(B2PLYPD3) =    -0.1500591475D+00 E(B2PLYPD3) =    -0.11567630332907D+03

 The electronic state is 1-A.
 Alpha  occ. eigenvalues --  -19.73732 -10.63735  -1.13432  -0.78825  -0.57096
 Alpha  occ. eigenvalues --   -0.52060  -0.49253  -0.41018  -0.35145
 Alpha virt. eigenvalues --    0.03468   0.07837   0.12511   0.12764   0.15096
 Alpha virt. eigenvalues --    0.17151   0.18225   0.28454   0.29888   0.33607
 Alpha virt. eigenvalues --    0.34163   0.39073   0.39608   0.42151   0.44347

 Mulliken charges:
               1
     1  C    0.081854
     2  O   -0.490103
     3  H    0.045610
     4  H    0.044968
     5  H    0.068247
     6  H    0.249424
 Sum of Mulliken charges =   0.00000

 Dipole moment (field-independent basis, Debye):
    X=              0.9126    Y=              1.6404    Z=             -0.0097  Tot=              1.8772
 Quadrupole moment (field-independent basis, Debye-Ang):
   XX=            -12.9534   YY=            -11.8562   ZZ=            -13.9094
   XY=             -2.3361   XZ=              0.0021   YZ=             -0.0034

 Normal termination of Gaussian 09 at Wed Aug 26 23:06:37 2020.
