 Gaussian 09, Revision D.01,
 Gaussian 09:  ES64L-G09RevD.01 24-Apr-2013

 --------------------
 #p B2PLYPD3/Def2QZVP
 --------------------

 --------
 methanol
 --------
 Symbolic Z-matrix:
 Charge =  0 Multiplicity = 1

                         Standard orientation:
 ---------------------------------------------------------------------
 Center     Atomic      Atomic             Coordinates (Angstroms)
 Number     Number       Type             X           Y           Z
 ---------------------------------------------------------------------
      1          6           0       -0.620556   -0.021971   -0.006219
      2          8           0        0.739025   -0.005091    0.070241
      3          1           0       -1.032044   -0.871116   -0.725372
      4          1           0       -0.987000    1.198710   -0.370370
      5          1           0       -1.163939   -0.179102    0.982540
      6          1           0        0.994114    0.024065   -0.411412
 ---------------------------------------------------------------------

 SCF Done:  E(RB2PLYPD3) =  -115.004367396     A.U. after   11 cycles
 E2(B2PLYPD3) =    -0.1430126141D+00 E(B2PLYPD3) =    -0.11514738000960D+03

 The electronic state is 1-A.
 Alpha  occ. eigenvalues --  -19.69682 -10.70124  -1.34057  -0.84712  -0.63388
 Alpha  occ. eigenvalues --   -0.52856  -0.51840  -0.40715  -0.35474
 Alpha virt. eigenvalues --    0.04994   0.09623   0.10791   0.12061   0.13978
 Alpha virt. eigenvalues --    0.17395   0.17861   0.27216   0.30941   0.33517
 Alpha virt. eigenvalues --    0.35444   0.37068   0.38100   0.41488   0.44384

 Mulliken charges:
               1
     1  C    0.038339
     2  O   -0.060589
     3  H    0.047114
     4  H    0.015955
     5  H    0.088205
     6  H   -0.129025
 Sum of Mulliken charges =   0.00000

 Dipole moment (field-independent basis, Debye):
    X=             -0.7858    Y=             -0.1825    Z=             -0.9080  Tot=              1.2146
 Quadrupole moment (field-independent basis, Debye-Ang):
   XX=            -13.3007   YY=            -13.5173   ZZ=            -12.8512
   XY=              0.4939   XZ=             -1.9581   YZ=              0.1060

 Normal termination of Gaussian 09 at Wed Aug 26 20:21:45 2020.
