 Gaussian 09, Revision D.01,
 Gaussian 09:  ES64L-G09RevD.01 24-Apr-2013

 --------------------
 #p B2PLYPD3/Def2QZVP
 --------------------

 --------
 methanol
 --------
 Symbolic Z-matrix:
 Charge =  0 Multiplicity = 1

                         Standard orientation:
 ---------------------------------------------------------------------
 Center     Atomic      Atomic             Coordinates (Angstroms)
 Number     Number       Type             X           Y           Z
 ---------------------------------------------------------------------
      1          6           0       -0.669948   -0.013861    0.004292
      2          8           0        0.747305    0.095515   -0.007423
      3          1           0       -1.037165   -0.484675    0.936497
      4          1           0       -0.998132   -0.646469   -0.888978
      5          1           0       -1.044702    1.052412   -0.074417
      6          1           0        1.121245   -0.602222    0.060531
 ---------------------------------------------------------------------

 SCF Done:  E(RB2PLYPD3) =  -115.512959063     A.U. after   10 cycles
 E2(B2PLYPD3) =    -0.1448382656D+00 E(B2PLYPD3) =    -0.11565779732840D+03

 The electronic state is 1-A.
 Alpha  occ. eigenvalues --  -19.70631 -10.67190  -1.20293  -0.80063  -0.60711
 Alpha  occ. eigenvalues --   -0.51540  -0.50001  -0.41081  -0.35621
 Alpha virt. eigenvalues --    0.05393   0.08927   0.12043   0.12121   0.14767
 Alpha virt. eigenvalues --    0.16902   0.17721   0.29037   0.32734   0.33309
 Alpha virt. eigenvalues --    0.37729   0.38658   0.39993   0.40081   0.42602

 Mulliken charges:
               1
     1  C    0.063253
     2  O   -0.353086
     3  H    0.052082
     4  H    0.046956
     5  H    0.077779
     6  H    0.113016
 Sum of Mulliken charges =   0.00000

 Dipole moment (field-independent basis, Debye):
    X=             -0.8758    Y=             -1.3269    Z=              0.1647  Tot=              1.5984
 Quadrupole moment (field-independent basis, Debye-Ang):
   XX=            -13.0896   YY=            -12.3597   ZZ=            -13.6614
   XY=             -2.0324   XZ=              0.1050   YZ=             -0.1097

 Normal termination of Gaussian 09 at Thu Aug 27 00:15:06 2020.
