 Gaussian 09, Revision D.01,
 Gaussian 09:  ES64L-G09RevD.01 24-Apr-2013

 --------------------
 #p B2PLYPD3/Def2QZVP
 --------------------

 --------
 methanol
 --------
 Symbolic Z-matrix:
 Charge =  0 Multiplicity = 1

                         Standard orientation:
 ---------------------------------------------------------------------
 Center     Atomic      Atomic             Coordinates (Angstroms)
 Number     Number       Type             X           Y           Z
 ---------------------------------------------------------------------
      1          6           0        0.655640    0.053695    0.027370
      2          8           0       -0.725977   -0.215350   -0.011725
      3          1           0        1.063237    0.375244    0.712859
      4          1           0        1.020640    0.710030   -0.672541
      5          1           0        1.185340   -0.831440   -0.155696
      6          1           0       -1.395242    1.146796    0.044959
 ---------------------------------------------------------------------

 SCF Done:  E(RB2PLYPD3) =  -115.375040512     A.U. after   12 cycles
 E2(B2PLYPD3) =    -0.1581273508D+00 E(B2PLYPD3) =    -0.11553316786302D+03

 The electronic state is 1-A.
 Alpha  occ. eigenvalues --  -19.76179 -10.61391  -1.11837  -0.81965  -0.54670
 Alpha  occ. eigenvalues --   -0.52206  -0.49378  -0.38265  -0.35372
 Alpha virt. eigenvalues --   -0.03920   0.07109   0.12499   0.13546   0.14854
 Alpha virt. eigenvalues --    0.17747   0.18629   0.20676   0.29736   0.33733
 Alpha virt. eigenvalues --    0.34982   0.37618   0.38512   0.42654   0.45774

 Mulliken charges:
               1
     1  C    0.063849
     2  O   -0.462713
     3  H    0.087541
     4  H    0.035743
     5  H    0.050474
     6  H    0.225107
 Sum of Mulliken charges =   0.00000

 Dipole moment (field-independent basis, Debye):
    X=              0.9090    Y=              1.8142    Z=              0.1761  Tot=              2.0368
 Quadrupole moment (field-independent basis, Debye-Ang):
   XX=            -12.1898   YY=            -11.5703   ZZ=            -14.2793
   XY=             -2.6365   XZ=              0.0540   YZ=              0.1334

 Normal termination of Gaussian 09 at Wed Aug 26 21:31:16 2020.
