 Gaussian 09, Revision D.01,
 Gaussian 09:  ES64L-G09RevD.01 24-Apr-2013

 --------------------
 #p B2PLYPD3/Def2QZVP
 --------------------

 --------
 methanol
 --------
 Symbolic Z-matrix:
 Charge =  0 Multiplicity = 1

                         Standard orientation:
 ---------------------------------------------------------------------
 Center     Atomic      Atomic             Coordinates (Angstroms)
 Number     Number       Type             X           Y           Z
 ---------------------------------------------------------------------
      1          6           0        0.656749    0.013720   -0.004172
      2          8           0       -0.729632   -0.169237   -0.004860
      3          1           0        0.900813    0.562298    0.806512
      4          1           0        1.049876    0.471107   -0.795984
      5          1           0        1.023195   -0.850481    0.073673
      6          1           0       -1.077319    1.088654   -0.020287
 ---------------------------------------------------------------------

 SCF Done:  E(RB2PLYPD3) =  -115.457716954     A.U. after   11 cycles
 E2(B2PLYPD3) =    -0.1531962371D+00 E(B2PLYPD3) =    -0.11561091319149D+03

 The electronic state is 1-A.
 Alpha  occ. eigenvalues --  -19.74664 -10.61318  -1.13182  -0.79852  -0.56986
 Alpha  occ. eigenvalues --   -0.53362  -0.49259  -0.40548  -0.34899
 Alpha virt. eigenvalues --    0.00425   0.07843   0.12731   0.12806   0.14826
 Alpha virt. eigenvalues --    0.17600   0.18112   0.23957   0.29566   0.33016
 Alpha virt. eigenvalues --    0.35239   0.38940   0.40881   0.43405   0.44776

 Mulliken charges:
               1
     1  C    0.101549
     2  O   -0.478832
     3  H    0.034516
     4  H    0.035278
     5  H    0.066405
     6  H    0.241083
 Sum of Mulliken charges =   0.00000

 Dipole moment (field-independent basis, Debye):
    X=              1.1351    Y=              1.7015    Z=             -0.0104  Tot=              2.0454
 Quadrupole moment (field-independent basis, Debye-Ang):
   XX=            -13.5431   YY=            -11.2693   ZZ=            -13.8536
   XY=             -2.2580   XZ=             -0.0862   YZ=             -0.0534

 Normal termination of Gaussian 09 at Wed Aug 26 20:47:56 2020.
