 Gaussian 09, Revision D.01,
 Gaussian 09:  ES64L-G09RevD.01 24-Apr-2013

 --------------------
 #p B2PLYPD3/Def2QZVP
 --------------------

 --------
 methanol
 --------
 Symbolic Z-matrix:
 Charge =  0 Multiplicity = 1

                         Standard orientation:
 ---------------------------------------------------------------------
 Center     Atomic      Atomic             Coordinates (Angstroms)
 Number     Number       Type             X           Y           Z
 ---------------------------------------------------------------------
      1          6           0        0.657439    0.019223   -0.002290
      2          8           0       -0.732758   -0.161198    0.007671
      3          1           0        0.975257    0.545842    0.860846
      4          1           0        1.050722    0.498980   -0.808859
      5          1           0        1.053864   -0.869463   -0.023217
      6          1           0       -1.162408    0.998887   -0.076397
 ---------------------------------------------------------------------

 SCF Done:  E(RB2PLYPD3) =  -115.490073959     A.U. after   11 cycles
 E2(B2PLYPD3) =    -0.1519257731D+00 E(B2PLYPD3) =    -0.11564199973220D+03

 The electronic state is 1-A.
 Alpha  occ. eigenvalues --  -19.74453 -10.62587  -1.13259  -0.79200  -0.56311
 Alpha  occ. eigenvalues --   -0.52592  -0.49667  -0.40566  -0.34914
 Alpha virt. eigenvalues --    0.01667   0.07745   0.12703   0.12823   0.14952
 Alpha virt. eigenvalues --    0.17454   0.18346   0.25363   0.29545   0.33228
 Alpha virt. eigenvalues --    0.35200   0.38912   0.40351   0.42526   0.44311

 Mulliken charges:
               1
     1  C    0.088245
     2  O   -0.484081
     3  H    0.041365
     4  H    0.037862
     5  H    0.065651
     6  H    0.250959
 Sum of Mulliken charges =   0.00000

 Dipole moment (field-independent basis, Debye):
    X=              0.9495    Y=              1.6580    Z=             -0.1718  Tot=              1.9183
 Quadrupole moment (field-independent basis, Debye-Ang):
   XX=            -13.1165   YY=            -11.6655   ZZ=            -13.8927
   XY=             -2.4440   XZ=              0.0212   YZ=             -0.0958

 Normal termination of Gaussian 09 at Wed Aug 26 15:40:46 2020.
