 Gaussian 09, Revision D.01,
 Gaussian 09:  ES64L-G09RevD.01 24-Apr-2013

 --------------------
 #p B2PLYPD3/Def2QZVP
 --------------------

 --------
 methanol
 --------
 Symbolic Z-matrix:
 Charge =  0 Multiplicity = 1

                         Standard orientation:
 ---------------------------------------------------------------------
 Center     Atomic      Atomic             Coordinates (Angstroms)
 Number     Number       Type             X           Y           Z
 ---------------------------------------------------------------------
      1          6           0        0.668086   -0.018262    0.001305
      2          8           0       -0.744919    0.100238   -0.004978
      3          1           0        1.029368   -0.607123   -0.884996
      4          1           0        1.012280   -0.522249    0.926385
      5          1           0        1.054720    1.056611   -0.032922
      6          1           0       -1.145532   -0.619572    0.023527
 ---------------------------------------------------------------------

 SCF Done:  E(RB2PLYPD3) =  -115.527684033     A.U. after   10 cycles
 E2(B2PLYPD3) =    -0.1452123306D+00 E(B2PLYPD3) =    -0.11567289636398D+03

 The electronic state is 1-A.
 Alpha  occ. eigenvalues --  -19.70972 -10.67021  -1.19363  -0.79729  -0.60522
 Alpha  occ. eigenvalues --   -0.51595  -0.49827  -0.40805  -0.35566
 Alpha virt. eigenvalues --    0.05370   0.08784   0.12028   0.12239   0.14839
 Alpha virt. eigenvalues --    0.16925   0.17783   0.29088   0.33133   0.33265
 Alpha virt. eigenvalues --    0.37548   0.38774   0.39769   0.40141   0.42593

 Mulliken charges:
               1
     1  C    0.064607
     2  O   -0.382380
     3  H    0.049011
     4  H    0.050978
     5  H    0.074900
     6  H    0.142884
 Sum of Mulliken charges =   0.00000

 Dipole moment (field-independent basis, Debye):
    X=              0.8238    Y=             -1.3727    Z=              0.0705  Tot=              1.6025
 Quadrupole moment (field-independent basis, Debye-Ang):
   XX=            -12.9851   YY=            -12.3723   ZZ=            -13.7172
   XY=              2.0664   XZ=             -0.0741   YZ=             -0.0368

 Normal termination of Gaussian 09 at Thu Aug 27 00:12:10 2020.
