 Gaussian 09, Revision D.01,
 Gaussian 09:  ES64L-G09RevD.01 24-Apr-2013

 --------------------
 #p B2PLYPD3/Def2QZVP
 --------------------

 --------
 methanol
 --------
 Symbolic Z-matrix:
 Charge =  0 Multiplicity = 1

                         Standard orientation:
 ---------------------------------------------------------------------
 Center     Atomic      Atomic             Coordinates (Angstroms)
 Number     Number       Type             X           Y           Z
 ---------------------------------------------------------------------
      1          6           0        0.675584    0.029095   -0.005971
      2          8           0       -0.739589   -0.143590    0.004736
      3          1           0        1.020998    0.522078    0.855808
      4          1           0        1.022467    0.551195   -0.806222
      5          1           0        1.042141   -0.965011   -0.026650
      6          1           0       -1.222394    0.865888   -0.025000
 ---------------------------------------------------------------------

 SCF Done:  E(RB2PLYPD3) =  -115.527192512     A.U. after   11 cycles
 E2(B2PLYPD3) =    -0.1498268049D+00 E(B2PLYPD3) =    -0.11567701931663D+03

 The electronic state is 1-A.
 Alpha  occ. eigenvalues --  -19.73472 -10.63786  -1.13229  -0.78876  -0.57190
 Alpha  occ. eigenvalues --   -0.52233  -0.49038  -0.40789  -0.35109
 Alpha virt. eigenvalues --    0.03632   0.07836   0.12420   0.12815   0.15110
 Alpha virt. eigenvalues --    0.17045   0.18148   0.28777   0.30041   0.33538
 Alpha virt. eigenvalues --    0.34022   0.39047   0.39352   0.42298   0.44765

 Mulliken charges:
               1
     1  C    0.082945
     2  O   -0.495638
     3  H    0.047459
     4  H    0.047491
     5  H    0.069094
     6  H    0.248649
 Sum of Mulliken charges =   0.00000

 Dipole moment (field-independent basis, Debye):
    X=              0.8708    Y=              1.6440    Z=             -0.0781  Tot=              1.8621
 Quadrupole moment (field-independent basis, Debye-Ang):
   XX=            -12.7924   YY=            -11.9221   ZZ=            -13.8928
   XY=             -2.3547   XZ=              0.0203   YZ=             -0.0574

 Normal termination of Gaussian 09 at Wed Aug 26 12:02:20 2020.
