 Gaussian 09, Revision D.01,
 Gaussian 09:  ES64L-G09RevD.01 24-Apr-2013

 --------------------
 #p B2PLYPD3/Def2QZVP
 --------------------

 --------
 methanol
 --------
 Symbolic Z-matrix:
 Charge =  0 Multiplicity = 1

                         Standard orientation:
 ---------------------------------------------------------------------
 Center     Atomic      Atomic             Coordinates (Angstroms)
 Number     Number       Type             X           Y           Z
 ---------------------------------------------------------------------
      1          6           0       -0.629038    0.006697    0.013352
      2          8           0        0.732354   -0.175330   -0.019958
      3          1           0       -1.124553    0.602182   -0.733440
      4          1           0       -0.959771    0.486419    0.734790
      5          1           0       -1.079821   -0.880307    0.016978
      6          1           0        1.079546    1.154159    0.061225
 ---------------------------------------------------------------------

 SCF Done:  E(RB2PLYPD3) =  -115.433375249     A.U. after   11 cycles
 E2(B2PLYPD3) =    -0.1549065139D+00 E(B2PLYPD3) =    -0.11558828176323D+03

 The electronic state is 1-A.
 Alpha  occ. eigenvalues --  -19.75728 -10.61789  -1.13986  -0.80168  -0.56963
 Alpha  occ. eigenvalues --   -0.51458  -0.50328  -0.40140  -0.34608
 Alpha virt. eigenvalues --   -0.01365   0.07463   0.12423   0.13297   0.15192
 Alpha virt. eigenvalues --    0.17903   0.18241   0.22467   0.29897   0.33158
 Alpha virt. eigenvalues --    0.35865   0.38492   0.39490   0.41733   0.45504

 Mulliken charges:
               1
     1  C    0.101197
     2  O   -0.459487
     3  H    0.021538
     4  H    0.040888
     5  H    0.054419
     6  H    0.241444
 Sum of Mulliken charges =   0.00000

 Dipole moment (field-independent basis, Debye):
    X=             -1.0387    Y=              1.7792    Z=              0.2667  Tot=              2.0774
 Quadrupole moment (field-independent basis, Debye-Ang):
   XX=            -13.4646   YY=            -11.1007   ZZ=            -14.2877
   XY=              2.1801   XZ=              0.0147   YZ=              0.1951

 Normal termination of Gaussian 09 at Wed Aug 26 22:28:27 2020.
