 Gaussian 09, Revision D.01,
 Gaussian 09:  ES64L-G09RevD.01 24-Apr-2013

 --------------------
 #p B2PLYPD3/Def2QZVP
 --------------------

 --------
 methanol
 --------
 Symbolic Z-matrix:
 Charge =  0 Multiplicity = 1

                         Standard orientation:
 ---------------------------------------------------------------------
 Center     Atomic      Atomic             Coordinates (Angstroms)
 Number     Number       Type             X           Y           Z
 ---------------------------------------------------------------------
      1          6           0       -0.678788   -0.051051    0.028837
      2          8           0        0.733867    0.068242   -0.022035
      3          1           0       -0.934477   -0.412410    0.986396
      4          1           0       -1.031842   -0.667712   -0.917752
      5          1           0       -1.039766    1.200426   -0.133728
      6          1           0        1.207878   -0.359939    0.068348
 ---------------------------------------------------------------------

 SCF Done:  E(RB2PLYPD3) =  -115.299482119     A.U. after   11 cycles
 E2(B2PLYPD3) =    -0.1439558448D+00 E(B2PLYPD3) =    -0.11544343796375D+03

 The electronic state is 1-A.
 Alpha  occ. eigenvalues --  -19.68062 -10.69658  -1.25071  -0.83665  -0.61980
 Alpha  occ. eigenvalues --   -0.52996  -0.48448  -0.37971  -0.36119
 Alpha virt. eigenvalues --    0.04953   0.09508   0.10818   0.11811   0.14176
 Alpha virt. eigenvalues --    0.16383   0.17792   0.28825   0.31730   0.32800
 Alpha virt. eigenvalues --    0.33052   0.37418   0.40302   0.42132   0.42209

 Mulliken charges:
               1
     1  C    0.048355
     2  O   -0.201674
     3  H    0.076333
     4  H    0.062881
     5  H    0.064593
     6  H   -0.050488
 Sum of Mulliken charges =   0.00000

 Dipole moment (field-independent basis, Debye):
    X=             -0.6891    Y=             -1.1468    Z=              0.3287  Tot=              1.3777
 Quadrupole moment (field-independent basis, Debye-Ang):
   XX=            -12.7184   YY=            -12.9559   ZZ=            -13.2239
   XY=             -1.4910   XZ=              0.2925   YZ=             -0.1415

 Normal termination of Gaussian 09 at Wed Aug 26 23:46:38 2020.
