 Gaussian 09, Revision D.01,
 Gaussian 09:  ES64L-G09RevD.01 24-Apr-2013

 --------------------
 #p B2PLYPD3/Def2QZVP
 --------------------

 --------
 methanol
 --------
 Symbolic Z-matrix:
 Charge =  0 Multiplicity = 1

                         Standard orientation:
 ---------------------------------------------------------------------
 Center     Atomic      Atomic             Coordinates (Angstroms)
 Number     Number       Type             X           Y           Z
 ---------------------------------------------------------------------
      1          6           0        0.671452    0.036875    0.014856
      2          8           0       -0.741434   -0.152650   -0.015293
      3          1           0        1.015586    0.377582    0.825349
      4          1           0        1.036388    0.661192   -0.762232
      5          1           0        1.047150   -0.966859   -0.104564
      6          1           0       -1.196360    0.928039    0.074655
 ---------------------------------------------------------------------

 SCF Done:  E(RB2PLYPD3) =  -115.501877137     A.U. after   11 cycles
 E2(B2PLYPD3) =    -0.1510691198D+00 E(B2PLYPD3) =    -0.11565294625676D+03

 The electronic state is 1-A.
 Alpha  occ. eigenvalues --  -19.74082 -10.63213  -1.12856  -0.79405  -0.56748
 Alpha  occ. eigenvalues --   -0.52826  -0.48461  -0.40642  -0.35376
 Alpha virt. eigenvalues --    0.02832   0.07733   0.12280   0.12910   0.15180
 Alpha virt. eigenvalues --    0.17093   0.18327   0.27138   0.29562   0.33678
 Alpha virt. eigenvalues --    0.34158   0.38187   0.39183   0.42611   0.45251

 Mulliken charges:
               1
     1  C    0.084335
     2  O   -0.490775
     3  H    0.054278
     4  H    0.042597
     5  H    0.061675
     6  H    0.247891
 Sum of Mulliken charges =   0.00000

 Dipole moment (field-independent basis, Debye):
    X=              0.9424    Y=              1.6968    Z=              0.2297  Tot=              1.9544
 Quadrupole moment (field-independent basis, Debye-Ang):
   XX=            -12.9506   YY=            -11.7814   ZZ=            -13.9055
   XY=             -2.2877   XZ=             -0.0754   YZ=              0.1419

 Normal termination of Gaussian 09 at Wed Aug 26 10:53:43 2020.
