 Gaussian 09, Revision D.01,
 Gaussian 09:  ES64L-G09RevD.01 24-Apr-2013

 --------------------
 #p B2PLYPD3/Def2QZVP
 --------------------

 --------
 methanol
 --------
 Symbolic Z-matrix:
 Charge =  0 Multiplicity = 1

                         Standard orientation:
 ---------------------------------------------------------------------
 Center     Atomic      Atomic             Coordinates (Angstroms)
 Number     Number       Type             X           Y           Z
 ---------------------------------------------------------------------
      1          6           0       -0.626479    0.026452   -0.011427
      2          8           0        0.724612   -0.184441    0.002524
      3          1           0       -1.118433    0.412929   -0.781541
      4          1           0       -0.855912    0.636562    0.810198
      5          1           0       -1.200007   -0.801047    0.111556
      6          1           0        1.136334    1.068370   -0.091841
 ---------------------------------------------------------------------

 SCF Done:  E(RB2PLYPD3) =  -115.461347831     A.U. after   12 cycles
 E2(B2PLYPD3) =    -0.1534529256D+00 E(B2PLYPD3) =    -0.11561480075705D+03

 The electronic state is 1-A.
 Alpha  occ. eigenvalues --  -19.75275 -10.62347  -1.14304  -0.79312  -0.55198
 Alpha  occ. eigenvalues --   -0.53544  -0.50478  -0.39131  -0.34771
 Alpha virt. eigenvalues --   -0.00291   0.07491   0.12753   0.12985   0.14656
 Alpha virt. eigenvalues --    0.18369   0.18750   0.23250   0.29473   0.32743
 Alpha virt. eigenvalues --    0.35405   0.39605   0.40122   0.42444   0.44627

 Mulliken charges:
               1
     1  C    0.090709
     2  O   -0.459947
     3  H    0.034147
     4  H    0.031223
     5  H    0.049357
     6  H    0.254512
 Sum of Mulliken charges =   0.00000

 Dipole moment (field-independent basis, Debye):
    X=             -0.8995    Y=              1.7460    Z=             -0.1684  Tot=              1.9713
 Quadrupole moment (field-independent basis, Debye-Ang):
   XX=            -13.0864   YY=            -11.7033   ZZ=            -14.0373
   XY=              2.5466   XZ=              0.0698   YZ=             -0.1317

 Normal termination of Gaussian 09 at Wed Aug 26 21:23:04 2020.
