 Gaussian 09, Revision D.01,
 Gaussian 09:  ES64L-G09RevD.01 24-Apr-2013

 --------------------
 #p B2PLYPD3/Def2QZVP
 --------------------

 --------
 methanol
 --------
 Symbolic Z-matrix:
 Charge =  0 Multiplicity = 1

                         Standard orientation:
 ---------------------------------------------------------------------
 Center     Atomic      Atomic             Coordinates (Angstroms)
 Number     Number       Type             X           Y           Z
 ---------------------------------------------------------------------
      1          6           0       -0.671262   -0.006991   -0.002807
      2          8           0        0.751496    0.095089   -0.011333
      3          1           0       -1.013779   -0.466922    0.997110
      4          1           0       -0.956155   -0.654939   -0.922391
      5          1           0       -1.081676    0.991019   -0.070147
      6          1           0        1.067219   -0.587923    0.102934
 ---------------------------------------------------------------------

 SCF Done:  E(RB2PLYPD3) =  -115.488322485     A.U. after   10 cycles
 E2(B2PLYPD3) =    -0.1444996184D+00 E(B2PLYPD3) =    -0.11563282210369D+03

 The electronic state is 1-A.
 Alpha  occ. eigenvalues --  -19.70273 -10.67422  -1.21622  -0.80332  -0.60371
 Alpha  occ. eigenvalues --   -0.51819  -0.50795  -0.41315  -0.35643
 Alpha virt. eigenvalues --    0.05385   0.09075   0.11693   0.12402   0.14247
 Alpha virt. eigenvalues --    0.17177   0.17677   0.28765   0.32233   0.32981
 Alpha virt. eigenvalues --    0.36820   0.38840   0.40222   0.40444   0.43457

 Mulliken charges:
               1
     1  C    0.061831
     2  O   -0.318636
     3  H    0.044762
     4  H    0.048812
     5  H    0.083921
     6  H    0.079311
 Sum of Mulliken charges =   0.00000

 Dipole moment (field-independent basis, Debye):
    X=             -0.9865    Y=             -1.2274    Z=              0.2239  Tot=              1.5905
 Quadrupole moment (field-independent basis, Debye-Ang):
   XX=            -13.3249   YY=            -12.4429   ZZ=            -13.4853
   XY=             -2.1230   XZ=              0.2374   YZ=             -0.1271

 Normal termination of Gaussian 09 at Wed Aug 26 18:30:58 2020.
