 Gaussian 09, Revision D.01,
 Gaussian 09:  ES64L-G09RevD.01 24-Apr-2013

 --------------------
 #p B2PLYPD3/Def2QZVP
 --------------------

 --------
 methanol
 --------
 Symbolic Z-matrix:
 Charge =  0 Multiplicity = 1

                         Standard orientation:
 ---------------------------------------------------------------------
 Center     Atomic      Atomic             Coordinates (Angstroms)
 Number     Number       Type             X           Y           Z
 ---------------------------------------------------------------------
      1          6           0       -0.668758   -0.024575    0.012550
      2          8           0        0.756106    0.106064   -0.013154
      3          1           0       -1.018668   -0.484561    0.922222
      4          1           0       -1.060247   -0.598878   -0.903558
      5          1           0       -1.096987    1.030359   -0.044051
      6          1           0        1.139603   -0.647986    0.055323
 ---------------------------------------------------------------------

 SCF Done:  E(RB2PLYPD3) =  -115.535568404     A.U. after   10 cycles
 E2(B2PLYPD3) =    -0.1458418520D+00 E(B2PLYPD3) =    -0.11568141025602D+03

 The electronic state is 1-A.
 Alpha  occ. eigenvalues --  -19.71520 -10.66982  -1.18507  -0.79341  -0.60050
 Alpha  occ. eigenvalues --   -0.51587  -0.49545  -0.40895  -0.35799
 Alpha virt. eigenvalues --    0.05345   0.08536   0.12139   0.12189   0.14682
 Alpha virt. eigenvalues --    0.17157   0.18097   0.28970   0.32763   0.33299
 Alpha virt. eigenvalues --    0.36938   0.38465   0.39293   0.40692   0.42995

 Mulliken charges:
               1
     1  C    0.063575
     2  O   -0.403929
     3  H    0.057781
     4  H    0.047919
     5  H    0.070429
     6  H    0.164225
 Sum of Mulliken charges =   0.00000

 Dipole moment (field-independent basis, Debye):
    X=             -0.8935    Y=             -1.3949    Z=              0.1958  Tot=              1.6681
 Quadrupole moment (field-independent basis, Debye-Ang):
   XX=            -12.9493   YY=            -12.4807   ZZ=            -13.6793
   XY=             -2.1269   XZ=              0.1306   YZ=             -0.1343

 Normal termination of Gaussian 09 at Wed Aug 26 19:13:28 2020.
