 Gaussian 09, Revision D.01,
 Gaussian 09:  ES64L-G09RevD.01 24-Apr-2013

 --------------------
 #p B2PLYPD3/Def2QZVP
 --------------------

 --------
 methanol
 --------
 Symbolic Z-matrix:
 Charge =  0 Multiplicity = 1

                         Standard orientation:
 ---------------------------------------------------------------------
 Center     Atomic      Atomic             Coordinates (Angstroms)
 Number     Number       Type             X           Y           Z
 ---------------------------------------------------------------------
      1          6           0        0.661022   -0.030411    0.005644
      2          8           0       -0.739220    0.136583   -0.003193
      3          1           0        1.009996   -0.552362   -0.849417
      4          1           0        1.020559   -0.490898    0.852628
      5          1           0        1.047743    0.981290   -0.030551
      6          1           0       -1.130673   -0.848228    0.019021
 ---------------------------------------------------------------------

 SCF Done:  E(RB2PLYPD3) =  -115.539745104     A.U. after   11 cycles
 E2(B2PLYPD3) =    -0.1487538112D+00 E(B2PLYPD3) =    -0.11568849891485D+03

 The electronic state is 1-A.
 Alpha  occ. eigenvalues --  -19.73306 -10.64200  -1.14834  -0.78607  -0.57916
 Alpha  occ. eigenvalues --   -0.52710  -0.49201  -0.40973  -0.35349
 Alpha virt. eigenvalues --    0.04193   0.08085   0.12401   0.12619   0.15051
 Alpha virt. eigenvalues --    0.17232   0.18220   0.29052   0.31412   0.33530
 Alpha virt. eigenvalues --    0.34613   0.38545   0.39900   0.42402   0.44587

 Mulliken charges:
               1
     1  C    0.076332
     2  O   -0.475521
     3  H    0.045242
     4  H    0.048595
     5  H    0.062934
     6  H    0.242417
 Sum of Mulliken charges =   0.00000

 Dipole moment (field-independent basis, Debye):
    X=              0.9006    Y=             -1.6245    Z=              0.0603  Tot=              1.8584
 Quadrupole moment (field-independent basis, Debye-Ang):
   XX=            -13.1650   YY=            -11.9709   ZZ=            -13.7949
   XY=              2.2185   XZ=             -0.0071   YZ=             -0.0514

 Normal termination of Gaussian 09 at Wed Aug 26 09:52:52 2020.
