 Gaussian 09, Revision D.01,
 Gaussian 09:  ES64L-G09RevD.01 24-Apr-2013

 --------------------
 #p B2PLYPD3/Def2QZVP
 --------------------

 --------
 methanol
 --------
 Symbolic Z-matrix:
 Charge =  0 Multiplicity = 1

                         Standard orientation:
 ---------------------------------------------------------------------
 Center     Atomic      Atomic             Coordinates (Angstroms)
 Number     Number       Type             X           Y           Z
 ---------------------------------------------------------------------
      1          6           0        0.684023   -0.021516    0.008394
      2          8           0       -0.763843    0.094445   -0.016691
      3          1           0        1.090347   -0.701018   -0.819520
      4          1           0        1.020554   -0.374652    0.967973
      5          1           0        1.030082    1.072652   -0.140827
      6          1           0       -1.134382   -0.623443    0.075536
 ---------------------------------------------------------------------

 SCF Done:  E(RB2PLYPD3) =  -115.519548278     A.U. after   10 cycles
 E2(B2PLYPD3) =    -0.1456221410D+00 E(B2PLYPD3) =    -0.11566517041882D+03

 The electronic state is 1-A.
 Alpha  occ. eigenvalues --  -19.70934 -10.67347  -1.18910  -0.79682  -0.60182
 Alpha  occ. eigenvalues --   -0.51436  -0.48836  -0.41210  -0.36012
 Alpha virt. eigenvalues --    0.05368   0.08645   0.11813   0.12200   0.14773
 Alpha virt. eigenvalues --    0.16780   0.17985   0.28924   0.31819   0.33411
 Alpha virt. eigenvalues --    0.36999   0.38338   0.39677   0.40597   0.42343

 Mulliken charges:
               1
     1  C    0.061285
     2  O   -0.380461
     3  H    0.052803
     4  H    0.062475
     5  H    0.073891
     6  H    0.130006
 Sum of Mulliken charges =   0.00000

 Dipole moment (field-independent basis, Debye):
    X=              0.9828    Y=             -1.3716    Z=              0.2401  Tot=              1.7044
 Quadrupole moment (field-independent basis, Debye-Ang):
   XX=            -13.0303   YY=            -12.3627   ZZ=            -13.6615
   XY=              1.9538   XZ=             -0.2288   YZ=             -0.1274

 Normal termination of Gaussian 09 at Wed Aug 26 14:08:14 2020.
