 Gaussian 09, Revision D.01,
 Gaussian 09:  ES64L-G09RevD.01 24-Apr-2013

 --------------------
 #p B2PLYPD3/Def2QZVP
 --------------------

 --------
 methanol
 --------
 Symbolic Z-matrix:
 Charge =  0 Multiplicity = 1

                         Standard orientation:
 ---------------------------------------------------------------------
 Center     Atomic      Atomic             Coordinates (Angstroms)
 Number     Number       Type             X           Y           Z
 ---------------------------------------------------------------------
      1          6           0        0.656001    0.048458   -0.018364
      2          8           0       -0.745016   -0.187535    0.010052
      3          1           0        0.988291    0.566405    0.788168
      4          1           0        1.055021    0.492252   -0.701939
      5          1           0        1.198739   -0.911920    0.010364
      6          1           0       -1.217932    1.062800   -0.066823
 ---------------------------------------------------------------------

 SCF Done:  E(RB2PLYPD3) =  -115.442632561     A.U. after   11 cycles
 E2(B2PLYPD3) =    -0.1544969448D+00 E(B2PLYPD3) =    -0.11559712950554D+03

 The electronic state is 1-A.
 Alpha  occ. eigenvalues --  -19.75506 -10.62458  -1.12117  -0.80584  -0.55028
 Alpha  occ. eigenvalues --   -0.52709  -0.48787  -0.39714  -0.35464
 Alpha virt. eigenvalues --   -0.00275   0.07274   0.12422   0.13153   0.14815
 Alpha virt. eigenvalues --    0.18018   0.18443   0.22961   0.29630   0.33313
 Alpha virt. eigenvalues --    0.34770   0.37284   0.39543   0.42078   0.45328

 Mulliken charges:
               1
     1  C    0.090763
     2  O   -0.478674
     3  H    0.041528
     4  H    0.055723
     5  H    0.046372
     6  H    0.244287
 Sum of Mulliken charges =   0.00000

 Dipole moment (field-independent basis, Debye):
    X=              0.9902    Y=              1.8642    Z=             -0.1782  Tot=              2.1184
 Quadrupole moment (field-independent basis, Debye-Ang):
   XX=            -12.8311   YY=            -11.6089   ZZ=            -14.1328
   XY=             -2.3756   XZ=             -0.0047   YZ=             -0.1412

 Normal termination of Gaussian 09 at Wed Aug 26 23:32:47 2020.
