 Gaussian 09, Revision D.01,
 Gaussian 09:  ES64L-G09RevD.01 24-Apr-2013

 --------------------
 #p B2PLYPD3/Def2QZVP
 --------------------

 --------
 methanol
 --------
 Symbolic Z-matrix:
 Charge =  0 Multiplicity = 1

                         Standard orientation:
 ---------------------------------------------------------------------
 Center     Atomic      Atomic             Coordinates (Angstroms)
 Number     Number       Type             X           Y           Z
 ---------------------------------------------------------------------
      1          6           0       -0.645256    0.005278    0.012360
      2          8           0        0.743292   -0.076815   -0.033226
      3          1           0       -1.027588    0.997888   -0.607265
      4          1           0       -1.037545    0.041379    1.076237
      5          1           0       -1.096137   -0.935321   -0.476197
      6          1           0        1.086470    0.478902    0.198876
 ---------------------------------------------------------------------

 SCF Done:  E(RB2PLYPD3) =  -115.408828561     A.U. after   11 cycles
 E2(B2PLYPD3) =    -0.1437835407D+00 E(B2PLYPD3) =    -0.11555261210178D+03

 The electronic state is 1-A.
 Alpha  occ. eigenvalues --  -19.70054 -10.68651  -1.25340  -0.81644  -0.62003
 Alpha  occ. eigenvalues --   -0.51470  -0.51066  -0.40484  -0.35796
 Alpha virt. eigenvalues --    0.05308   0.09206   0.11597   0.12169   0.14494
 Alpha virt. eigenvalues --    0.17050   0.17845   0.28476   0.32303   0.33874
 Alpha virt. eigenvalues --    0.35882   0.37881   0.39623   0.40644   0.42691

 Mulliken charges:
               1
     1  C    0.048565
     2  O   -0.229219
     3  H    0.031110
     4  H    0.053194
     5  H    0.079881
     6  H    0.016469
 Sum of Mulliken charges =   0.00000

 Dipole moment (field-independent basis, Debye):
    X=             -0.7777    Y=              1.0205    Z=              0.5293  Tot=              1.3879
 Quadrupole moment (field-independent basis, Debye-Ang):
   XX=            -13.1013   YY=            -12.7842   ZZ=            -13.4962
   XY=              1.9054   XZ=              0.6684   YZ=              0.3395

 Normal termination of Gaussian 09 at Wed Aug 26 12:46:35 2020.
