 Gaussian 09, Revision D.01,
 Gaussian 09:  ES64L-G09RevD.01 24-Apr-2013

 --------------------
 #p B2PLYPD3/Def2QZVP
 --------------------

 --------
 methanol
 --------
 Symbolic Z-matrix:
 Charge =  0 Multiplicity = 1

                         Standard orientation:
 ---------------------------------------------------------------------
 Center     Atomic      Atomic             Coordinates (Angstroms)
 Number     Number       Type             X           Y           Z
 ---------------------------------------------------------------------
      1          6           0        0.627899    0.024973   -0.022418
      2          8           0       -0.733050   -0.181713    0.020618
      3          1           0        1.180681    0.538727    0.754321
      4          1           0        0.909378    0.500440   -0.746450
      5          1           0        1.131077   -0.866141   -0.021950
      6          1           0       -1.124125    1.130836   -0.016359
 ---------------------------------------------------------------------

 SCF Done:  E(RB2PLYPD3) =  -115.433443623     A.U. after   11 cycles
 E2(B2PLYPD3) =    -0.1548377301D+00 E(B2PLYPD3) =    -0.11558828135331D+03

 The electronic state is 1-A.
 Alpha  occ. eigenvalues --  -19.75803 -10.61996  -1.13886  -0.80089  -0.56356
 Alpha  occ. eigenvalues --   -0.52130  -0.50069  -0.39643  -0.34914
 Alpha virt. eigenvalues --   -0.01195   0.07361   0.12550   0.13180   0.15035
 Alpha virt. eigenvalues --    0.18060   0.18541   0.22428   0.29672   0.32783
 Alpha virt. eigenvalues --    0.35790   0.38047   0.39983   0.42170   0.44700

 Mulliken charges:
               1
     1  C    0.087837
     2  O   -0.460151
     3  H    0.025290
     4  H    0.051714
     5  H    0.051146
     6  H    0.244164
 Sum of Mulliken charges =   0.00000

 Dipole moment (field-independent basis, Debye):
    X=              0.9782    Y=              1.7818    Z=             -0.2027  Tot=              2.0427
 Quadrupole moment (field-independent basis, Debye-Ang):
   XX=            -13.2283   YY=            -11.3737   ZZ=            -14.2085
   XY=             -2.3288   XZ=              0.0443   YZ=             -0.1866

 Normal termination of Gaussian 09 at Wed Aug 26 20:12:53 2020.
