 Gaussian 09, Revision D.01,
 Gaussian 09:  ES64L-G09RevD.01 24-Apr-2013

 --------------------
 #p B2PLYPD3/Def2QZVP
 --------------------

 --------
 methanol
 --------
 Symbolic Z-matrix:
 Charge =  0 Multiplicity = 1

                         Standard orientation:
 ---------------------------------------------------------------------
 Center     Atomic      Atomic             Coordinates (Angstroms)
 Number     Number       Type             X           Y           Z
 ---------------------------------------------------------------------
      1          6           0       -0.665424    0.026330   -0.015559
      2          8           0        0.742082   -0.161269    0.004740
      3          1           0       -1.077187    0.453028   -0.790280
      4          1           0       -0.985823    0.625098    0.794914
      5          1           0       -1.090317   -0.913839    0.095378
      6          1           0        1.209214    0.967888   -0.044578
 ---------------------------------------------------------------------

 SCF Done:  E(RB2PLYPD3) =  -115.495387010     A.U. after   11 cycles
 E2(B2PLYPD3) =    -0.1518804134D+00 E(B2PLYPD3) =    -0.11564726742348D+03

 The electronic state is 1-A.
 Alpha  occ. eigenvalues --  -19.74479 -10.63015  -1.12654  -0.79387  -0.56357
 Alpha  occ. eigenvalues --   -0.52029  -0.49204  -0.40656  -0.35066
 Alpha virt. eigenvalues --    0.01987   0.07609   0.12537   0.12972   0.15038
 Alpha virt. eigenvalues --    0.17450   0.18302   0.25738   0.29637   0.33306
 Alpha virt. eigenvalues --    0.34585   0.38898   0.39157   0.42353   0.45136

 Mulliken charges:
               1
     1  C    0.093754
     2  O   -0.489905
     3  H    0.045667
     4  H    0.036232
     5  H    0.062462
     6  H    0.251790
 Sum of Mulliken charges =   0.00000

 Dipole moment (field-independent basis, Debye):
    X=             -0.9322    Y=              1.7125    Z=             -0.1248  Tot=              1.9538
 Quadrupole moment (field-independent basis, Debye-Ang):
   XX=            -12.8329   YY=            -11.7228   ZZ=            -14.0348
   XY=              2.4274   XZ=              0.0347   YZ=             -0.1291

 Normal termination of Gaussian 09 at Wed Aug 26 13:49:29 2020.
