 Gaussian 09, Revision D.01,
 Gaussian 09:  ES64L-G09RevD.01 24-Apr-2013

 --------------------
 #p B2PLYPD3/Def2QZVP
 --------------------

 --------
 methanol
 --------
 Symbolic Z-matrix:
 Charge =  0 Multiplicity = 1

                         Standard orientation:
 ---------------------------------------------------------------------
 Center     Atomic      Atomic             Coordinates (Angstroms)
 Number     Number       Type             X           Y           Z
 ---------------------------------------------------------------------
      1          6           0       -0.655539   -0.025138   -0.002836
      2          8           0        0.754525    0.136287   -0.005295
      3          1           0       -1.086114   -0.474013    0.853760
      4          1           0       -0.957825   -0.601672   -0.852485
      5          1           0       -1.148813    0.965383   -0.030484
      6          1           0        1.089787   -0.829167    0.088582
 ---------------------------------------------------------------------

 SCF Done:  E(RB2PLYPD3) =  -115.544038117     A.U. after   10 cycles
 E2(B2PLYPD3) =    -0.1486022970D+00 E(B2PLYPD3) =    -0.11569264041381D+03

 The electronic state is 1-A.
 Alpha  occ. eigenvalues --  -19.73464 -10.65096  -1.15348  -0.78455  -0.57927
 Alpha  occ. eigenvalues --   -0.52363  -0.49294  -0.41144  -0.35473
 Alpha virt. eigenvalues --    0.04430   0.07964   0.12416   0.12494   0.14812
 Alpha virt. eigenvalues --    0.17746   0.18258   0.29098   0.31627   0.33382
 Alpha virt. eigenvalues --    0.34405   0.38265   0.40061   0.41416   0.44282

 Mulliken charges:
               1
     1  C    0.073795
     2  O   -0.466237
     3  H    0.044539
     4  H    0.046746
     5  H    0.060641
     6  H    0.240515
 Sum of Mulliken charges =   0.00000

 Dipole moment (field-independent basis, Debye):
    X=             -0.9719    Y=             -1.6127    Z=              0.1742  Tot=              1.8910
 Quadrupole moment (field-independent basis, Debye-Ang):
   XX=            -13.1996   YY=            -12.0901   ZZ=            -13.8777
   XY=             -2.2364   XZ=              0.0555   YZ=             -0.0841

 Normal termination of Gaussian 09 at Wed Aug 26 18:07:03 2020.
