 Gaussian 09, Revision D.01,
 Gaussian 09:  ES64L-G09RevD.01 24-Apr-2013

 --------------------
 #p B2PLYPD3/Def2QZVP
 --------------------

 --------
 methanol
 --------
 Symbolic Z-matrix:
 Charge =  0 Multiplicity = 1

                         Standard orientation:
 ---------------------------------------------------------------------
 Center     Atomic      Atomic             Coordinates (Angstroms)
 Number     Number       Type             X           Y           Z
 ---------------------------------------------------------------------
      1          6           0        0.658470    0.031490   -0.001481
      2          8           0       -0.707236   -0.209721   -0.016832
      3          1           0        0.912531    0.323064    0.853181
      4          1           0        0.974488    0.692920   -0.676487
      5          1           0        1.080320   -0.719955   -0.107016
      6          1           0       -1.260270    1.192804    0.073869
 ---------------------------------------------------------------------

 SCF Done:  E(RB2PLYPD3) =  -115.367368285     A.U. after   12 cycles
 E2(B2PLYPD3) =    -0.1569514988D+00 E(B2PLYPD3) =    -0.11552431978357D+03

 The electronic state is 1-A.
 Alpha  occ. eigenvalues --  -19.75296 -10.59500  -1.12710  -0.81567  -0.56226
 Alpha  occ. eigenvalues --   -0.54330  -0.49737  -0.38539  -0.34921
 Alpha virt. eigenvalues --   -0.03581   0.07636   0.12794   0.13224   0.14621
 Alpha virt. eigenvalues --    0.17628   0.18429   0.21338   0.29545   0.33150
 Alpha virt. eigenvalues --    0.35556   0.38931   0.41245   0.44081   0.45659

 Mulliken charges:
               1
     1  C    0.077095
     2  O   -0.467804
     3  H    0.045163
     4  H    0.033678
     5  H    0.092341
     6  H    0.219526
 Sum of Mulliken charges =   0.00000

 Dipole moment (field-independent basis, Debye):
    X=              1.0822    Y=              1.6990    Z=              0.1485  Tot=              2.0199
 Quadrupole moment (field-independent basis, Debye-Ang):
   XX=            -12.9062   YY=            -11.2550   ZZ=            -13.8210
   XY=             -2.6231   XZ=             -0.1617   YZ=              0.0590

 Normal termination of Gaussian 09 at Wed Aug 26 22:39:18 2020.
