 Gaussian 09, Revision D.01,
 Gaussian 09:  ES64L-G09RevD.01 24-Apr-2013

 --------------------
 #p B2PLYPD3/Def2QZVP
 --------------------

 --------
 methanol
 --------
 Symbolic Z-matrix:
 Charge =  0 Multiplicity = 1

                         Standard orientation:
 ---------------------------------------------------------------------
 Center     Atomic      Atomic             Coordinates (Angstroms)
 Number     Number       Type             X           Y           Z
 ---------------------------------------------------------------------
      1          6           0       -0.657133    0.017315    0.002560
      2          8           0        0.741046   -0.136096   -0.007083
      3          1           0       -1.045800    0.558522   -0.873956
      4          1           0       -1.011218    0.516386    0.884918
      5          1           0       -1.099044   -0.919466    0.001130
      6          1           0        1.170489    0.829434    0.029209
 ---------------------------------------------------------------------

 SCF Done:  E(RB2PLYPD3) =  -115.541652382     A.U. after   11 cycles
 E2(B2PLYPD3) =    -0.1486564460D+00 E(B2PLYPD3) =    -0.11569030882840D+03

 The electronic state is 1-A.
 Alpha  occ. eigenvalues --  -19.73387 -10.64655  -1.14887  -0.78544  -0.57580
 Alpha  occ. eigenvalues --   -0.51664  -0.50495  -0.40762  -0.35066
 Alpha virt. eigenvalues --    0.04194   0.07918   0.12489   0.12770   0.14888
 Alpha virt. eigenvalues --    0.17499   0.18273   0.29071   0.31380   0.33313
 Alpha virt. eigenvalues --    0.34405   0.39088   0.40594   0.41076   0.43702

 Mulliken charges:
               1
     1  C    0.073083
     2  O   -0.476473
     3  H    0.041664
     4  H    0.043363
     5  H    0.069665
     6  H    0.248697
 Sum of Mulliken charges =   0.00000

 Dipole moment (field-independent basis, Debye):
    X=             -0.8163    Y=              1.5453    Z=              0.0910  Tot=              1.7500
 Quadrupole moment (field-independent basis, Debye-Ang):
   XX=            -12.8929   YY=            -12.1482   ZZ=            -13.8688
   XY=              2.4447   XZ=              0.0693   YZ=              0.0496

 Normal termination of Gaussian 09 at Wed Aug 26 22:53:09 2020.
