 Gaussian 09, Revision D.01,
 Gaussian 09:  ES64L-G09RevD.01 24-Apr-2013

 --------------------
 #p B2PLYPD3/Def2QZVP
 --------------------

 --------
 methanol
 --------
 Symbolic Z-matrix:
 Charge =  0 Multiplicity = 1

                         Standard orientation:
 ---------------------------------------------------------------------
 Center     Atomic      Atomic             Coordinates (Angstroms)
 Number     Number       Type             X           Y           Z
 ---------------------------------------------------------------------
      1          6           0       -0.669999    0.012596    0.004630
      2          8           0        0.750218   -0.142869   -0.009682
      3          1           0       -1.045432    0.587624   -0.846348
      4          1           0       -1.018434    0.502269    0.861892
      5          1           0       -1.099711   -0.903143   -0.012868
      6          1           0        1.181826    0.880627    0.047005
 ---------------------------------------------------------------------

 SCF Done:  E(RB2PLYPD3) =  -115.528510208     A.U. after   11 cycles
 E2(B2PLYPD3) =    -0.1498628767D+00 E(B2PLYPD3) =    -0.11567837308504D+03

 The electronic state is 1-A.
 Alpha  occ. eigenvalues --  -19.73723 -10.64137  -1.13384  -0.78946  -0.56730
 Alpha  occ. eigenvalues --   -0.51377  -0.50159  -0.41081  -0.35038
 Alpha virt. eigenvalues --    0.03614   0.07759   0.12599   0.12736   0.14872
 Alpha virt. eigenvalues --    0.17537   0.18185   0.28724   0.30021   0.33394
 Alpha virt. eigenvalues --    0.33656   0.39003   0.40697   0.41104   0.43707

 Mulliken charges:
               1
     1  C    0.083180
     2  O   -0.492350
     3  H    0.040999
     4  H    0.044175
     5  H    0.071107
     6  H    0.252889
 Sum of Mulliken charges =   0.00000

 Dipole moment (field-independent basis, Debye):
    X=             -0.9257    Y=              1.5974    Z=              0.1378  Tot=              1.8514
 Quadrupole moment (field-independent basis, Debye-Ang):
   XX=            -12.8758   YY=            -11.9552   ZZ=            -13.9335
   XY=              2.4699   XZ=              0.0826   YZ=              0.0866

 Normal termination of Gaussian 09 at Wed Aug 26 10:15:29 2020.
