 Gaussian 09, Revision D.01,
 Gaussian 09:  ES64L-G09RevD.01 24-Apr-2013

 --------------------
 #p B2PLYPD3/Def2QZVP
 --------------------

 --------
 methanol
 --------
 Symbolic Z-matrix:
 Charge =  0 Multiplicity = 1

                         Standard orientation:
 ---------------------------------------------------------------------
 Center     Atomic      Atomic             Coordinates (Angstroms)
 Number     Number       Type             X           Y           Z
 ---------------------------------------------------------------------
      1          6           0       -0.623255   -0.032124   -0.029029
      2          8           0        0.742275    0.063910   -0.003797
      3          1           0       -0.986349   -0.669827    0.974072
      4          1           0       -1.116741   -0.562962   -0.899465
      5          1           0       -1.186979    1.223161    0.119173
      6          1           0        1.091401   -0.308908    0.010768
 ---------------------------------------------------------------------

 SCF Done:  E(RB2PLYPD3) =  -114.808656663     A.U. after   12 cycles
 E2(B2PLYPD3) =    -0.1438781995D+00 E(B2PLYPD3) =    -0.11495253486290D+03

 The electronic state is 1-A.
 Alpha  occ. eigenvalues --  -19.69661 -10.71622  -1.34465  -0.86793  -0.64084
 Alpha  occ. eigenvalues --   -0.52093  -0.50093  -0.38408  -0.36276
 Alpha virt. eigenvalues --    0.04336   0.09492   0.10307   0.11757   0.14547
 Alpha virt. eigenvalues --    0.16813   0.17742   0.27983   0.30203   0.31871
 Alpha virt. eigenvalues --    0.34578   0.36550   0.38334   0.41096   0.42244

 Mulliken charges:
               1
     1  C    0.045000
     2  O   -0.013358
     3  H    0.032076
     4  H    0.070253
     5  H    0.055198
     6  H   -0.189170
 Sum of Mulliken charges =   0.00000

 Dipole moment (field-independent basis, Debye):
    X=             -0.6313    Y=             -1.1020    Z=             -0.1007  Tot=              1.2740
 Quadrupole moment (field-independent basis, Debye-Ang):
   XX=            -12.8052   YY=            -12.9132   ZZ=            -13.6695
   XY=             -1.4535   XZ=              0.2901   YZ=              0.1744

 Normal termination of Gaussian 09 at Wed Aug 26 23:02:42 2020.
