 Gaussian 09, Revision D.01,
 Gaussian 09:  ES64L-G09RevD.01 24-Apr-2013

 --------------------
 #p B2PLYPD3/Def2QZVP
 --------------------

 --------
 methanol
 --------
 Symbolic Z-matrix:
 Charge =  0 Multiplicity = 1

                         Standard orientation:
 ---------------------------------------------------------------------
 Center     Atomic      Atomic             Coordinates (Angstroms)
 Number     Number       Type             X           Y           Z
 ---------------------------------------------------------------------
      1          6           0        0.679395    0.011750    0.007148
      2          8           0       -0.761296   -0.137230   -0.008583
      3          1           0        1.110476    0.438712    0.838882
      4          1           0        0.993223    0.663546   -0.816094
      5          1           0        1.076050   -0.944438   -0.088735
      6          1           0       -1.165747    0.869524    0.091724
 ---------------------------------------------------------------------

 SCF Done:  E(RB2PLYPD3) =  -115.531648480     A.U. after   11 cycles
 E2(B2PLYPD3) =    -0.1499082388D+00 E(B2PLYPD3) =    -0.11568155671845D+03

 The electronic state is 1-A.
 Alpha  occ. eigenvalues --  -19.73675 -10.64502  -1.13119  -0.79060  -0.57093
 Alpha  occ. eigenvalues --   -0.51247  -0.49117  -0.41634  -0.35154
 Alpha virt. eigenvalues --    0.03893   0.07745   0.12431   0.12662   0.14948
 Alpha virt. eigenvalues --    0.17330   0.18158   0.28878   0.30643   0.32479
 Alpha virt. eigenvalues --    0.33993   0.38760   0.39434   0.41356   0.44407

 Mulliken charges:
               1
     1  C    0.082645
     2  O   -0.491545
     3  H    0.048352
     4  H    0.040631
     5  H    0.071869
     6  H    0.248048
 Sum of Mulliken charges =   0.00000

 Dipole moment (field-independent basis, Debye):
    X=              1.0077    Y=              1.6056    Z=              0.2142  Tot=              1.9077
 Quadrupole moment (field-independent basis, Debye-Ang):
   XX=            -12.9434   YY=            -11.8787   ZZ=            -14.0037
   XY=             -2.3412   XZ=             -0.0511   YZ=              0.1625

 Normal termination of Gaussian 09 at Wed Aug 26 11:56:41 2020.
