 Gaussian 09, Revision D.01,
 Gaussian 09:  ES64L-G09RevD.01 24-Apr-2013

 --------------------
 #p B2PLYPD3/Def2QZVP
 --------------------

 --------
 methanol
 --------
 Symbolic Z-matrix:
 Charge =  0 Multiplicity = 1

                         Standard orientation:
 ---------------------------------------------------------------------
 Center     Atomic      Atomic             Coordinates (Angstroms)
 Number     Number       Type             X           Y           Z
 ---------------------------------------------------------------------
      1          6           0        0.693818    0.034361   -0.006014
      2          8           0       -0.754805   -0.166737    0.002824
      3          1           0        1.129342    0.385405    0.811738
      4          1           0        0.955713    0.586673   -0.760840
      5          1           0        0.962894   -0.919454   -0.089615
      6          1           0       -1.172419    1.075108    0.052205
 ---------------------------------------------------------------------

 SCF Done:  E(RB2PLYPD3) =  -115.459140625     A.U. after   11 cycles
 E2(B2PLYPD3) =    -0.1546271041D+00 E(B2PLYPD3) =    -0.11561376772882D+03

 The electronic state is 1-A.
 Alpha  occ. eigenvalues --  -19.74881 -10.62057  -1.10898  -0.80276  -0.56203
 Alpha  occ. eigenvalues --   -0.53320  -0.47079  -0.40623  -0.35531
 Alpha virt. eigenvalues --    0.00692   0.07584   0.12295   0.12929   0.14831
 Alpha virt. eigenvalues --    0.16783   0.18455   0.23897   0.29123   0.32320
 Alpha virt. eigenvalues --    0.34072   0.39100   0.39174   0.43622   0.45019

 Mulliken charges:
               1
     1  C    0.096352
     2  O   -0.494952
     3  H    0.047828
     4  H    0.047836
     5  H    0.068768
     6  H    0.234167
 Sum of Mulliken charges =   0.00000

 Dipole moment (field-independent basis, Debye):
    X=              1.2293    Y=              1.7057    Z=              0.0496  Tot=              2.1031
 Quadrupole moment (field-independent basis, Debye-Ang):
   XX=            -13.2307   YY=            -11.3871   ZZ=            -13.9094
   XY=             -2.1970   XZ=              0.0483   YZ=              0.0138

 Normal termination of Gaussian 09 at Wed Aug 26 23:48:38 2020.
