 Gaussian 09, Revision D.01,
 Gaussian 09:  ES64L-G09RevD.01 24-Apr-2013

 --------------------
 #p B2PLYPD3/Def2QZVP
 --------------------

 --------
 methanol
 --------
 Symbolic Z-matrix:
 Charge =  0 Multiplicity = 1

                         Standard orientation:
 ---------------------------------------------------------------------
 Center     Atomic      Atomic             Coordinates (Angstroms)
 Number     Number       Type             X           Y           Z
 ---------------------------------------------------------------------
      1          6           0        0.662117    0.023505    0.001259
      2          8           0       -0.746324   -0.148661   -0.004714
      3          1           0        1.033741    0.496725    0.832327
      4          1           0        0.986919    0.576780   -0.830223
      5          1           0        1.115963   -0.928037   -0.018739
      6          1           0       -1.138737    0.902791    0.046792
 ---------------------------------------------------------------------

 SCF Done:  E(RB2PLYPD3) =  -115.526400334     A.U. after   11 cycles
 E2(B2PLYPD3) =    -0.1499604595D+00 E(B2PLYPD3) =    -0.11567636079358D+03

 The electronic state is 1-A.
 Alpha  occ. eigenvalues --  -19.73849 -10.63760  -1.13734  -0.78888  -0.56875
 Alpha  occ. eigenvalues --   -0.52353  -0.49497  -0.41057  -0.35200
 Alpha virt. eigenvalues --    0.03448   0.07833   0.12584   0.12706   0.14922
 Alpha virt. eigenvalues --    0.17657   0.18158   0.28399   0.29828   0.33375
 Alpha virt. eigenvalues --    0.34246   0.39336   0.39887   0.42169   0.44071

 Mulliken charges:
               1
     1  C    0.087249
     2  O   -0.486899
     3  H    0.042813
     4  H    0.042531
     5  H    0.063374
     6  H    0.250933
 Sum of Mulliken charges =   0.00000

 Dipole moment (field-independent basis, Debye):
    X=              0.9687    Y=              1.6674    Z=              0.1054  Tot=              1.9313
 Quadrupole moment (field-independent basis, Debye-Ang):
   XX=            -13.0781   YY=            -11.8601   ZZ=            -13.9032
   XY=             -2.3534   XZ=             -0.0315   YZ=              0.0610

 Normal termination of Gaussian 09 at Wed Aug 26 10:13:50 2020.
