 Gaussian 09, Revision D.01,
 Gaussian 09:  ES64L-G09RevD.01 24-Apr-2013

 --------------------
 #p B2PLYPD3/Def2QZVP
 --------------------

 --------
 methanol
 --------
 Symbolic Z-matrix:
 Charge =  0 Multiplicity = 1

                         Standard orientation:
 ---------------------------------------------------------------------
 Center     Atomic      Atomic             Coordinates (Angstroms)
 Number     Number       Type             X           Y           Z
 ---------------------------------------------------------------------
      1          6           0       -0.667509    0.011568   -0.000471
      2          8           0        0.742700   -0.148381   -0.008663
      3          1           0       -0.978204    0.590013   -0.829570
      4          1           0       -0.978330    0.470586    0.864723
      5          1           0       -1.064572   -0.885762   -0.020465
      6          1           0        1.084564    0.942805    0.057438
 ---------------------------------------------------------------------

 SCF Done:  E(RB2PLYPD3) =  -115.514396286     A.U. after   11 cycles
 E2(B2PLYPD3) =    -0.1502683077D+00 E(B2PLYPD3) =    -0.11566466459378D+03

 The electronic state is 1-A.
 Alpha  occ. eigenvalues --  -19.73720 -10.63000  -1.13529  -0.79239  -0.56927
 Alpha  occ. eigenvalues --   -0.52654  -0.49733  -0.41377  -0.34989
 Alpha virt. eigenvalues --    0.03145   0.08011   0.12517   0.12759   0.14765
 Alpha virt. eigenvalues --    0.17581   0.18046   0.27934   0.29687   0.33231
 Alpha virt. eigenvalues --    0.34102   0.39183   0.41366   0.42195   0.43938

 Mulliken charges:
               1
     1  C    0.091496
     2  O   -0.489890
     3  H    0.040659
     4  H    0.040271
     5  H    0.068104
     6  H    0.249361
 Sum of Mulliken charges =   0.00000

 Dipole moment (field-independent basis, Debye):
    X=             -1.0755    Y=              1.6300    Z=              0.1314  Tot=              1.9573
 Quadrupole moment (field-independent basis, Debye-Ang):
   XX=            -13.4068   YY=            -11.6580   ZZ=            -13.7792
   XY=              2.3330   XZ=              0.0843   YZ=              0.0723

 Normal termination of Gaussian 09 at Wed Aug 26 15:55:21 2020.
