 Gaussian 09, Revision D.01,
 Gaussian 09:  ES64L-G09RevD.01 24-Apr-2013

 --------------------
 #p B2PLYPD3/Def2QZVP
 --------------------

 --------
 methanol
 --------
 Symbolic Z-matrix:
 Charge =  0 Multiplicity = 1

                         Standard orientation:
 ---------------------------------------------------------------------
 Center     Atomic      Atomic             Coordinates (Angstroms)
 Number     Number       Type             X           Y           Z
 ---------------------------------------------------------------------
      1          6           0        0.661996   -0.024946   -0.002169
      2          8           0       -0.745958    0.124640   -0.005406
      3          1           0        1.028633   -0.596617   -0.846350
      4          1           0        1.062708   -0.490960    0.881657
      5          1           0        1.080642    1.001717   -0.028962
      6          1           0       -1.176292   -0.761585    0.049910
 ---------------------------------------------------------------------

 SCF Done:  E(RB2PLYPD3) =  -115.550866641     A.U. after   10 cycles
 E2(B2PLYPD3) =    -0.1476867500D+00 E(B2PLYPD3) =    -0.11569855339088D+03

 The electronic state is 1-A.
 Alpha  occ. eigenvalues --  -19.72852 -10.65497  -1.15689  -0.78562  -0.58756
 Alpha  occ. eigenvalues --   -0.51687  -0.49474  -0.40843  -0.35356
 Alpha virt. eigenvalues --    0.04810   0.08056   0.12310   0.12582   0.15068
 Alpha virt. eigenvalues --    0.17191   0.18190   0.29161   0.33352   0.33864
 Alpha virt. eigenvalues --    0.34401   0.38313   0.39641   0.41205   0.43728

 Mulliken charges:
               1
     1  C    0.069692
     2  O   -0.465018
     3  H    0.048187
     4  H    0.047642
     5  H    0.067294
     6  H    0.232203
 Sum of Mulliken charges =   0.00000

 Dipole moment (field-independent basis, Debye):
    X=              0.8078    Y=             -1.5448    Z=              0.1081  Tot=              1.7466
 Quadrupole moment (field-independent basis, Debye-Ang):
   XX=            -12.8420   YY=            -12.2222   ZZ=            -13.8925
   XY=              2.2503   XZ=             -0.0858   YZ=             -0.0432

 Normal termination of Gaussian 09 at Thu Aug 27 00:02:31 2020.
