 Gaussian 09, Revision D.01,
 Gaussian 09:  ES64L-G09RevD.01 24-Apr-2013

 --------------------
 #p B2PLYPD3/Def2QZVP
 --------------------

 --------
 methanol
 --------
 Symbolic Z-matrix:
 Charge =  0 Multiplicity = 1

                         Standard orientation:
 ---------------------------------------------------------------------
 Center     Atomic      Atomic             Coordinates (Angstroms)
 Number     Number       Type             X           Y           Z
 ---------------------------------------------------------------------
      1          6           0       -0.650511   -0.006201    0.005601
      2          8           0        0.747095    0.091735   -0.017502
      3          1           0       -1.040758   -0.402014    0.983778
      4          1           0       -0.989384   -0.727128   -0.865888
      5          1           0       -1.090181    1.012223   -0.143044
      6          1           0        1.046627   -0.579755    0.131564
 ---------------------------------------------------------------------

 SCF Done:  E(RB2PLYPD3) =  -115.479957256     A.U. after   10 cycles
 E2(B2PLYPD3) =    -0.1442263052D+00 E(B2PLYPD3) =    -0.11562418356108D+03

 The electronic state is 1-A.
 Alpha  occ. eigenvalues --  -19.70623 -10.67530  -1.23080  -0.80336  -0.61493
 Alpha  occ. eigenvalues --   -0.51657  -0.50832  -0.41496  -0.35649
 Alpha virt. eigenvalues --    0.05380   0.09101   0.11876   0.12223   0.14650
 Alpha virt. eigenvalues --    0.17274   0.17734   0.28674   0.32558   0.33828
 Alpha virt. eigenvalues --    0.36955   0.38609   0.39823   0.40436   0.43166

 Mulliken charges:
               1
     1  C    0.056791
     2  O   -0.290568
     3  H    0.046143
     4  H    0.038648
     5  H    0.078052
     6  H    0.070933
 Sum of Mulliken charges =   0.00000

 Dipole moment (field-independent basis, Debye):
    X=             -0.8997    Y=             -1.2195    Z=              0.3412  Tot=              1.5534
 Quadrupole moment (field-independent basis, Debye-Ang):
   XX=            -13.3059   YY=            -12.4630   ZZ=            -13.6048
   XY=             -2.0130   XZ=              0.2807   YZ=             -0.2309

 Normal termination of Gaussian 09 at Wed Aug 26 15:47:31 2020.
