 Gaussian 09, Revision D.01,
 Gaussian 09:  ES64L-G09RevD.01 24-Apr-2013

 --------------------
 #p B2PLYPD3/Def2QZVP
 --------------------

 --------
 methanol
 --------
 Symbolic Z-matrix:
 Charge =  0 Multiplicity = 1

                         Standard orientation:
 ---------------------------------------------------------------------
 Center     Atomic      Atomic             Coordinates (Angstroms)
 Number     Number       Type             X           Y           Z
 ---------------------------------------------------------------------
      1          6           0        0.658111    0.040700   -0.004527
      2          8           0       -0.730369   -0.161437   -0.002362
      3          1           0        1.012525    0.420758    0.851869
      4          1           0        0.963539    0.598325   -0.769825
      5          1           0        1.070376   -0.933177   -0.071166
      6          1           0       -1.152155    0.961388    0.035178
 ---------------------------------------------------------------------

 SCF Done:  E(RB2PLYPD3) =  -115.501471721     A.U. after   11 cycles
 E2(B2PLYPD3) =    -0.1511009902D+00 E(B2PLYPD3) =    -0.11565257271086D+03

 The electronic state is 1-A.
 Alpha  occ. eigenvalues --  -19.74136 -10.62656  -1.13528  -0.79058  -0.56568
 Alpha  occ. eigenvalues --   -0.53700  -0.49004  -0.40374  -0.35250
 Alpha virt. eigenvalues --    0.02393   0.07843   0.12490   0.12852   0.15013
 Alpha virt. eigenvalues --    0.17382   0.18297   0.26373   0.29482   0.33473
 Alpha virt. eigenvalues --    0.35012   0.38799   0.40005   0.43740   0.44596

 Mulliken charges:
               1
     1  C    0.094685
     2  O   -0.485018
     3  H    0.043961
     4  H    0.042103
     5  H    0.056977
     6  H    0.247292
 Sum of Mulliken charges =   0.00000

 Dipole moment (field-independent basis, Debye):
    X=              0.9552    Y=              1.7229    Z=              0.0576  Tot=              1.9708
 Quadrupole moment (field-independent basis, Debye-Ang):
   XX=            -13.1695   YY=            -11.7180   ZZ=            -13.8220
   XY=             -2.3057   XZ=             -0.0324   YZ=             -0.0021

 Normal termination of Gaussian 09 at Wed Aug 26 13:35:25 2020.
