 Gaussian 09, Revision D.01,
 Gaussian 09:  ES64L-G09RevD.01 24-Apr-2013

 --------------------
 #p B2PLYPD3/Def2QZVP
 --------------------

 --------
 methanol
 --------
 Symbolic Z-matrix:
 Charge =  0 Multiplicity = 1

                         Standard orientation:
 ---------------------------------------------------------------------
 Center     Atomic      Atomic             Coordinates (Angstroms)
 Number     Number       Type             X           Y           Z
 ---------------------------------------------------------------------
      1          6           0        0.678483    0.016232    0.020563
      2          8           0       -0.763664   -0.062748   -0.056410
      3          1           0        0.982422   -0.141112    1.089290
      4          1           0        1.115538    1.039036   -0.483235
      5          1           0        1.105950   -0.900243   -0.565103
      6          1           0       -1.165497    0.406913    0.286946
 ---------------------------------------------------------------------

 SCF Done:  E(RB2PLYPD3) =  -115.422522397     A.U. after   11 cycles
 E2(B2PLYPD3) =    -0.1446109052D+00 E(B2PLYPD3) =    -0.11556713330235D+03

 The electronic state is 1-A.
 Alpha  occ. eigenvalues --  -19.69651 -10.69165  -1.22744  -0.81100  -0.60916
 Alpha  occ. eigenvalues --   -0.51119  -0.49648  -0.39909  -0.36231
 Alpha virt. eigenvalues --    0.05300   0.08920   0.11508   0.12059   0.14065
 Alpha virt. eigenvalues --    0.16836   0.18143   0.28645   0.31438   0.32823
 Alpha virt. eigenvalues --    0.35548   0.36935   0.39702   0.40364   0.42509

 Mulliken charges:
               1
     1  C    0.053550
     2  O   -0.269200
     3  H    0.063435
     4  H    0.051962
     5  H    0.079813
     6  H    0.020440
 Sum of Mulliken charges =   0.00000

 Dipole moment (field-independent basis, Debye):
    X=              0.9276    Y=              0.8904    Z=              0.7762  Tot=              1.5019
 Quadrupole moment (field-independent basis, Debye-Ang):
   XX=            -12.7772   YY=            -12.9690   ZZ=            -13.3216
   XY=             -1.6434   XZ=             -1.1809   YZ=              0.2768

 Normal termination of Gaussian 09 at Wed Aug 26 14:24:36 2020.
