 Gaussian 09, Revision D.01,
 Gaussian 09:  ES64L-G09RevD.01 24-Apr-2013

 --------------------
 #p B2PLYPD3/Def2QZVP
 --------------------

 --------
 methanol
 --------
 Symbolic Z-matrix:
 Charge =  0 Multiplicity = 1

                         Standard orientation:
 ---------------------------------------------------------------------
 Center     Atomic      Atomic             Coordinates (Angstroms)
 Number     Number       Type             X           Y           Z
 ---------------------------------------------------------------------
      1          6           0       -0.669225   -0.030473   -0.003937
      2          8           0        0.747389    0.112526   -0.003928
      3          1           0       -0.961474   -0.543534    0.920470
      4          1           0       -1.004237   -0.570485   -0.883216
      5          1           0       -1.123673    1.039052    0.006359
      6          1           0        1.125627   -0.642404    0.011436
 ---------------------------------------------------------------------

 SCF Done:  E(RB2PLYPD3) =  -115.534585736     A.U. after   10 cycles
 E2(B2PLYPD3) =    -0.1455009284D+00 E(B2PLYPD3) =    -0.11568008666486D+03

 The electronic state is 1-A.
 Alpha  occ. eigenvalues --  -19.71168 -10.66638  -1.18757  -0.79407  -0.60083
 Alpha  occ. eigenvalues --   -0.52431  -0.49454  -0.40741  -0.35719
 Alpha virt. eigenvalues --    0.05329   0.08726   0.12079   0.12231   0.14618
 Alpha virt. eigenvalues --    0.17242   0.17790   0.29066   0.32886   0.33252
 Alpha virt. eigenvalues --    0.36830   0.38331   0.40147   0.40934   0.43514

 Mulliken charges:
               1
     1  C    0.069268
     2  O   -0.402895
     3  H    0.051722
     4  H    0.054836
     5  H    0.067758
     6  H    0.159311
 Sum of Mulliken charges =   0.00000

 Dipole moment (field-independent basis, Debye):
    X=             -0.8965    Y=             -1.4476    Z=              0.0242  Tot=              1.7029
 Quadrupole moment (field-independent basis, Debye-Ang):
   XX=            -13.0661   YY=            -12.3937   ZZ=            -13.6312
   XY=             -2.1333   XZ=              0.0866   YZ=              0.0163

 Normal termination of Gaussian 09 at Thu Aug 27 00:14:47 2020.
