 Gaussian 09, Revision D.01,
 Gaussian 09:  ES64L-G09RevD.01 24-Apr-2013

 --------------------
 #p B2PLYPD3/Def2QZVP
 --------------------

 --------
 methanol
 --------
 Symbolic Z-matrix:
 Charge =  0 Multiplicity = 1

                         Standard orientation:
 ---------------------------------------------------------------------
 Center     Atomic      Atomic             Coordinates (Angstroms)
 Number     Number       Type             X           Y           Z
 ---------------------------------------------------------------------
      1          6           0        0.673925    0.025961   -0.019479
      2          8           0       -0.720154   -0.165213    0.007626
      3          1           0        0.971528    0.507522    0.857154
      4          1           0        0.823339    0.627503   -0.767876
      5          1           0        1.123981   -0.872805   -0.050736
      6          1           0       -1.201164    0.903716    0.017318
 ---------------------------------------------------------------------

 SCF Done:  E(RB2PLYPD3) =  -115.501327868     A.U. after   11 cycles
 E2(B2PLYPD3) =    -0.1501730925D+00 E(B2PLYPD3) =    -0.11565150096089D+03

 The electronic state is 1-A.
 Alpha  occ. eigenvalues --  -19.73234 -10.62312  -1.13311  -0.79157  -0.57287
 Alpha  occ. eigenvalues --   -0.53265  -0.50012  -0.40417  -0.34418
 Alpha virt. eigenvalues --    0.02782   0.08002   0.12606   0.12878   0.14804
 Alpha virt. eigenvalues --    0.17393   0.17803   0.27428   0.29718   0.32847
 Alpha virt. eigenvalues --    0.34255   0.39799   0.41091   0.42476   0.44832

 Mulliken charges:
               1
     1  C    0.096955
     2  O   -0.499255
     3  H    0.037537
     4  H    0.044706
     5  H    0.069876
     6  H    0.250180
 Sum of Mulliken charges =   0.00000

 Dipole moment (field-independent basis, Debye):
    X=              0.8921    Y=              1.6827    Z=             -0.0312  Tot=              1.9048
 Quadrupole moment (field-independent basis, Debye-Ang):
   XX=            -12.9340   YY=            -11.7339   ZZ=            -13.8210
   XY=             -2.6138   XZ=              0.0379   YZ=             -0.0661

 Normal termination of Gaussian 09 at Wed Aug 26 21:54:58 2020.
