 Gaussian 09, Revision D.01,
 Gaussian 09:  ES64L-G09RevD.01 24-Apr-2013

 --------------------
 #p B2PLYPD3/Def2QZVP
 --------------------

 --------
 methanol
 --------
 Symbolic Z-matrix:
 Charge =  0 Multiplicity = 1

                         Standard orientation:
 ---------------------------------------------------------------------
 Center     Atomic      Atomic             Coordinates (Angstroms)
 Number     Number       Type             X           Y           Z
 ---------------------------------------------------------------------
      1          6           0       -0.651289    0.016742    0.003062
      2          8           0        0.759867   -0.077974   -0.025937
      3          1           0       -0.998633    0.959114   -0.624979
      4          1           0       -1.109065    0.017772    1.088079
      5          1           0       -1.087190   -0.938579   -0.489239
      6          1           0        1.023690    0.485034    0.215266
 ---------------------------------------------------------------------

 SCF Done:  E(RB2PLYPD3) =  -115.368476681     A.U. after   11 cycles
 E2(B2PLYPD3) =    -0.1439103949D+00 E(B2PLYPD3) =    -0.11551238707574D+03

 The electronic state is 1-A.
 Alpha  occ. eigenvalues --  -19.69961 -10.68829  -1.26551  -0.80988  -0.61879
 Alpha  occ. eigenvalues --   -0.51630  -0.50381  -0.41255  -0.36339
 Alpha virt. eigenvalues --    0.05307   0.09154   0.11590   0.11990   0.14346
 Alpha virt. eigenvalues --    0.17133   0.18051   0.28206   0.32496   0.33166
 Alpha virt. eigenvalues --    0.35531   0.38110   0.38355   0.40567   0.43324

 Mulliken charges:
               1
     1  C    0.046119
     2  O   -0.217272
     3  H    0.046928
     4  H    0.050415
     5  H    0.075284
     6  H   -0.001475
 Sum of Mulliken charges =   0.00000

 Dipole moment (field-independent basis, Debye):
    X=             -0.9846    Y=              1.0829    Z=              0.4570  Tot=              1.5333
 Quadrupole moment (field-independent basis, Debye-Ang):
   XX=            -13.3192   YY=            -12.6889   ZZ=            -13.4325
   XY=              1.7838   XZ=              0.6673   YZ=              0.2771

 Normal termination of Gaussian 09 at Wed Aug 26 12:32:56 2020.
