 Gaussian 09, Revision D.01,
 Gaussian 09:  ES64L-G09RevD.01 24-Apr-2013

 --------------------
 #p B2PLYPD3/Def2QZVP
 --------------------

 --------
 methanol
 --------
 Symbolic Z-matrix:
 Charge =  0 Multiplicity = 1

                         Standard orientation:
 ---------------------------------------------------------------------
 Center     Atomic      Atomic             Coordinates (Angstroms)
 Number     Number       Type             X           Y           Z
 ---------------------------------------------------------------------
      1          6           0        0.663187   -0.009969    0.005145
      2          8           0       -0.752650    0.092461   -0.018470
      3          1           0        1.029392   -0.761952   -0.811490
      4          1           0        1.018132   -0.319935    1.022941
      5          1           0        1.054882    1.008289   -0.207116
      6          1           0       -1.060324   -0.606278    0.112555
 ---------------------------------------------------------------------

 SCF Done:  E(RB2PLYPD3) =  -115.500029460     A.U. after   10 cycles
 E2(B2PLYPD3) =    -0.1447079332D+00 E(B2PLYPD3) =    -0.11564473739344D+03

 The electronic state is 1-A.
 Alpha  occ. eigenvalues --  -19.70722 -10.67363  -1.21520  -0.79973  -0.60726
 Alpha  occ. eigenvalues --   -0.51550  -0.50389  -0.41521  -0.35805
 Alpha virt. eigenvalues --    0.05384   0.08985   0.11859   0.12238   0.14576
 Alpha virt. eigenvalues --    0.17084   0.17869   0.28780   0.32878   0.33003
 Alpha virt. eigenvalues --    0.36949   0.39032   0.39689   0.40399   0.43072

 Mulliken charges:
               1
     1  C    0.058833
     2  O   -0.325280
     3  H    0.043247
     4  H    0.051760
     5  H    0.077792
     6  H    0.093649
 Sum of Mulliken charges =   0.00000

 Dipole moment (field-independent basis, Debye):
    X=              0.9546    Y=             -1.2632    Z=              0.2813  Tot=              1.6081
 Quadrupole moment (field-independent basis, Debye-Ang):
   XX=            -13.3231   YY=            -12.4065   ZZ=            -13.5678
   XY=              2.0009   XZ=             -0.3282   YZ=             -0.1906

 Normal termination of Gaussian 09 at Wed Aug 26 15:12:01 2020.
