 Gaussian 09, Revision D.01,
 Gaussian 09:  ES64L-G09RevD.01 24-Apr-2013

 --------------------
 #p B2PLYPD3/Def2QZVP
 --------------------

 --------
 methanol
 --------
 Symbolic Z-matrix:
 Charge =  0 Multiplicity = 1

                         Standard orientation:
 ---------------------------------------------------------------------
 Center     Atomic      Atomic             Coordinates (Angstroms)
 Number     Number       Type             X           Y           Z
 ---------------------------------------------------------------------
      1          6           0       -0.679939   -0.017901    0.007245
      2          8           0        0.744475    0.096086   -0.014290
      3          1           0       -0.917662   -0.477508    0.997737
      4          1           0       -1.064206   -0.628652   -0.889041
      5          1           0       -1.055249    1.023820   -0.057788
      6          1           0        1.160950   -0.578938    0.019939
 ---------------------------------------------------------------------

 SCF Done:  E(RB2PLYPD3) =  -115.510371782     A.U. after   10 cycles
 E2(B2PLYPD3) =    -0.1448588938D+00 E(B2PLYPD3) =    -0.11565523067540D+03

 The electronic state is 1-A.
 Alpha  occ. eigenvalues --  -19.70239 -10.67273  -1.19719  -0.80346  -0.59997
 Alpha  occ. eigenvalues --   -0.51928  -0.50254  -0.40354  -0.35537
 Alpha virt. eigenvalues --    0.05441   0.08894   0.11945   0.12288   0.14347
 Alpha virt. eigenvalues --    0.16840   0.17796   0.29042   0.32218   0.33158
 Alpha virt. eigenvalues --    0.37485   0.39386   0.39537   0.40058   0.43129

 Mulliken charges:
               1
     1  C    0.063978
     2  O   -0.361743
     3  H    0.055161
     4  H    0.049695
     5  H    0.081362
     6  H    0.111547
 Sum of Mulliken charges =   0.00000

 Dipole moment (field-independent basis, Debye):
    X=             -0.8568    Y=             -1.2780    Z=              0.0985  Tot=              1.5418
 Quadrupole moment (field-independent basis, Debye-Ang):
   XX=            -12.9464   YY=            -12.5180   ZZ=            -13.5263
   XY=             -2.1378   XZ=              0.2208   YZ=             -0.0478

 Normal termination of Gaussian 09 at Wed Aug 26 13:53:59 2020.
