 Gaussian 09, Revision D.01,
 Gaussian 09:  ES64L-G09RevD.01 24-Apr-2013

 --------------------
 #p B2PLYPD3/Def2QZVP
 --------------------

 --------
 methanol
 --------
 Symbolic Z-matrix:
 Charge =  0 Multiplicity = 1

                         Standard orientation:
 ---------------------------------------------------------------------
 Center     Atomic      Atomic             Coordinates (Angstroms)
 Number     Number       Type             X           Y           Z
 ---------------------------------------------------------------------
      1          6           0       -0.664718    0.038628    0.003894
      2          8           0        0.734590   -0.167383   -0.010206
      3          1           0       -0.998098    0.569352   -0.794951
      4          1           0       -0.995534    0.440897    0.813554
      5          1           0       -1.062059   -0.911322   -0.020489
      6          1           0        1.167277    1.008367    0.060168
 ---------------------------------------------------------------------

 SCF Done:  E(RB2PLYPD3) =  -115.482666314     A.U. after   11 cycles
 E2(B2PLYPD3) =    -0.1523231729D+00 E(B2PLYPD3) =    -0.11563498948643D+03

 The electronic state is 1-A.
 Alpha  occ. eigenvalues --  -19.74469 -10.62175  -1.12702  -0.79592  -0.55987
 Alpha  occ. eigenvalues --   -0.53709  -0.48795  -0.40301  -0.35329
 Alpha virt. eigenvalues --    0.01530   0.07742   0.12575   0.12850   0.14967
 Alpha virt. eigenvalues --    0.17355   0.18350   0.25030   0.29478   0.33605
 Alpha virt. eigenvalues --    0.34641   0.39067   0.39746   0.43523   0.44842

 Mulliken charges:
               1
     1  C    0.099192
     2  O   -0.488817
     3  H    0.043027
     4  H    0.044224
     5  H    0.057747
     6  H    0.244627
 Sum of Mulliken charges =   0.00000

 Dipole moment (field-independent basis, Debye):
    X=             -1.0277    Y=              1.7223    Z=              0.1491  Tot=              2.0112
 Quadrupole moment (field-independent basis, Debye-Ang):
   XX=            -13.1333   YY=            -11.6220   ZZ=            -13.8260
   XY=              2.3316   XZ=              0.0650   YZ=              0.0744

 Normal termination of Gaussian 09 at Wed Aug 26 12:24:16 2020.
