 Gaussian 09, Revision D.01,
 Gaussian 09:  ES64L-G09RevD.01 24-Apr-2013

 --------------------
 #p B2PLYPD3/Def2QZVP
 --------------------

 --------
 methanol
 --------
 Symbolic Z-matrix:
 Charge =  0 Multiplicity = 1

                         Standard orientation:
 ---------------------------------------------------------------------
 Center     Atomic      Atomic             Coordinates (Angstroms)
 Number     Number       Type             X           Y           Z
 ---------------------------------------------------------------------
      1          6           0        0.661082   -0.001865    0.012453
      2          8           0       -0.752717    0.092038   -0.011343
      3          1           0        1.110298   -0.669918   -0.887780
      4          1           0        1.060972   -0.474542    0.966008
      5          1           0        1.074111    1.019317   -0.101994
      6          1           0       -1.190139   -0.599971    0.039790
 ---------------------------------------------------------------------

 SCF Done:  E(RB2PLYPD3) =  -115.519270077     A.U. after   10 cycles
 E2(B2PLYPD3) =    -0.1455980139D+00 E(B2PLYPD3) =    -0.11566486809060D+03

 The electronic state is 1-A.
 Alpha  occ. eigenvalues --  -19.71384 -10.68021  -1.19540  -0.79845  -0.60614
 Alpha  occ. eigenvalues --   -0.50893  -0.50027  -0.40548  -0.35320
 Alpha virt. eigenvalues --    0.05351   0.08457   0.11988   0.12248   0.14803
 Alpha virt. eigenvalues --    0.17035   0.17989   0.28980   0.32730   0.33208
 Alpha virt. eigenvalues --    0.36284   0.38458   0.39257   0.40003   0.41996

 Mulliken charges:
               1
     1  C    0.059767
     2  O   -0.372916
     3  H    0.034120
     4  H    0.050328
     5  H    0.084135
     6  H    0.144566
 Sum of Mulliken charges =   0.00000

 Dipole moment (field-independent basis, Debye):
    X=              0.7255    Y=             -1.2416    Z=              0.1697  Tot=              1.4480
 Quadrupole moment (field-independent basis, Debye-Ang):
   XX=            -12.6803   YY=            -12.5970   ZZ=            -13.8919
   XY=              2.1762   XZ=             -0.1055   YZ=             -0.1604

 Normal termination of Gaussian 09 at Wed Aug 26 11:30:05 2020.
