 Gaussian 09, Revision D.01,
 Gaussian 09:  ES64L-G09RevD.01 24-Apr-2013

 --------------------
 #p B2PLYPD3/Def2QZVP
 --------------------

 --------
 methanol
 --------
 Symbolic Z-matrix:
 Charge =  0 Multiplicity = 1

                         Standard orientation:
 ---------------------------------------------------------------------
 Center     Atomic      Atomic             Coordinates (Angstroms)
 Number     Number       Type             X           Y           Z
 ---------------------------------------------------------------------
      1          6           0       -0.666096   -0.003176    0.000946
      2          8           0        0.765150   -0.028162   -0.059561
      3          1           0       -1.117989    1.212171    0.072291
      4          1           0       -1.111329   -0.674337    0.904517
      5          1           0       -1.100964   -0.485260   -0.895013
      6          1           0        1.205662    0.191779    0.389016
 ---------------------------------------------------------------------

 SCF Done:  E(RB2PLYPD3) =  -115.343879455     A.U. after   11 cycles
 E2(B2PLYPD3) =    -0.1447399640D+00 E(B2PLYPD3) =    -0.11548861941946D+03

 The electronic state is 1-A.
 Alpha  occ. eigenvalues --  -19.69606 -10.70556  -1.24705  -0.82621  -0.61697
 Alpha  occ. eigenvalues --   -0.50933  -0.49673  -0.39359  -0.35831
 Alpha virt. eigenvalues --    0.05047   0.08863   0.10987   0.12246   0.14005
 Alpha virt. eigenvalues --    0.16841   0.18220   0.28423   0.31123   0.31956
 Alpha virt. eigenvalues --    0.33918   0.36736   0.38248   0.41626   0.41967

 Mulliken charges:
               1
     1  C    0.050745
     2  O   -0.221820
     3  H    0.038076
     4  H    0.050236
     5  H    0.098600
     6  H   -0.015836
 Sum of Mulliken charges =   0.00000

 Dipole moment (field-independent basis, Debye):
    X=             -0.7923    Y=              0.3120    Z=              0.8670  Tot=              1.2152
 Quadrupole moment (field-independent basis, Debye-Ang):
   XX=            -12.4728   YY=            -13.4376   ZZ=            -13.2625
   XY=              1.0356   XZ=              1.7865   YZ=              0.2998

 Normal termination of Gaussian 09 at Wed Aug 26 19:39:25 2020.
