 Gaussian 09, Revision D.01,
 Gaussian 09:  ES64L-G09RevD.01 24-Apr-2013

 --------------------
 #p B2PLYPD3/Def2QZVP
 --------------------

 --------
 methanol
 --------
 Symbolic Z-matrix:
 Charge =  0 Multiplicity = 1

                         Standard orientation:
 ---------------------------------------------------------------------
 Center     Atomic      Atomic             Coordinates (Angstroms)
 Number     Number       Type             X           Y           Z
 ---------------------------------------------------------------------
      1          6           0       -0.688412   -0.046958    0.044101
      2          8           0        0.748719    0.098554   -0.027930
      3          1           0       -0.960117   -0.272959    0.918340
      4          1           0       -1.045936   -0.721347   -0.839346
      5          1           0       -0.995459    1.102965   -0.229460
      6          1           0        1.142232   -0.615349    0.109300
 ---------------------------------------------------------------------

 SCF Done:  E(RB2PLYPD3) =  -115.498374676     A.U. after   11 cycles
 E2(B2PLYPD3) =    -0.1458279137D+00 E(B2PLYPD3) =    -0.11564420258967D+03

 The electronic state is 1-A.
 Alpha  occ. eigenvalues --  -19.70756 -10.66577  -1.18546  -0.80499  -0.60739
 Alpha  occ. eigenvalues --   -0.53373  -0.47727  -0.40126  -0.36191
 Alpha virt. eigenvalues --    0.05255   0.08825   0.11382   0.12017   0.14698
 Alpha virt. eigenvalues --    0.16692   0.18296   0.28866   0.31889   0.33340
 Alpha virt. eigenvalues --    0.34956   0.37664   0.40166   0.41526   0.45791

 Mulliken charges:
               1
     1  C    0.056179
     2  O   -0.389520
     3  H    0.077032
     4  H    0.056963
     5  H    0.060498
     6  H    0.138849
 Sum of Mulliken charges =   0.00000

 Dipole moment (field-independent basis, Debye):
    X=             -0.8974    Y=             -1.4158    Z=              0.4063  Tot=              1.7248
 Quadrupole moment (field-independent basis, Debye-Ang):
   XX=            -13.1426   YY=            -12.5169   ZZ=            -13.3548
   XY=             -1.8679   XZ=              0.2472   YZ=             -0.2231

 Normal termination of Gaussian 09 at Wed Aug 26 22:00:21 2020.
