 Gaussian 09, Revision D.01,
 Gaussian 09:  ES64L-G09RevD.01 24-Apr-2013

 --------------------
 #p B2PLYPD3/Def2QZVP
 --------------------

 --------
 methanol
 --------
 Symbolic Z-matrix:
 Charge =  0 Multiplicity = 1

                         Standard orientation:
 ---------------------------------------------------------------------
 Center     Atomic      Atomic             Coordinates (Angstroms)
 Number     Number       Type             X           Y           Z
 ---------------------------------------------------------------------
      1          6           0        0.669779    0.021181    0.006662
      2          8           0       -0.742313   -0.137593   -0.008556
      3          1           0        1.062301    0.438906    0.861090
      4          1           0        0.990440    0.643553   -0.824660
      5          1           0        1.050405   -0.955632   -0.082799
      6          1           0       -1.183317    0.846828    0.074849
 ---------------------------------------------------------------------

 SCF Done:  E(RB2PLYPD3) =  -115.535803535     A.U. after   11 cycles
 E2(B2PLYPD3) =    -0.1492170644D+00 E(B2PLYPD3) =    -0.11568502059894D+03

 The electronic state is 1-A.
 Alpha  occ. eigenvalues --  -19.73374 -10.64259  -1.13974  -0.78723  -0.57536
 Alpha  occ. eigenvalues --   -0.51921  -0.49435  -0.41037  -0.35086
 Alpha virt. eigenvalues --    0.03992   0.07923   0.12478   0.12666   0.15051
 Alpha virt. eigenvalues --    0.17150   0.18174   0.29068   0.30906   0.33217
 Alpha virt. eigenvalues --    0.34266   0.39028   0.39466   0.41820   0.44470

 Mulliken charges:
               1
     1  C    0.078707
     2  O   -0.486173
     3  H    0.048509
     4  H    0.042048
     5  H    0.069824
     6  H    0.247085
 Sum of Mulliken charges =   0.00000

 Dipole moment (field-independent basis, Debye):
    X=              0.8756    Y=              1.5948    Z=              0.1834  Tot=              1.8285
 Quadrupole moment (field-independent basis, Debye-Ang):
   XX=            -12.9264   YY=            -11.9716   ZZ=            -13.8900
   XY=             -2.3491   XZ=             -0.0623   YZ=              0.1306

 Normal termination of Gaussian 09 at Wed Aug 26 10:10:20 2020.
