 Gaussian 09, Revision D.01,
 Gaussian 09:  ES64L-G09RevD.01 24-Apr-2013

 --------------------
 #p B2PLYPD3/Def2QZVP
 --------------------

 --------
 methanol
 --------
 Symbolic Z-matrix:
 Charge =  0 Multiplicity = 1

                         Standard orientation:
 ---------------------------------------------------------------------
 Center     Atomic      Atomic             Coordinates (Angstroms)
 Number     Number       Type             X           Y           Z
 ---------------------------------------------------------------------
      1          6           0        0.656535    0.023068    0.030851
      2          8           0       -0.754411   -0.142509   -0.045319
      3          1           0        0.914601    0.299178    0.909219
      4          1           0        1.120357    0.648423   -0.852909
      5          1           0        1.130271   -0.860792   -0.064352
      6          1           0       -1.069149    0.914857    0.185489
 ---------------------------------------------------------------------

 SCF Done:  E(RB2PLYPD3) =  -115.502965462     A.U. after   11 cycles
 E2(B2PLYPD3) =    -0.1506271544D+00 E(B2PLYPD3) =    -0.11565359261671D+03

 The electronic state is 1-A.
 Alpha  occ. eigenvalues --  -19.74180 -10.63841  -1.13946  -0.79545  -0.56590
 Alpha  occ. eigenvalues --   -0.52212  -0.50073  -0.40670  -0.35452
 Alpha virt. eigenvalues --    0.03420   0.07663   0.12025   0.12959   0.14397
 Alpha virt. eigenvalues --    0.17967   0.18808   0.27865   0.29366   0.32847
 Alpha virt. eigenvalues --    0.33774   0.37696   0.41182   0.41766   0.43821

 Mulliken charges:
               1
     1  C    0.075729
     2  O   -0.478469
     3  H    0.052603
     4  H    0.038470
     5  H    0.057374
     6  H    0.254294
 Sum of Mulliken charges =   0.00000

 Dipole moment (field-independent basis, Debye):
    X=              1.0533    Y=              1.4950    Z=              0.5358  Tot=              1.9057
 Quadrupole moment (field-independent basis, Debye-Ang):
   XX=            -13.3705   YY=            -12.1279   ZZ=            -13.5918
   XY=             -2.3859   XZ=             -0.3956   YZ=              0.3443

 Normal termination of Gaussian 09 at Wed Aug 26 21:17:22 2020.
