 Gaussian 09, Revision D.01,
 Gaussian 09:  ES64L-G09RevD.01 24-Apr-2013

 --------------------
 #p B2PLYPD3/Def2QZVP
 --------------------

 --------
 methanol
 --------
 Symbolic Z-matrix:
 Charge =  0 Multiplicity = 1

                         Standard orientation:
 ---------------------------------------------------------------------
 Center     Atomic      Atomic             Coordinates (Angstroms)
 Number     Number       Type             X           Y           Z
 ---------------------------------------------------------------------
      1          6           0       -0.647308    0.013169    0.002227
      2          8           0        0.740981   -0.096926   -0.027643
      3          1           0       -0.994742    0.884287   -0.693801
      4          1           0       -1.056348    0.121893    1.048525
      5          1           0       -1.042351   -0.936616   -0.355760
      6          1           0        1.049445    0.626830    0.208813
 ---------------------------------------------------------------------

 SCF Done:  E(RB2PLYPD3) =  -115.525040632     A.U. after   11 cycles
 E2(B2PLYPD3) =    -0.1451238409D+00 E(B2PLYPD3) =    -0.11567016447337D+03

 The electronic state is 1-A.
 Alpha  occ. eigenvalues --  -19.71451 -10.66820  -1.20927  -0.79482  -0.60575
 Alpha  occ. eigenvalues --   -0.51996  -0.50742  -0.41245  -0.35552
 Alpha virt. eigenvalues --    0.05325   0.08858   0.11885   0.12466   0.14622
 Alpha virt. eigenvalues --    0.17157   0.18154   0.28691   0.32824   0.34121
 Alpha virt. eigenvalues --    0.36584   0.39147   0.39955   0.40884   0.43501

 Mulliken charges:
               1
     1  C    0.055373
     2  O   -0.356939
     3  H    0.038867
     4  H    0.047175
     5  H    0.073317
     6  H    0.142207
 Sum of Mulliken charges =   0.00000

 Dipole moment (field-independent basis, Debye):
    X=             -0.8426    Y=              1.2370    Z=              0.4342  Tot=              1.5585
 Quadrupole moment (field-independent basis, Debye-Ang):
   XX=            -13.3824   YY=            -12.4629   ZZ=            -13.5646
   XY=              2.0171   XZ=              0.5596   YZ=              0.2908

 Normal termination of Gaussian 09 at Wed Aug 26 12:25:08 2020.
