 Gaussian 09, Revision D.01,
 Gaussian 09:  ES64L-G09RevD.01 24-Apr-2013

 --------------------
 #p B2PLYPD3/Def2QZVP
 --------------------

 --------
 methanol
 --------
 Symbolic Z-matrix:
 Charge =  0 Multiplicity = 1

                         Standard orientation:
 ---------------------------------------------------------------------
 Center     Atomic      Atomic             Coordinates (Angstroms)
 Number     Number       Type             X           Y           Z
 ---------------------------------------------------------------------
      1          6           0       -0.689569   -0.003929    0.002896
      2          8           0        0.757544    0.084936   -0.015654
      3          1           0       -1.011799   -0.378267    1.037345
      4          1           0       -1.004666   -0.761320   -0.842703
      5          1           0       -1.061190    1.009565   -0.185031
      6          1           0        1.154719   -0.525891    0.098247
 ---------------------------------------------------------------------

 SCF Done:  E(RB2PLYPD3) =  -115.463920073     A.U. after   11 cycles
 E2(B2PLYPD3) =    -0.1444671851D+00 E(B2PLYPD3) =    -0.11560838725836D+03

 The electronic state is 1-A.
 Alpha  occ. eigenvalues --  -19.69560 -10.68170  -1.21187  -0.81015  -0.60273
 Alpha  occ. eigenvalues --   -0.50892  -0.50863  -0.40583  -0.35639
 Alpha virt. eigenvalues --    0.05401   0.09020   0.11711   0.12221   0.14225
 Alpha virt. eigenvalues --    0.16820   0.17577   0.28928   0.31312   0.32843
 Alpha virt. eigenvalues --    0.37005   0.38598   0.39424   0.40501   0.42482

 Mulliken charges:
               1
     1  C    0.065431
     2  O   -0.309722
     3  H    0.053865
     4  H    0.048993
     5  H    0.091657
     6  H    0.049776
 Sum of Mulliken charges =   0.00000

 Dipole moment (field-independent basis, Debye):
    X=             -0.9736    Y=             -1.1688    Z=              0.2481  Tot=              1.5413
 Quadrupole moment (field-independent basis, Debye-Ang):
   XX=            -12.9426   YY=            -12.5196   ZZ=            -13.5204
   XY=             -2.0825   XZ=              0.3369   YZ=             -0.1728

 Normal termination of Gaussian 09 at Wed Aug 26 13:15:10 2020.
