 Gaussian 09, Revision D.01,
 Gaussian 09:  ES64L-G09RevD.01 24-Apr-2013

 --------------------
 #p B2PLYPD3/Def2QZVP
 --------------------

 --------
 methanol
 --------
 Symbolic Z-matrix:
 Charge =  0 Multiplicity = 1

                         Standard orientation:
 ---------------------------------------------------------------------
 Center     Atomic      Atomic             Coordinates (Angstroms)
 Number     Number       Type             X           Y           Z
 ---------------------------------------------------------------------
      1          6           0        0.664934    0.026714   -0.007891
      2          8           0       -0.742556   -0.145159    0.007968
      3          1           0        0.979847    0.586107    0.866466
      4          1           0        1.027689    0.467860   -0.865616
      5          1           0        1.110835   -0.915502    0.043563
      6          1           0       -1.167529    0.862524   -0.060815
 ---------------------------------------------------------------------

 SCF Done:  E(RB2PLYPD3) =  -115.533189546     A.U. after   11 cycles
 E2(B2PLYPD3) =    -0.1493897390D+00 E(B2PLYPD3) =    -0.11568257928505D+03

 The electronic state is 1-A.
 Alpha  occ. eigenvalues --  -19.73513 -10.64099  -1.13961  -0.78733  -0.56879
 Alpha  occ. eigenvalues --   -0.52406  -0.49837  -0.40704  -0.35177
 Alpha virt. eigenvalues --    0.03831   0.07881   0.12500   0.12745   0.14759
 Alpha virt. eigenvalues --    0.17539   0.18286   0.28877   0.30289   0.33246
 Alpha virt. eigenvalues --    0.34173   0.39289   0.40250   0.41938   0.43997

 Mulliken charges:
               1
     1  C    0.079531
     2  O   -0.486923
     3  H    0.044020
     4  H    0.047854
     5  H    0.065205
     6  H    0.250313
 Sum of Mulliken charges =   0.00000

 Dipole moment (field-independent basis, Debye):
    X=              0.9027    Y=              1.6006    Z=             -0.1546  Tot=              1.8441
 Quadrupole moment (field-independent basis, Debye-Ang):
   XX=            -12.9607   YY=            -12.0700   ZZ=            -13.7877
   XY=             -2.4459   XZ=              0.0505   YZ=             -0.1117

 Normal termination of Gaussian 09 at Thu Aug 27 00:05:31 2020.
