 Gaussian 09, Revision D.01,
 Gaussian 09:  ES64L-G09RevD.01 24-Apr-2013

 --------------------
 #p B2PLYPD3/Def2QZVP
 --------------------

 --------
 methanol
 --------
 Symbolic Z-matrix:
 Charge =  0 Multiplicity = 1

                         Standard orientation:
 ---------------------------------------------------------------------
 Center     Atomic      Atomic             Coordinates (Angstroms)
 Number     Number       Type             X           Y           Z
 ---------------------------------------------------------------------
      1          6           0        0.653335    0.004695   -0.038357
      2          8           0       -0.707606   -0.203506    0.029205
      3          1           0        1.038686    0.614051    0.836579
      4          1           0        0.904038    0.496198   -0.728477
      5          1           0        1.065527   -0.701366   -0.015487
      6          1           0       -1.267411    1.190999   -0.096111
 ---------------------------------------------------------------------

 SCF Done:  E(RB2PLYPD3) =  -115.320899811     A.U. after   13 cycles
 E2(B2PLYPD3) =    -0.1571277159D+00 E(B2PLYPD3) =    -0.11547802752646D+03

 The electronic state is 1-A.
 Alpha  occ. eigenvalues --  -19.75556 -10.59984  -1.13173  -0.82211  -0.58672
 Alpha  occ. eigenvalues --   -0.51564  -0.50440  -0.39145  -0.34229
 Alpha virt. eigenvalues --   -0.03827   0.07487   0.12893   0.13085   0.14785
 Alpha virt. eigenvalues --    0.17992   0.18165   0.21355   0.29667   0.32376
 Alpha virt. eigenvalues --    0.35615   0.37807   0.40730   0.42078   0.47368

 Mulliken charges:
               1
     1  C   -0.009679
     2  O   -0.461707
     3  H    0.031227
     4  H    0.062144
     5  H    0.148812
     6  H    0.229205
 Sum of Mulliken charges =   0.00000

 Dipole moment (field-independent basis, Debye):
    X=              0.9164    Y=              1.6713    Z=             -0.3893  Tot=              1.9454
 Quadrupole moment (field-independent basis, Debye-Ang):
   XX=            -12.8774   YY=            -11.2117   ZZ=            -13.9991
   XY=             -2.7605   XZ=             -0.0058   YZ=             -0.3048

 Normal termination of Gaussian 09 at Wed Aug 26 20:59:31 2020.
