 Gaussian 09, Revision D.01,
 Gaussian 09:  ES64L-G09RevD.01 24-Apr-2013

 --------------------
 #p B2PLYPD3/Def2QZVP
 --------------------

 --------
 methanol
 --------
 Symbolic Z-matrix:
 Charge =  0 Multiplicity = 1

                         Standard orientation:
 ---------------------------------------------------------------------
 Center     Atomic      Atomic             Coordinates (Angstroms)
 Number     Number       Type             X           Y           Z
 ---------------------------------------------------------------------
      1          6           0       -0.660849   -0.016760    0.010297
      2          8           0        0.744977    0.096887   -0.020029
      3          1           0       -0.983242   -0.386749    0.987337
      4          1           0       -1.044231   -0.702262   -0.848198
      5          1           0       -1.055546    1.030179   -0.135064
      6          1           0        1.088303   -0.615703    0.094373
 ---------------------------------------------------------------------

 SCF Done:  E(RB2PLYPD3) =  -115.515350809     A.U. after   10 cycles
 E2(B2PLYPD3) =    -0.1448535446D+00 E(B2PLYPD3) =    -0.11566020435359D+03

 The electronic state is 1-A.
 Alpha  occ. eigenvalues --  -19.70889 -10.67044  -1.20739  -0.79854  -0.60726
 Alpha  occ. eigenvalues --   -0.51886  -0.50168  -0.41098  -0.35717
 Alpha virt. eigenvalues --    0.05382   0.08939   0.11991   0.12202   0.14664
 Alpha virt. eigenvalues --    0.17046   0.17894   0.28879   0.32994   0.33405
 Alpha virt. eigenvalues --    0.37256   0.38678   0.39912   0.40595   0.43178

 Mulliken charges:
               1
     1  C    0.060259
     2  O   -0.349571
     3  H    0.053745
     4  H    0.043413
     5  H    0.073572
     6  H    0.118581
 Sum of Mulliken charges =   0.00000

 Dipole moment (field-independent basis, Debye):
    X=             -0.8711    Y=             -1.3104    Z=              0.2820  Tot=              1.5986
 Quadrupole moment (field-independent basis, Debye-Ang):
   XX=            -13.2274   YY=            -12.4252   ZZ=            -13.5800
   XY=             -2.0286   XZ=              0.2836   YZ=             -0.1727

 Normal termination of Gaussian 09 at Thu Aug 27 00:04:58 2020.
