 Gaussian 09, Revision D.01,
 Gaussian 09:  ES64L-G09RevD.01 24-Apr-2013

 --------------------
 #p B2PLYPD3/Def2QZVP
 --------------------

 --------
 methanol
 --------
 Symbolic Z-matrix:
 Charge =  0 Multiplicity = 1

                         Standard orientation:
 ---------------------------------------------------------------------
 Center     Atomic      Atomic             Coordinates (Angstroms)
 Number     Number       Type             X           Y           Z
 ---------------------------------------------------------------------
      1          6           0       -0.672805   -0.026621    0.008302
      2          8           0        0.747378    0.097754   -0.019807
      3          1           0       -0.993731   -0.375624    0.993001
      4          1           0       -1.046561   -0.695453   -0.844924
      5          1           0       -1.060647    1.042200   -0.135236
      6          1           0        1.158750   -0.593431    0.095801
 ---------------------------------------------------------------------

 SCF Done:  E(RB2PLYPD3) =  -115.520844817     A.U. after   10 cycles
 E2(B2PLYPD3) =    -0.1451855651D+00 E(B2PLYPD3) =    -0.11566603038235D+03

 The electronic state is 1-A.
 Alpha  occ. eigenvalues --  -19.70765 -10.67234  -1.19413  -0.79899  -0.60268
 Alpha  occ. eigenvalues --   -0.51909  -0.49620  -0.40385  -0.35801
 Alpha virt. eigenvalues --    0.05413   0.08776   0.12018   0.12174   0.14564
 Alpha virt. eigenvalues --    0.16877   0.18030   0.28978   0.32847   0.33207
 Alpha virt. eigenvalues --    0.37143   0.38628   0.39750   0.40527   0.42790

 Mulliken charges:
               1
     1  C    0.061360
     2  O   -0.375000
     3  H    0.057938
     4  H    0.051742
     5  H    0.072953
     6  H    0.131008
 Sum of Mulliken charges =   0.00000

 Dipole moment (field-independent basis, Debye):
    X=             -0.8377    Y=             -1.3206    Z=              0.2740  Tot=              1.5877
 Quadrupole moment (field-independent basis, Debye-Ang):
   XX=            -12.9208   YY=            -12.5546   ZZ=            -13.5584
   XY=             -2.0586   XZ=              0.3170   YZ=             -0.1302

 Normal termination of Gaussian 09 at Thu Aug 27 00:01:35 2020.
