 Gaussian 09, Revision D.01,
 Gaussian 09:  ES64L-G09RevD.01 24-Apr-2013

 --------------------
 #p B2PLYPD3/Def2QZVP
 --------------------

 --------
 methanol
 --------
 Symbolic Z-matrix:
 Charge =  0 Multiplicity = 1

                         Standard orientation:
 ---------------------------------------------------------------------
 Center     Atomic      Atomic             Coordinates (Angstroms)
 Number     Number       Type             X           Y           Z
 ---------------------------------------------------------------------
      1          6           0       -0.663041   -0.004280   -0.003436
      2          8           0        0.747074    0.103083   -0.000488
      3          1           0       -1.090772   -0.492538    0.963048
      4          1           0       -1.043784   -0.604070   -0.908345
      5          1           0       -1.039099    0.971216   -0.057382
      6          1           0        1.175314   -0.673598    0.027199
 ---------------------------------------------------------------------

 SCF Done:  E(RB2PLYPD3) =  -115.542196568     A.U. after   10 cycles
 E2(B2PLYPD3) =    -0.1462388017D+00 E(B2PLYPD3) =    -0.11568843537011D+03

 The electronic state is 1-A.
 Alpha  occ. eigenvalues --  -19.71945 -10.66755  -1.17793  -0.79373  -0.59506
 Alpha  occ. eigenvalues --   -0.51128  -0.50566  -0.40824  -0.35210
 Alpha virt. eigenvalues --    0.05255   0.08339   0.12071   0.12581   0.14792
 Alpha virt. eigenvalues --    0.17020   0.18176   0.28984   0.32992   0.33611
 Alpha virt. eigenvalues --    0.36211   0.38773   0.39156   0.40518   0.43404

 Mulliken charges:
               1
     1  C    0.062733
     2  O   -0.424864
     3  H    0.041540
     4  H    0.042885
     5  H    0.082666
     6  H    0.195040
 Sum of Mulliken charges =   0.00000

 Dipole moment (field-independent basis, Debye):
    X=             -0.7497    Y=             -1.3162    Z=              0.0257  Tot=              1.5150
 Quadrupole moment (field-independent basis, Debye-Ang):
   XX=            -12.8260   YY=            -12.4543   ZZ=            -13.8150
   XY=             -2.2829   XZ=              0.0692   YZ=             -0.0288

 Normal termination of Gaussian 09 at Wed Aug 26 11:01:17 2020.
