 Gaussian 09, Revision D.01,
 Gaussian 09:  ES64L-G09RevD.01 24-Apr-2013

 --------------------
 #p B2PLYPD3/Def2QZVP
 --------------------

 --------
 methanol
 --------
 Symbolic Z-matrix:
 Charge =  0 Multiplicity = 1

                         Standard orientation:
 ---------------------------------------------------------------------
 Center     Atomic      Atomic             Coordinates (Angstroms)
 Number     Number       Type             X           Y           Z
 ---------------------------------------------------------------------
      1          6           0        0.655536    0.014609    0.025277
      2          8           0       -0.745722   -0.138848   -0.018754
      3          1           0        1.025631    0.392911    0.882677
      4          1           0        1.137516    0.647770   -0.815995
      5          1           0        1.046473   -0.920284   -0.120891
      6          1           0       -1.177061    0.902733    0.052576
 ---------------------------------------------------------------------

 SCF Done:  E(RB2PLYPD3) =  -115.519247261     A.U. after   11 cycles
 E2(B2PLYPD3) =    -0.1503713153D+00 E(B2PLYPD3) =    -0.11566961857650D+03

 The electronic state is 1-A.
 Alpha  occ. eigenvalues --  -19.74227 -10.64344  -1.14055  -0.78650  -0.57254
 Alpha  occ. eigenvalues --   -0.51370  -0.49755  -0.40842  -0.35095
 Alpha virt. eigenvalues --    0.03351   0.07622   0.12540   0.12692   0.15131
 Alpha virt. eigenvalues --    0.17257   0.18534   0.28049   0.29742   0.33461
 Alpha virt. eigenvalues --    0.34577   0.37458   0.39892   0.41358   0.44476

 Mulliken charges:
               1
     1  C    0.073748
     2  O   -0.477577
     3  H    0.052405
     4  H    0.028489
     5  H    0.068078
     6  H    0.254857
 Sum of Mulliken charges =   0.00000

 Dipole moment (field-independent basis, Debye):
    X=              0.8250    Y=              1.5603    Z=              0.2403  Tot=              1.7812
 Quadrupole moment (field-independent basis, Debye-Ang):
   XX=            -12.9346   YY=            -12.0119   ZZ=            -13.9826
   XY=             -2.4194   XZ=             -0.0769   YZ=              0.2284

 Normal termination of Gaussian 09 at Wed Aug 26 11:31:23 2020.
