 Gaussian 09, Revision D.01,
 Gaussian 09:  ES64L-G09RevD.01 24-Apr-2013

 --------------------
 #p B2PLYPD3/Def2QZVP
 --------------------

 --------
 methanol
 --------
 Symbolic Z-matrix:
 Charge =  0 Multiplicity = 1

                         Standard orientation:
 ---------------------------------------------------------------------
 Center     Atomic      Atomic             Coordinates (Angstroms)
 Number     Number       Type             X           Y           Z
 ---------------------------------------------------------------------
      1          6           0       -0.671728   -0.020430    0.006079
      2          8           0        0.748836    0.112428   -0.001848
      3          1           0       -1.059979   -0.486249    0.901128
      4          1           0       -0.996190   -0.598722   -0.887525
      5          1           0       -1.044816    1.015424   -0.067201
      6          1           0        1.140666   -0.707294    0.031903
 ---------------------------------------------------------------------

 SCF Done:  E(RB2PLYPD3) =  -115.550181894     A.U. after   10 cycles
 E2(B2PLYPD3) =    -0.1465167251D+00 E(B2PLYPD3) =    -0.11569669861875D+03

 The electronic state is 1-A.
 Alpha  occ. eigenvalues --  -19.71930 -10.66026  -1.16946  -0.79023  -0.59324
 Alpha  occ. eigenvalues --   -0.51770  -0.49589  -0.41142  -0.35497
 Alpha virt. eigenvalues --    0.05191   0.08450   0.12266   0.12318   0.14857
 Alpha virt. eigenvalues --    0.17020   0.18036   0.29117   0.32965   0.33558
 Alpha virt. eigenvalues --    0.36832   0.38508   0.39655   0.40928   0.43340

 Mulliken charges:
               1
     1  C    0.067674
     2  O   -0.442379
     3  H    0.053696
     4  H    0.047249
     5  H    0.072494
     6  H    0.201266
 Sum of Mulliken charges =   0.00000

 Dipole moment (field-independent basis, Debye):
    X=             -0.8862    Y=             -1.4581    Z=              0.0829  Tot=              1.7083
 Quadrupole moment (field-independent basis, Debye-Ang):
   XX=            -13.0399   YY=            -12.2612   ZZ=            -13.7269
   XY=             -2.1618   XZ=             -0.0016   YZ=             -0.0789

 Normal termination of Gaussian 09 at Wed Aug 26 10:34:11 2020.
