 Gaussian 09, Revision D.01,
 Gaussian 09:  ES64L-G09RevD.01 24-Apr-2013

 --------------------
 #p B2PLYPD3/Def2QZVP
 --------------------

 --------
 methanol
 --------
 Symbolic Z-matrix:
 Charge =  0 Multiplicity = 1

                         Standard orientation:
 ---------------------------------------------------------------------
 Center     Atomic      Atomic             Coordinates (Angstroms)
 Number     Number       Type             X           Y           Z
 ---------------------------------------------------------------------
      1          6           0       -0.666332   -0.025105    0.029007
      2          8           0        0.751147    0.090994   -0.022100
      3          1           0       -1.004152   -0.424178    0.927420
      4          1           0       -1.077782   -0.685393   -0.878863
      5          1           0       -1.067788    1.095849   -0.129160
      6          1           0        1.138541   -0.563594    0.083356
 ---------------------------------------------------------------------

 SCF Done:  E(RB2PLYPD3) =  -115.484713543     A.U. after   10 cycles
 E2(B2PLYPD3) =    -0.1448136783D+00 E(B2PLYPD3) =    -0.11562952722112D+03

 The electronic state is 1-A.
 Alpha  occ. eigenvalues --  -19.70569 -10.67815  -1.21258  -0.80463  -0.61643
 Alpha  occ. eigenvalues --   -0.51603  -0.49204  -0.40659  -0.35893
 Alpha virt. eigenvalues --    0.05327   0.08889   0.11631   0.12102   0.14829
 Alpha virt. eigenvalues --    0.16883   0.17942   0.28916   0.32664   0.33064
 Alpha virt. eigenvalues --    0.35852   0.37428   0.40003   0.41500   0.42579

 Mulliken charges:
               1
     1  C    0.056518
     2  O   -0.318662
     3  H    0.066458
     4  H    0.041929
     5  H    0.069464
     6  H    0.084293
 Sum of Mulliken charges =   0.00000

 Dipole moment (field-independent basis, Debye):
    X=             -0.8277    Y=             -1.3098    Z=              0.3539  Tot=              1.5893
 Quadrupole moment (field-independent basis, Debye-Ang):
   XX=            -12.9637   YY=            -12.5601   ZZ=            -13.6249
   XY=             -1.9300   XZ=              0.1855   YZ=             -0.2554

 Normal termination of Gaussian 09 at Wed Aug 26 12:07:17 2020.
