 Gaussian 09, Revision D.01,
 Gaussian 09:  ES64L-G09RevD.01 24-Apr-2013

 --------------------
 #p B2PLYPD3/Def2QZVP
 --------------------

 --------
 methanol
 --------
 Symbolic Z-matrix:
 Charge =  0 Multiplicity = 1

                         Standard orientation:
 ---------------------------------------------------------------------
 Center     Atomic      Atomic             Coordinates (Angstroms)
 Number     Number       Type             X           Y           Z
 ---------------------------------------------------------------------
      1          6           0        0.661599   -0.028488    0.011130
      2          8           0       -0.747453    0.137456   -0.014003
      3          1           0        1.027744   -0.628446   -0.830741
      4          1           0        1.007705   -0.445391    0.870353
      5          1           0        1.130080    0.961420   -0.063299
      6          1           0       -1.155500   -0.816304    0.068934
 ---------------------------------------------------------------------

 SCF Done:  E(RB2PLYPD3) =  -115.541945817     A.U. after   10 cycles
 E2(B2PLYPD3) =    -0.1485545058D+00 E(B2PLYPD3) =    -0.11569050032241D+03

 The electronic state is 1-A.
 Alpha  occ. eigenvalues --  -19.73295 -10.64758  -1.14792  -0.78693  -0.57830
 Alpha  occ. eigenvalues --   -0.52182  -0.49507  -0.40852  -0.35379
 Alpha virt. eigenvalues --    0.04375   0.07932   0.12464   0.12594   0.14897
 Alpha virt. eigenvalues --    0.17552   0.18208   0.29126   0.31828   0.33417
 Alpha virt. eigenvalues --    0.34061   0.38677   0.39670   0.41753   0.44532

 Mulliken charges:
               1
     1  C    0.077496
     2  O   -0.477415
     3  H    0.042797
     4  H    0.050804
     5  H    0.062988
     6  H    0.243330
 Sum of Mulliken charges =   0.00000

 Dipole moment (field-independent basis, Debye):
    X=              0.8877    Y=             -1.6027    Z=              0.2103  Tot=              1.8441
 Quadrupole moment (field-independent basis, Debye-Ang):
   XX=            -12.9464   YY=            -12.1410   ZZ=            -13.8416
   XY=              2.3286   XZ=             -0.1151   YZ=             -0.1362

 Normal termination of Gaussian 09 at Wed Aug 26 11:27:49 2020.
