 Gaussian 09, Revision D.01,
 Gaussian 09:  ES64L-G09RevD.01 24-Apr-2013

 --------------------
 #p B2PLYPD3/Def2QZVP
 --------------------

 --------
 methanol
 --------
 Symbolic Z-matrix:
 Charge =  0 Multiplicity = 1

                         Standard orientation:
 ---------------------------------------------------------------------
 Center     Atomic      Atomic             Coordinates (Angstroms)
 Number     Number       Type             X           Y           Z
 ---------------------------------------------------------------------
      1          6           0        0.662512   -0.012899   -0.004002
      2          8           0       -0.754256    0.092771   -0.005740
      3          1           0        1.057297   -0.656016   -0.869543
      4          1           0        1.064260   -0.433849    0.995543
      5          1           0        1.048246    1.036829   -0.102434
      6          1           0       -1.110825   -0.611744    0.046363
 ---------------------------------------------------------------------

 SCF Done:  E(RB2PLYPD3) =  -115.509651917     A.U. after   10 cycles
 E2(B2PLYPD3) =    -0.1450875670D+00 E(B2PLYPD3) =    -0.11565473948410D+03

 The electronic state is 1-A.
 Alpha  occ. eigenvalues --  -19.71034 -10.67670  -1.20724  -0.79839  -0.60691
 Alpha  occ. eigenvalues --   -0.51087  -0.50160  -0.41134  -0.35761
 Alpha virt. eigenvalues --    0.05383   0.08767   0.11961   0.12169   0.14710
 Alpha virt. eigenvalues --    0.16972   0.18037   0.28850   0.33025   0.33123
 Alpha virt. eigenvalues --    0.36861   0.39098   0.39210   0.39909   0.42447

 Mulliken charges:
               1
     1  C    0.055777
     2  O   -0.341728
     3  H    0.048877
     4  H    0.047466
     5  H    0.077447
     6  H    0.112161
 Sum of Mulliken charges =   0.00000

 Dipole moment (field-independent basis, Debye):
    X=              0.8699    Y=             -1.2947    Z=              0.0831  Tot=              1.5620
 Quadrupole moment (field-independent basis, Debye-Ang):
   XX=            -13.0774   YY=            -12.4664   ZZ=            -13.7044
   XY=              2.0362   XZ=             -0.1618   YZ=             -0.0423

 Normal termination of Gaussian 09 at Wed Aug 26 09:45:25 2020.
