 Gaussian 09, Revision D.01,
 Gaussian 09:  ES64L-G09RevD.01 24-Apr-2013

 --------------------
 #p B2PLYPD3/Def2QZVP
 --------------------

 --------
 methanol
 --------
 Symbolic Z-matrix:
 Charge =  0 Multiplicity = 1

                         Standard orientation:
 ---------------------------------------------------------------------
 Center     Atomic      Atomic             Coordinates (Angstroms)
 Number     Number       Type             X           Y           Z
 ---------------------------------------------------------------------
      1          6           0        0.647406   -0.024489    0.013067
      2          8           0       -0.747201    0.085628   -0.014112
      3          1           0        1.020506   -0.766546   -0.829054
      4          1           0        1.034546   -0.362824    0.992764
      5          1           0        1.123272    1.089569   -0.206637
      6          1           0       -1.085149   -0.498290    0.077418
 ---------------------------------------------------------------------

 SCF Done:  E(RB2PLYPD3) =  -115.388734928     A.U. after   11 cycles
 E2(B2PLYPD3) =    -0.1437584967D+00 E(B2PLYPD3) =    -0.11553249342507D+03

 The electronic state is 1-A.
 Alpha  occ. eigenvalues --  -19.69880 -10.68712  -1.25734  -0.81544  -0.62503
 Alpha  occ. eigenvalues --   -0.51936  -0.49942  -0.40306  -0.36220
 Alpha virt. eigenvalues --    0.05245   0.09257   0.11529   0.12013   0.14637
 Alpha virt. eigenvalues --    0.17062   0.17777   0.28561   0.32765   0.33539
 Alpha virt. eigenvalues --    0.34996   0.37686   0.40244   0.40505   0.42462

 Mulliken charges:
               1
     1  C    0.049183
     2  O   -0.222589
     3  H    0.042927
     4  H    0.058996
     5  H    0.067021
     6  H    0.004462
 Sum of Mulliken charges =   0.00000

 Dipole moment (field-independent basis, Debye):
    X=              0.8189    Y=             -1.2360    Z=              0.2712  Tot=              1.5073
 Quadrupole moment (field-independent basis, Debye-Ang):
   XX=            -13.0757   YY=            -12.6454   ZZ=            -13.5931
   XY=              1.8551   XZ=             -0.1830   YZ=             -0.1517

 Normal termination of Gaussian 09 at Wed Aug 26 15:42:18 2020.
