 Gaussian 09, Revision D.01,
 Gaussian 09:  ES64L-G09RevD.01 24-Apr-2013

 --------------------
 #p B2PLYPD3/Def2QZVP
 --------------------

 --------
 methanol
 --------
 Symbolic Z-matrix:
 Charge =  0 Multiplicity = 1

                         Standard orientation:
 ---------------------------------------------------------------------
 Center     Atomic      Atomic             Coordinates (Angstroms)
 Number     Number       Type             X           Y           Z
 ---------------------------------------------------------------------
      1          6           0        0.673564   -0.028576    0.002760
      2          8           0       -0.742071    0.137636   -0.024066
      3          1           0        1.052652   -0.654311   -0.794730
      4          1           0        1.072030   -0.401388    0.835430
      5          1           0        0.993232    0.995403   -0.021505
      6          1           0       -1.222734   -0.869337    0.156776
 ---------------------------------------------------------------------

 SCF Done:  E(RB2PLYPD3) =  -115.520178195     A.U. after   11 cycles
 E2(B2PLYPD3) =    -0.1504007110D+00 E(B2PLYPD3) =    -0.11567057890603D+03

 The electronic state is 1-A.
 Alpha  occ. eigenvalues --  -19.73804 -10.64046  -1.13242  -0.78849  -0.57371
 Alpha  occ. eigenvalues --   -0.52056  -0.48316  -0.40759  -0.35225
 Alpha virt. eigenvalues --    0.03487   0.07725   0.12214   0.12808   0.15330
 Alpha virt. eigenvalues --    0.16770   0.18388   0.28476   0.29876   0.33412
 Alpha virt. eigenvalues --    0.34368   0.38140   0.39026   0.41601   0.45458

 Mulliken charges:
               1
     1  C    0.074400
     2  O   -0.487162
     3  H    0.047863
     4  H    0.049406
     5  H    0.067640
     6  H    0.247854
 Sum of Mulliken charges =   0.00000

 Dipole moment (field-independent basis, Debye):
    X=              0.8539    Y=             -1.6168    Z=              0.3895  Tot=              1.8695
 Quadrupole moment (field-independent basis, Debye-Ang):
   XX=            -12.8205   YY=            -11.9246   ZZ=            -13.9495
   XY=              2.2291   XZ=             -0.2344   YZ=             -0.1769

 Normal termination of Gaussian 09 at Wed Aug 26 20:58:01 2020.
