 Gaussian 09, Revision D.01,
 Gaussian 09:  ES64L-G09RevD.01 24-Apr-2013

 --------------------
 #p B2PLYPD3/Def2QZVP
 --------------------

 --------
 methanol
 --------
 Symbolic Z-matrix:
 Charge =  0 Multiplicity = 1

                         Standard orientation:
 ---------------------------------------------------------------------
 Center     Atomic      Atomic             Coordinates (Angstroms)
 Number     Number       Type             X           Y           Z
 ---------------------------------------------------------------------
      1          6           0       -0.665588    0.009714    0.001366
      2          8           0        0.745001   -0.127112   -0.010927
      3          1           0       -1.048877    0.628618   -0.853931
      4          1           0       -1.040671    0.478661    0.910149
      5          1           0       -1.075134   -0.937821   -0.041577
      6          1           0        1.198206    0.789154    0.064577
 ---------------------------------------------------------------------

 SCF Done:  E(RB2PLYPD3) =  -115.545481192     A.U. after   10 cycles
 E2(B2PLYPD3) =    -0.1482715536D+00 E(B2PLYPD3) =    -0.11569375274536D+03

 The electronic state is 1-A.
 Alpha  occ. eigenvalues --  -19.73063 -10.65236  -1.14881  -0.78620  -0.57898
 Alpha  occ. eigenvalues --   -0.51042  -0.50521  -0.40891  -0.34970
 Alpha virt. eigenvalues --    0.04507   0.07929   0.12438   0.12673   0.14939
 Alpha virt. eigenvalues --    0.17273   0.18167   0.29185   0.32632   0.33249
 Alpha virt. eigenvalues --    0.33950   0.38764   0.40278   0.40547   0.43653

 Mulliken charges:
               1
     1  C    0.072962
     2  O   -0.477501
     3  H    0.040846
     4  H    0.043943
     5  H    0.076065
     6  H    0.243686
 Sum of Mulliken charges =   0.00000

 Dipole moment (field-independent basis, Debye):
    X=             -0.7913    Y=              1.4926    Z=              0.1632  Tot=              1.6973
 Quadrupole moment (field-independent basis, Debye-Ang):
   XX=            -12.7765   YY=            -12.1895   ZZ=            -13.9232
   XY=              2.4297   XZ=              0.1428   YZ=              0.0965

 Normal termination of Gaussian 09 at Thu Aug 27 00:10:46 2020.
