 Gaussian 09, Revision D.01,
 Gaussian 09:  ES64L-G09RevD.01 24-Apr-2013

 --------------------
 #p B2PLYPD3/Def2QZVP
 --------------------

 --------
 methanol
 --------
 Symbolic Z-matrix:
 Charge =  0 Multiplicity = 1

                         Standard orientation:
 ---------------------------------------------------------------------
 Center     Atomic      Atomic             Coordinates (Angstroms)
 Number     Number       Type             X           Y           Z
 ---------------------------------------------------------------------
      1          6           0        0.652448   -0.011903   -0.001179
      2          8           0       -0.755092    0.114254   -0.011709
      3          1           0        0.980609   -0.768070   -0.781270
      4          1           0        1.096217   -0.301756    0.975609
      5          1           0        1.107028    0.952076   -0.216406
      6          1           0       -1.057809   -0.724865    0.122809
 ---------------------------------------------------------------------

 SCF Done:  E(RB2PLYPD3) =  -115.547397715     A.U. after   10 cycles
 E2(B2PLYPD3) =    -0.1466013174D+00 E(B2PLYPD3) =    -0.11569399903202D+03

 The electronic state is 1-A.
 Alpha  occ. eigenvalues --  -19.72468 -10.66343  -1.18181  -0.78685  -0.59547
 Alpha  occ. eigenvalues --   -0.51683  -0.50193  -0.41539  -0.35506
 Alpha virt. eigenvalues --    0.05114   0.08407   0.12116   0.12498   0.14744
 Alpha virt. eigenvalues --    0.17518   0.18173   0.28932   0.32847   0.33467
 Alpha virt. eigenvalues --    0.36147   0.38681   0.39608   0.40620   0.43896

 Mulliken charges:
               1
     1  C    0.064038
     2  O   -0.420252
     3  H    0.039286
     4  H    0.046101
     5  H    0.070653
     6  H    0.200175
 Sum of Mulliken charges =   0.00000

 Dipole moment (field-independent basis, Debye):
    X=              0.9468    Y=             -1.4103    Z=              0.2399  Tot=              1.7155
 Quadrupole moment (field-independent basis, Debye-Ang):
   XX=            -13.2880   YY=            -12.2797   ZZ=            -13.7986
   XY=              2.1712   XZ=             -0.2293   YZ=             -0.1688

 Normal termination of Gaussian 09 at Wed Aug 26 11:03:23 2020.
