 Gaussian 09, Revision D.01,
 Gaussian 09:  ES64L-G09RevD.01 24-Apr-2013

 --------------------
 #p B2PLYPD3/Def2QZVP
 --------------------

 --------
 methanol
 --------
 Symbolic Z-matrix:
 Charge =  0 Multiplicity = 1

                         Standard orientation:
 ---------------------------------------------------------------------
 Center     Atomic      Atomic             Coordinates (Angstroms)
 Number     Number       Type             X           Y           Z
 ---------------------------------------------------------------------
      1          6           0        0.674886   -0.000469   -0.029364
      2          8           0       -0.734427   -0.172100    0.036893
      3          1           0        1.014506    0.671753    0.841569
      4          1           0        0.883178    0.444749   -0.790126
      5          1           0        1.095057   -0.785509   -0.008438
      6          1           0       -1.166646    1.048625   -0.161960
 ---------------------------------------------------------------------

 SCF Done:  E(RB2PLYPD3) =  -115.420557845     A.U. after   11 cycles
 E2(B2PLYPD3) =    -0.1534685770D+00 E(B2PLYPD3) =    -0.11557402642194D+03

 The electronic state is 1-A.
 Alpha  occ. eigenvalues --  -19.74560 -10.61560  -1.12170  -0.80967  -0.57564
 Alpha  occ. eigenvalues --   -0.51567  -0.49909  -0.40583  -0.34471
 Alpha virt. eigenvalues --    0.00317   0.07669   0.12462   0.12902   0.14675
 Alpha virt. eigenvalues --    0.17572   0.18261   0.23983   0.29649   0.32527
 Alpha virt. eigenvalues --    0.33825   0.38099   0.40561   0.42306   0.46015

 Mulliken charges:
               1
     1  C    0.063624
     2  O   -0.491380
     3  H    0.035184
     4  H    0.056991
     5  H    0.087672
     6  H    0.247910
 Sum of Mulliken charges =   0.00000

 Dipole moment (field-independent basis, Debye):
    X=              1.0349    Y=              1.6318    Z=             -0.4967  Tot=              1.9951
 Quadrupole moment (field-independent basis, Debye-Ang):
   XX=            -13.1916   YY=            -11.4651   ZZ=            -13.8354
   XY=             -2.6228   XZ=              0.1661   YZ=             -0.3574

 Normal termination of Gaussian 09 at Wed Aug 26 22:13:36 2020.
