 Gaussian 09, Revision D.01,
 Gaussian 09:  ES64L-G09RevD.01 24-Apr-2013

 --------------------
 #p B2PLYPD3/Def2QZVP
 --------------------

 --------
 methanol
 --------
 Symbolic Z-matrix:
 Charge =  0 Multiplicity = 1

                         Standard orientation:
 ---------------------------------------------------------------------
 Center     Atomic      Atomic             Coordinates (Angstroms)
 Number     Number       Type             X           Y           Z
 ---------------------------------------------------------------------
      1          6           0        0.667976   -0.013694   -0.009175
      2          8           0       -0.756743    0.125650    0.003937
      3          1           0        1.027801   -0.544771   -0.871007
      4          1           0        1.100199   -0.523122    0.886849
      5          1           0        1.058566    0.962337   -0.005043
      6          1           0       -1.140483   -0.817479    0.012755
 ---------------------------------------------------------------------

 SCF Done:  E(RB2PLYPD3) =  -115.546792982     A.U. after   10 cycles
 E2(B2PLYPD3) =    -0.1485474013D+00 E(B2PLYPD3) =    -0.11569534038304D+03

 The electronic state is 1-A.
 Alpha  occ. eigenvalues --  -19.73260 -10.65301  -1.14822  -0.78604  -0.57882
 Alpha  occ. eigenvalues --   -0.51247  -0.49643  -0.41458  -0.35325
 Alpha virt. eigenvalues --    0.04569   0.07932   0.12433   0.12504   0.14944
 Alpha virt. eigenvalues --    0.17254   0.18272   0.29031   0.32554   0.33512
 Alpha virt. eigenvalues --    0.33785   0.38456   0.40009   0.40709   0.43889

 Mulliken charges:
               1
     1  C    0.070365
     2  O   -0.473156
     3  H    0.049165
     4  H    0.042460
     5  H    0.072203
     6  H    0.238963
 Sum of Mulliken charges =   0.00000

 Dipole moment (field-independent basis, Debye):
    X=              0.9312    Y=             -1.5305    Z=             -0.0261  Tot=              1.7917
 Quadrupole moment (field-independent basis, Debye-Ang):
   XX=            -13.0364   YY=            -12.0873   ZZ=            -13.9030
   XY=              2.2870   XZ=             -0.0101   YZ=              0.0395

 Normal termination of Gaussian 09 at Thu Aug 27 00:14:01 2020.
