 Gaussian 09, Revision D.01,
 Gaussian 09:  ES64L-G09RevD.01 24-Apr-2013

 --------------------
 #p B2PLYPD3/Def2QZVP
 --------------------

 --------
 methanol
 --------
 Symbolic Z-matrix:
 Charge =  0 Multiplicity = 1

                         Standard orientation:
 ---------------------------------------------------------------------
 Center     Atomic      Atomic             Coordinates (Angstroms)
 Number     Number       Type             X           Y           Z
 ---------------------------------------------------------------------
      1          6           0        0.653356    0.027690    0.002064
      2          8           0       -0.742536   -0.140044   -0.007867
      3          1           0        1.028380    0.472368    0.868475
      4          1           0        1.015009    0.592980   -0.836993
      5          1           0        1.118579   -0.953378   -0.033893
      6          1           0       -1.141810    0.842237    0.052967
 ---------------------------------------------------------------------

 SCF Done:  E(RB2PLYPD3) =  -115.540732328     A.U. after   11 cycles
 E2(B2PLYPD3) =    -0.1488100097D+00 E(B2PLYPD3) =    -0.11568954233783D+03

 The electronic state is 1-A.
 Alpha  occ. eigenvalues --  -19.73537 -10.64550  -1.14996  -0.78463  -0.57743
 Alpha  occ. eigenvalues --   -0.52266  -0.49727  -0.40769  -0.35298
 Alpha virt. eigenvalues --    0.04136   0.07921   0.12528   0.12629   0.14950
 Alpha virt. eigenvalues --    0.17581   0.18272   0.29045   0.31089   0.33450
 Alpha virt. eigenvalues --    0.34620   0.38845   0.39925   0.41848   0.44176

 Mulliken charges:
               1
     1  C    0.075601
     2  O   -0.473720
     3  H    0.045840
     4  H    0.043581
     5  H    0.061677
     6  H    0.247021
 Sum of Mulliken charges =   0.00000

 Dipole moment (field-independent basis, Debye):
    X=              0.8632    Y=              1.6184    Z=              0.1323  Tot=              1.8389
 Quadrupole moment (field-independent basis, Debye-Ang):
   XX=            -13.0193   YY=            -12.0853   ZZ=            -13.8725
   XY=             -2.3247   XZ=             -0.0791   YZ=              0.0703

 Normal termination of Gaussian 09 at Wed Aug 26 10:24:38 2020.
