 Gaussian 09, Revision D.01,
 Gaussian 09:  ES64L-G09RevD.01 24-Apr-2013

 --------------------
 #p B2PLYPD3/Def2QZVP
 --------------------

 --------
 methanol
 --------
 Symbolic Z-matrix:
 Charge =  0 Multiplicity = 1

                         Standard orientation:
 ---------------------------------------------------------------------
 Center     Atomic      Atomic             Coordinates (Angstroms)
 Number     Number       Type             X           Y           Z
 ---------------------------------------------------------------------
      1          6           0        0.677684    0.048840    0.028724
      2          8           0       -0.731920   -0.177304   -0.010214
      3          1           0        0.947129    0.411341    0.768863
      4          1           0        0.975553    0.614481   -0.767629
      5          1           0        1.078614   -0.919011   -0.116690
      6          1           0       -1.212040    1.018578    0.024823
 ---------------------------------------------------------------------

 SCF Done:  E(RB2PLYPD3) =  -115.442596304     A.U. after   11 cycles
 E2(B2PLYPD3) =    -0.1530800290D+00 E(B2PLYPD3) =    -0.11559567633274D+03

 The electronic state is 1-A.
 Alpha  occ. eigenvalues --  -19.74435 -10.61605  -1.11953  -0.80563  -0.56696
 Alpha  occ. eigenvalues --   -0.53941  -0.48097  -0.39969  -0.35388
 Alpha virt. eigenvalues --    0.01010   0.07694   0.12369   0.12937   0.14956
 Alpha virt. eigenvalues --    0.17327   0.18157   0.24311   0.29509   0.33527
 Alpha virt. eigenvalues --    0.34023   0.38420   0.39380   0.43435   0.46006

 Mulliken charges:
               1
     1  C    0.065107
     2  O   -0.495083
     3  H    0.085342
     4  H    0.044333
     5  H    0.060840
     6  H    0.239461
 Sum of Mulliken charges =   0.00000

 Dipole moment (field-independent basis, Debye):
    X=              1.0504    Y=              1.7610    Z=              0.1156  Tot=              2.0538
 Quadrupole moment (field-independent basis, Debye-Ang):
   XX=            -13.0198   YY=            -11.5694   ZZ=            -13.7899
   XY=             -2.3666   XZ=             -0.0015   YZ=              0.1353

 Normal termination of Gaussian 09 at Wed Aug 26 21:19:23 2020.
