 Gaussian 09, Revision D.01,
 Gaussian 09:  ES64L-G09RevD.01 24-Apr-2013

 --------------------
 #p B2PLYPD3/Def2QZVP
 --------------------

 --------
 methanol
 --------
 Symbolic Z-matrix:
 Charge =  0 Multiplicity = 1

                         Standard orientation:
 ---------------------------------------------------------------------
 Center     Atomic      Atomic             Coordinates (Angstroms)
 Number     Number       Type             X           Y           Z
 ---------------------------------------------------------------------
      1          6           0       -0.630543   -0.008296   -0.024866
      2          8           0        0.751612    0.000244    0.075677
      3          1           0       -0.933800   -0.770670   -0.829456
      4          1           0       -1.134842    1.215361   -0.128708
      5          1           0       -1.131810   -0.481316    0.930748
      6          1           0        0.970811    0.084447   -0.428808
 ---------------------------------------------------------------------

 SCF Done:  E(RB2PLYPD3) =  -115.047395201     A.U. after   11 cycles
 E2(B2PLYPD3) =    -0.1435375444D+00 E(B2PLYPD3) =    -0.11519093274558D+03

 The electronic state is 1-A.
 Alpha  occ. eigenvalues --  -19.69624 -10.70100  -1.33379  -0.83059  -0.63057
 Alpha  occ. eigenvalues --   -0.51745  -0.51628  -0.40765  -0.36337
 Alpha virt. eigenvalues --    0.04921   0.09363   0.10831   0.11854   0.13893
 Alpha virt. eigenvalues --    0.17270   0.18196   0.27157   0.30906   0.33794
 Alpha virt. eigenvalues --    0.34120   0.35949   0.39370   0.40892   0.44657

 Mulliken charges:
               1
     1  C    0.039277
     2  O   -0.086863
     3  H    0.054686
     4  H    0.034618
     5  H    0.072192
     6  H   -0.113909
 Sum of Mulliken charges =   0.00000

 Dipole moment (field-independent basis, Debye):
    X=             -0.9163    Y=             -0.0755    Z=             -1.0550  Tot=              1.3994
 Quadrupole moment (field-independent basis, Debye-Ang):
   XX=            -13.4856   YY=            -13.2382   ZZ=            -12.9349
   XY=              0.5102   XZ=             -1.7906   YZ=             -0.0485

 Normal termination of Gaussian 09 at Wed Aug 26 18:51:49 2020.
