 Gaussian 09, Revision D.01,
 Gaussian 09:  ES64L-G09RevD.01 24-Apr-2013

 --------------------
 #p B2PLYPD3/Def2QZVP
 --------------------

 --------
 methanol
 --------
 Symbolic Z-matrix:
 Charge =  0 Multiplicity = 1

                         Standard orientation:
 ---------------------------------------------------------------------
 Center     Atomic      Atomic             Coordinates (Angstroms)
 Number     Number       Type             X           Y           Z
 ---------------------------------------------------------------------
      1          6           0        0.684640   -0.033090    0.025870
      2          8           0       -0.744505   -0.054024   -0.057131
      3          1           0        0.978789   -0.202984    1.025923
      4          1           0        1.016763    1.146384   -0.413520
      5          1           0        0.930342   -0.741881   -0.679746
      6          1           0       -1.077698    0.429209    0.369174
 ---------------------------------------------------------------------

 SCF Done:  E(RB2PLYPD3) =  -115.436269309     A.U. after   11 cycles
 E2(B2PLYPD3) =    -0.1442518272D+00 E(B2PLYPD3) =    -0.11558052113655D+03

 The electronic state is 1-A.
 Alpha  occ. eigenvalues --  -19.69546 -10.67392  -1.22571  -0.81961  -0.61047
 Alpha  occ. eigenvalues --   -0.52511  -0.50219  -0.41656  -0.35139
 Alpha virt. eigenvalues --    0.05237   0.09204   0.11127   0.12370   0.14344
 Alpha virt. eigenvalues --    0.16564   0.17705   0.28781   0.30825   0.32480
 Alpha virt. eigenvalues --    0.35069   0.40586   0.40810   0.41229   0.43917

 Mulliken charges:
               1
     1  C    0.058000
     2  O   -0.278834
     3  H    0.066987
     4  H    0.020671
     5  H    0.095185
     6  H    0.037992
 Sum of Mulliken charges =   0.00000

 Dipole moment (field-independent basis, Debye):
    X=              0.9195    Y=              0.6830    Z=              0.9408  Tot=              1.4822
 Quadrupole moment (field-independent basis, Debye-Ang):
   XX=            -13.4555   YY=            -12.9901   ZZ=            -12.7999
   XY=             -1.7237   XZ=             -1.1094   YZ=              0.5780

 Normal termination of Gaussian 09 at Wed Aug 26 19:09:18 2020.
