 Gaussian 09, Revision D.01,
 Gaussian 09:  ES64L-G09RevD.01 24-Apr-2013

 --------------------
 #p B2PLYPD3/Def2QZVP
 --------------------

 --------
 methanol
 --------
 Symbolic Z-matrix:
 Charge =  0 Multiplicity = 1

                         Standard orientation:
 ---------------------------------------------------------------------
 Center     Atomic      Atomic             Coordinates (Angstroms)
 Number     Number       Type             X           Y           Z
 ---------------------------------------------------------------------
      1          6           0        0.673192    0.013721    0.019307
      2          8           0       -0.754064   -0.167310   -0.006844
      3          1           0        1.107708    0.414372    0.862788
      4          1           0        1.004043    0.639468   -0.835044
      5          1           0        1.161722   -0.780884   -0.143451
      6          1           0       -1.280115    0.983197    0.054618
 ---------------------------------------------------------------------

 SCF Done:  E(RB2PLYPD3) =  -115.475254617     A.U. after   11 cycles
 E2(B2PLYPD3) =    -0.1531236477D+00 E(B2PLYPD3) =    -0.11562837826498D+03

 The electronic state is 1-A.
 Alpha  occ. eigenvalues --  -19.74843 -10.63363  -1.11595  -0.79908  -0.54468
 Alpha  occ. eigenvalues --   -0.51076  -0.50552  -0.39900  -0.35033
 Alpha virt. eigenvalues --    0.01123   0.07314   0.12597   0.13114   0.14549
 Alpha virt. eigenvalues --    0.17935   0.18670   0.24516   0.29451   0.32810
 Alpha virt. eigenvalues --    0.33889   0.38024   0.41075   0.41961   0.42876

 Mulliken charges:
               1
     1  C    0.082725
     2  O   -0.497774
     3  H    0.049505
     4  H    0.033845
     5  H    0.069999
     6  H    0.261701
 Sum of Mulliken charges =   0.00000

 Dipole moment (field-independent basis, Debye):
    X=              0.8941    Y=              1.6222    Z=              0.1208  Tot=              1.8562
 Quadrupole moment (field-independent basis, Debye-Ang):
   XX=            -12.3989   YY=            -12.0359   ZZ=            -13.9945
   XY=             -2.8065   XZ=             -0.0398   YZ=              0.1754

 Normal termination of Gaussian 09 at Wed Aug 26 23:00:48 2020.
