 Gaussian 09, Revision D.01,
 Gaussian 09:  ES64L-G09RevD.01 24-Apr-2013

 --------------------
 #p B2PLYPD3/Def2QZVP
 --------------------

 --------
 methanol
 --------
 Symbolic Z-matrix:
 Charge =  0 Multiplicity = 1

                         Standard orientation:
 ---------------------------------------------------------------------
 Center     Atomic      Atomic             Coordinates (Angstroms)
 Number     Number       Type             X           Y           Z
 ---------------------------------------------------------------------
      1          6           0        0.662429    0.021184   -0.014473
      2          8           0       -0.734769   -0.141830    0.013127
      3          1           0        1.035367    0.593047    0.840617
      4          1           0        0.953490    0.516694   -0.838344
      5          1           0        1.090116   -0.946680    0.017506
      6          1           0       -1.175393    0.844472   -0.037955
 ---------------------------------------------------------------------

 SCF Done:  E(RB2PLYPD3) =  -115.534065317     A.U. after   11 cycles
 E2(B2PLYPD3) =    -0.1488807811D+00 E(B2PLYPD3) =    -0.11568294609839D+03

 The electronic state is 1-A.
 Alpha  occ. eigenvalues --  -19.73276 -10.63998  -1.14456  -0.78714  -0.57818
 Alpha  occ. eigenvalues --   -0.52155  -0.49894  -0.40912  -0.34921
 Alpha virt. eigenvalues --    0.03950   0.07984   0.12536   0.12701   0.15050
 Alpha virt. eigenvalues --    0.17416   0.17967   0.29165   0.30753   0.33218
 Alpha virt. eigenvalues --    0.34493   0.39370   0.39800   0.41630   0.44735

 Mulliken charges:
               1
     1  C    0.083554
     2  O   -0.484443
     3  H    0.037869
     4  H    0.046006
     5  H    0.068874
     6  H    0.248141
 Sum of Mulliken charges =   0.00000

 Dipole moment (field-independent basis, Debye):
    X=              0.8377    Y=              1.6150    Z=             -0.1633  Tot=              1.8267
 Quadrupole moment (field-independent basis, Debye-Ang):
   XX=            -12.9496   YY=            -11.9561   ZZ=            -13.8863
   XY=             -2.3946   XZ=              0.0801   YZ=             -0.1304

 Normal termination of Gaussian 09 at Wed Aug 26 23:57:12 2020.
