 Gaussian 09, Revision D.01,
 Gaussian 09:  ES64L-G09RevD.01 24-Apr-2013

 --------------------
 #p B2PLYPD3/Def2QZVP
 --------------------

 --------
 methanol
 --------
 Symbolic Z-matrix:
 Charge =  0 Multiplicity = 1

                         Standard orientation:
 ---------------------------------------------------------------------
 Center     Atomic      Atomic             Coordinates (Angstroms)
 Number     Number       Type             X           Y           Z
 ---------------------------------------------------------------------
      1          6           0        0.660516    0.018970   -0.002463
      2          8           0       -0.745234   -0.135593    0.005072
      3          1           0        1.092832    0.527532    0.853340
      4          1           0        1.016826    0.552368   -0.850276
      5          1           0        1.069042   -0.956135   -0.027580
      6          1           0       -1.179929    0.847156   -0.001283
 ---------------------------------------------------------------------

 SCF Done:  E(RB2PLYPD3) =  -115.539203256     A.U. after   11 cycles
 E2(B2PLYPD3) =    -0.1491754268D+00 E(B2PLYPD3) =    -0.11568837868238D+03

 The electronic state is 1-A.
 Alpha  occ. eigenvalues --  -19.73610 -10.64653  -1.14419  -0.78483  -0.57654
 Alpha  occ. eigenvalues --   -0.51415  -0.49773  -0.41010  -0.35124
 Alpha virt. eigenvalues --    0.04038   0.07819   0.12516   0.12683   0.15109
 Alpha virt. eigenvalues --    0.17284   0.18270   0.29039   0.30973   0.33447
 Alpha virt. eigenvalues --    0.34350   0.38917   0.39637   0.41213   0.43982

 Mulliken charges:
               1
     1  C    0.073851
     2  O   -0.479017
     3  H    0.043371
     4  H    0.044212
     5  H    0.068701
     6  H    0.248882
 Sum of Mulliken charges =   0.00000

 Dipole moment (field-independent basis, Debye):
    X=              0.8351    Y=              1.5922    Z=             -0.0376  Tot=              1.7983
 Quadrupole moment (field-independent basis, Debye-Ang):
   XX=            -12.8715   YY=            -12.0334   ZZ=            -13.9774
   XY=             -2.3519   XZ=              0.0384   YZ=             -0.0166

 Normal termination of Gaussian 09 at Thu Aug 27 00:11:05 2020.
