 Gaussian 09, Revision D.01,
 Gaussian 09:  ES64L-G09RevD.01 24-Apr-2013

 --------------------
 #p B2PLYPD3/Def2QZVP
 --------------------

 --------
 methanol
 --------
 Symbolic Z-matrix:
 Charge =  0 Multiplicity = 1

                         Standard orientation:
 ---------------------------------------------------------------------
 Center     Atomic      Atomic             Coordinates (Angstroms)
 Number     Number       Type             X           Y           Z
 ---------------------------------------------------------------------
      1          6           0        0.660342    0.063313   -0.012535
      2          8           0       -0.708475   -0.179258   -0.015983
      3          1           0        0.924594    0.275373    0.929616
      4          1           0        0.902100    0.704664   -0.686463
      5          1           0        1.142133   -0.857917   -0.137955
      6          1           0       -1.263084    0.932067    0.097871
 ---------------------------------------------------------------------

 SCF Done:  E(RB2PLYPD3) =  -115.480828327     A.U. after   11 cycles
 E2(B2PLYPD3) =    -0.1514538040D+00 E(B2PLYPD3) =    -0.11563228213074D+03

 The electronic state is 1-A.
 Alpha  occ. eigenvalues --  -19.73790 -10.61933  -1.13327  -0.79032  -0.56737
 Alpha  occ. eigenvalues --   -0.54015  -0.49542  -0.39291  -0.34725
 Alpha virt. eigenvalues --    0.01669   0.07782   0.12476   0.13133   0.14648
 Alpha virt. eigenvalues --    0.17401   0.18491   0.25262   0.29320   0.33161
 Alpha virt. eigenvalues --    0.34996   0.39879   0.40643   0.43120   0.45495

 Mulliken charges:
               1
     1  C    0.096442
     2  O   -0.492245
     3  H    0.048238
     4  H    0.046020
     5  H    0.052864
     6  H    0.248681
 Sum of Mulliken charges =   0.00000

 Dipole moment (field-independent basis, Debye):
    X=              0.8071    Y=              1.7010    Z=              0.1689  Tot=              1.8903
 Quadrupole moment (field-independent basis, Debye-Ang):
   XX=            -12.7193   YY=            -11.9484   ZZ=            -13.7065
   XY=             -2.6116   XZ=             -0.2593   YZ=             -0.0579

 Normal termination of Gaussian 09 at Wed Aug 26 18:48:58 2020.
