 Gaussian 09, Revision D.01,
 Gaussian 09:  ES64L-G09RevD.01 24-Apr-2013

 --------------------
 #p B2PLYPD3/Def2QZVP
 --------------------

 --------
 methanol
 --------
 Symbolic Z-matrix:
 Charge =  0 Multiplicity = 1

                         Standard orientation:
 ---------------------------------------------------------------------
 Center     Atomic      Atomic             Coordinates (Angstroms)
 Number     Number       Type             X           Y           Z
 ---------------------------------------------------------------------
      1          6           0       -0.656460    0.002403    0.021475
      2          8           0        0.747745   -0.170469   -0.031056
      3          1           0       -1.081731    0.697402   -0.811267
      4          1           0       -0.994851    0.381086    0.868994
      5          1           0       -1.210675   -0.743781   -0.073463
      6          1           0        1.244058    1.014623    0.135337
 ---------------------------------------------------------------------

 SCF Done:  E(RB2PLYPD3) =  -115.454900583     A.U. after   12 cycles
 E2(B2PLYPD3) =    -0.1535131778D+00 E(B2PLYPD3) =    -0.11560841376105D+03

 The electronic state is 1-A.
 Alpha  occ. eigenvalues --  -19.75181 -10.63135  -1.12373  -0.80250  -0.54609
 Alpha  occ. eigenvalues --   -0.51507  -0.50659  -0.39668  -0.34811
 Alpha virt. eigenvalues --    0.00345   0.07264   0.12552   0.13176   0.14554
 Alpha virt. eigenvalues --    0.18447   0.18786   0.23765   0.29603   0.32911
 Alpha virt. eigenvalues --    0.33748   0.37553   0.40615   0.41981   0.43715

 Mulliken charges:
               1
     1  C    0.084194
     2  O   -0.485801
     3  H    0.023477
     4  H    0.044296
     5  H    0.068856
     6  H    0.264979
 Sum of Mulliken charges =   0.00000

 Dipole moment (field-independent basis, Debye):
    X=             -0.8445    Y=              1.6019    Z=              0.4088  Tot=              1.8565
 Quadrupole moment (field-independent basis, Debye-Ang):
   XX=            -12.5555   YY=            -11.9776   ZZ=            -14.0410
   XY=              2.8607   XZ=              0.2023   YZ=              0.3050

 Normal termination of Gaussian 09 at Wed Aug 26 23:34:32 2020.
