 Gaussian 09, Revision D.01,
 Gaussian 09:  ES64L-G09RevD.01 24-Apr-2013

 --------------------
 #p B2PLYPD3/Def2QZVP
 --------------------

 --------
 methanol
 --------
 Symbolic Z-matrix:
 Charge =  0 Multiplicity = 1

                         Standard orientation:
 ---------------------------------------------------------------------
 Center     Atomic      Atomic             Coordinates (Angstroms)
 Number     Number       Type             X           Y           Z
 ---------------------------------------------------------------------
      1          6           0        0.665351   -0.011440   -0.007933
      2          8           0       -0.755444    0.099646    0.003641
      3          1           0        1.038881   -0.545897   -0.926214
      4          1           0        1.039553   -0.548271    0.955545
      5          1           0        1.078672    1.002243    0.004833
      6          1           0       -1.105659   -0.636607   -0.015691
 ---------------------------------------------------------------------

 SCF Done:  E(RB2PLYPD3) =  -115.523542088     A.U. after   10 cycles
 E2(B2PLYPD3) =    -0.1453109560D+00 E(B2PLYPD3) =    -0.11566885304451D+03

 The electronic state is 1-A.
 Alpha  occ. eigenvalues --  -19.71222 -10.67205  -1.19806  -0.79686  -0.60233
 Alpha  occ. eigenvalues --   -0.51237  -0.50464  -0.41229  -0.35683
 Alpha virt. eigenvalues --    0.05380   0.08715   0.11945   0.12375   0.14565
 Alpha virt. eigenvalues --    0.17183   0.18022   0.28875   0.32795   0.33148
 Alpha virt. eigenvalues --    0.36815   0.39385   0.39546   0.39928   0.43125

 Mulliken charges:
               1
     1  C    0.061131
     2  O   -0.370868
     3  H    0.050803
     4  H    0.043989
     5  H    0.078446
     6  H    0.136499
 Sum of Mulliken charges =   0.00000

 Dipole moment (field-independent basis, Debye):
    X=              0.9169    Y=             -1.3117    Z=             -0.0763  Tot=              1.6022
 Quadrupole moment (field-independent basis, Debye-Ang):
   XX=            -13.0943   YY=            -12.4560   ZZ=            -13.6607
   XY=              2.1446   XZ=             -0.0024   YZ=              0.0708

 Normal termination of Gaussian 09 at Thu Aug 27 00:04:39 2020.
