 Gaussian 09, Revision D.01,
 Gaussian 09:  ES64L-G09RevD.01 24-Apr-2013

 --------------------
 #p B2PLYPD3/Def2QZVP
 --------------------

 --------
 methanol
 --------
 Symbolic Z-matrix:
 Charge =  0 Multiplicity = 1

                         Standard orientation:
 ---------------------------------------------------------------------
 Center     Atomic      Atomic             Coordinates (Angstroms)
 Number     Number       Type             X           Y           Z
 ---------------------------------------------------------------------
      1          6           0       -0.666644    0.041695    0.010206
      2          8           0        0.740053   -0.217811    0.002139
      3          1           0       -1.062362    0.501827   -0.692514
      4          1           0       -0.880099    0.599941    0.713353
      5          1           0       -1.273343   -0.783145   -0.018978
      6          1           0        1.295242    1.173699   -0.080205
 ---------------------------------------------------------------------

 SCF Done:  E(RB2PLYPD3) =  -115.384223076     A.U. after   12 cycles
 E2(B2PLYPD3) =    -0.1577616069D+00 E(B2PLYPD3) =    -0.11554198468241D+03

 The electronic state is 1-A.
 Alpha  occ. eigenvalues --  -19.75897 -10.60756  -1.11094  -0.82173  -0.54939
 Alpha  occ. eigenvalues --   -0.52769  -0.48797  -0.38850  -0.35277
 Alpha virt. eigenvalues --   -0.03552   0.07206   0.12578   0.13340   0.14461
 Alpha virt. eigenvalues --    0.17879   0.18918   0.21292   0.29872   0.32638
 Alpha virt. eigenvalues --    0.34178   0.38503   0.39641   0.43440   0.44500

 Mulliken charges:
               1
     1  C    0.109586
     2  O   -0.476136
     3  H    0.040839
     4  H    0.049151
     5  H    0.050040
     6  H    0.226519
 Sum of Mulliken charges =   0.00000

 Dipole moment (field-independent basis, Debye):
    X=             -1.1137    Y=              1.8928    Z=             -0.1466  Tot=              2.2010
 Quadrupole moment (field-independent basis, Debye-Ang):
   XX=            -12.5090   YY=            -11.3688   ZZ=            -14.1849
   XY=              2.5989   XZ=              0.0780   YZ=             -0.0061

 Normal termination of Gaussian 09 at Wed Aug 26 19:17:28 2020.
