 Gaussian 09, Revision D.01,
 Gaussian 09:  ES64L-G09RevD.01 24-Apr-2013

 --------------------
 #p B2PLYPD3/Def2QZVP
 --------------------

 --------
 methanol
 --------
 Symbolic Z-matrix:
 Charge =  0 Multiplicity = 1

                         Standard orientation:
 ---------------------------------------------------------------------
 Center     Atomic      Atomic             Coordinates (Angstroms)
 Number     Number       Type             X           Y           Z
 ---------------------------------------------------------------------
      1          6           0       -0.653505    0.028325    0.003549
      2          8           0        0.753704   -0.152420   -0.006328
      3          1           0       -1.007429    0.596503   -0.792301
      4          1           0       -1.057366    0.459493    0.808321
      5          1           0       -1.135484   -0.953714   -0.042225
      6          1           0        1.091674    0.947132    0.055539
 ---------------------------------------------------------------------

 SCF Done:  E(RB2PLYPD3) =  -115.514242489     A.U. after   11 cycles
 E2(B2PLYPD3) =    -0.1508636545D+00 E(B2PLYPD3) =    -0.11566510614365D+03

 The electronic state is 1-A.
 Alpha  occ. eigenvalues --  -19.74443 -10.63779  -1.13730  -0.79064  -0.56688
 Alpha  occ. eigenvalues --   -0.52419  -0.49060  -0.41015  -0.35451
 Alpha virt. eigenvalues --    0.02982   0.07690   0.12373   0.12836   0.14980
 Alpha virt. eigenvalues --    0.17820   0.18299   0.27338   0.29620   0.33524
 Alpha virt. eigenvalues --    0.34397   0.38157   0.39804   0.42320   0.44236

 Mulliken charges:
               1
     1  C    0.090671
     2  O   -0.479515
     3  H    0.039914
     4  H    0.043064
     5  H    0.054347
     6  H    0.251520
 Sum of Mulliken charges =   0.00000

 Dipole moment (field-independent basis, Debye):
    X=             -1.0337    Y=              1.7408    Z=              0.1363  Tot=              2.0292
 Quadrupole moment (field-independent basis, Debye-Ang):
   XX=            -13.2533   YY=            -11.7462   ZZ=            -14.0071
   XY=              2.1944   XZ=              0.0216   YZ=              0.0773

 Normal termination of Gaussian 09 at Wed Aug 26 15:15:45 2020.
