 Gaussian 09, Revision D.01,
 Gaussian 09:  ES64L-G09RevD.01 24-Apr-2013

 --------------------
 #p B2PLYPD3/Def2QZVP
 --------------------

 --------
 methanol
 --------
 Symbolic Z-matrix:
 Charge =  0 Multiplicity = 1

                         Standard orientation:
 ---------------------------------------------------------------------
 Center     Atomic      Atomic             Coordinates (Angstroms)
 Number     Number       Type             X           Y           Z
 ---------------------------------------------------------------------
      1          6           0        0.663764   -0.011826    0.005095
      2          8           0       -0.750781    0.103519   -0.015758
      3          1           0        1.000605   -0.738585   -0.830264
      4          1           0        1.030366   -0.374239    0.987670
      5          1           0        1.108437    0.984758   -0.166763
      6          1           0       -1.115745   -0.629130    0.104850
 ---------------------------------------------------------------------

 SCF Done:  E(RB2PLYPD3) =  -115.529248823     A.U. after   10 cycles
 E2(B2PLYPD3) =    -0.1453067031D+00 E(B2PLYPD3) =    -0.11567455552601D+03

 The electronic state is 1-A.
 Alpha  occ. eigenvalues --  -19.71243 -10.67003  -1.19505  -0.79617  -0.60258
 Alpha  occ. eigenvalues --   -0.51450  -0.50523  -0.41035  -0.35557
 Alpha virt. eigenvalues --    0.05356   0.08722   0.12025   0.12383   0.14596
 Alpha virt. eigenvalues --    0.17286   0.17879   0.28963   0.32814   0.33274
 Alpha virt. eigenvalues --    0.37000   0.39161   0.39590   0.40194   0.43255

 Mulliken charges:
               1
     1  C    0.065323
     2  O   -0.382599
     3  H    0.041898
     4  H    0.050295
     5  H    0.077317
     6  H    0.147767
 Sum of Mulliken charges =   0.00000

 Dipole moment (field-independent basis, Debye):
    X=              0.8885    Y=             -1.3158    Z=              0.2628  Tot=              1.6093
 Quadrupole moment (field-independent basis, Debye-Ang):
   XX=            -13.0472   YY=            -12.4592   ZZ=            -13.6701
   XY=              2.1773   XZ=             -0.2648   YZ=             -0.1751

 Normal termination of Gaussian 09 at Wed Aug 26 10:25:51 2020.
