 Gaussian 09, Revision D.01,
 Gaussian 09:  ES64L-G09RevD.01 24-Apr-2013

 --------------------
 #p B2PLYPD3/Def2QZVP
 --------------------

 --------
 methanol
 --------
 Symbolic Z-matrix:
 Charge =  0 Multiplicity = 1

                         Standard orientation:
 ---------------------------------------------------------------------
 Center     Atomic      Atomic             Coordinates (Angstroms)
 Number     Number       Type             X           Y           Z
 ---------------------------------------------------------------------
      1          6           0        0.643078    0.029568   -0.011297
      2          8           0       -0.730890   -0.168302    0.006552
      3          1           0        0.979223    0.551430    0.865135
      4          1           0        1.073404    0.465223   -0.814667
      5          1           0        1.135465   -0.837194    0.028738
      6          1           0       -1.199444    0.989551   -0.063842
 ---------------------------------------------------------------------

 SCF Done:  E(RB2PLYPD3) =  -115.488362569     A.U. after   11 cycles
 E2(B2PLYPD3) =    -0.1520672697D+00 E(B2PLYPD3) =    -0.11564042983846D+03

 The electronic state is 1-A.
 Alpha  occ. eigenvalues --  -19.74774 -10.62811  -1.13679  -0.79181  -0.55606
 Alpha  occ. eigenvalues --   -0.52530  -0.50459  -0.39777  -0.35013
 Alpha virt. eigenvalues --    0.01352   0.07562   0.12701   0.13044   0.14853
 Alpha virt. eigenvalues --    0.17870   0.18681   0.24836   0.29439   0.33353
 Alpha virt. eigenvalues --    0.35485   0.39187   0.40384   0.42249   0.44052

 Mulliken charges:
               1
     1  C    0.084177
     2  O   -0.477440
     3  H    0.038086
     4  H    0.041285
     5  H    0.056655
     6  H    0.257238
 Sum of Mulliken charges =   0.00000

 Dipole moment (field-independent basis, Debye):
    X=              0.8421    Y=              1.6597    Z=             -0.1581  Tot=              1.8678
 Quadrupole moment (field-independent basis, Debye-Ang):
   XX=            -12.8085   YY=            -11.9258   ZZ=            -13.9245
   XY=             -2.5970   XZ=             -0.0091   YZ=             -0.1237

 Normal termination of Gaussian 09 at Wed Aug 26 15:24:32 2020.
