 Gaussian 09, Revision D.01,
 Gaussian 09:  ES64L-G09RevD.01 24-Apr-2013

 --------------------
 #p B2PLYPD3/Def2QZVP
 --------------------

 --------
 methanol
 --------
 Symbolic Z-matrix:
 Charge =  0 Multiplicity = 1

                         Standard orientation:
 ---------------------------------------------------------------------
 Center     Atomic      Atomic             Coordinates (Angstroms)
 Number     Number       Type             X           Y           Z
 ---------------------------------------------------------------------
      1          6           0       -0.654429    0.009877   -0.008822
      2          8           0        0.745924   -0.152219    0.001480
      3          1           0       -1.031774    0.531993   -0.826219
      4          1           0       -0.981912    0.545353    0.870868
      5          1           0       -1.136982   -0.864086    0.016416
      6          1           0        1.109853    0.945228   -0.019972
 ---------------------------------------------------------------------

 SCF Done:  E(RB2PLYPD3) =  -115.515274564     A.U. after   11 cycles
 E2(B2PLYPD3) =    -0.1505286667D+00 E(B2PLYPD3) =    -0.11566580323111D+03

 The electronic state is 1-A.
 Alpha  occ. eigenvalues --  -19.74180 -10.63558  -1.13804  -0.78986  -0.56476
 Alpha  occ. eigenvalues --   -0.51881  -0.50491  -0.40993  -0.34952
 Alpha virt. eigenvalues --    0.02890   0.07776   0.12559   0.12872   0.14745
 Alpha virt. eigenvalues --    0.18076   0.18207   0.27419   0.29636   0.33150
 Alpha virt. eigenvalues --    0.34384   0.39121   0.41134   0.41725   0.43346

 Mulliken charges:
               1
     1  C    0.087290
     2  O   -0.482556
     3  H    0.038938
     4  H    0.035414
     5  H    0.064748
     6  H    0.256167
 Sum of Mulliken charges =   0.00000

 Dipole moment (field-independent basis, Debye):
    X=             -0.9838    Y=              1.6403    Z=             -0.0634  Tot=              1.9137
 Quadrupole moment (field-independent basis, Debye-Ang):
   XX=            -13.1808   YY=            -11.8064   ZZ=            -13.9313
   XY=              2.4475   XZ=              0.0387   YZ=             -0.0754

 Normal termination of Gaussian 09 at Wed Aug 26 15:44:54 2020.
