 Gaussian 09, Revision D.01,
 Gaussian 09:  ES64L-G09RevD.01 24-Apr-2013

 --------------------
 #p B2PLYPD3/Def2QZVP
 --------------------

 --------
 methanol
 --------
 Symbolic Z-matrix:
 Charge =  0 Multiplicity = 1

                         Standard orientation:
 ---------------------------------------------------------------------
 Center     Atomic      Atomic             Coordinates (Angstroms)
 Number     Number       Type             X           Y           Z
 ---------------------------------------------------------------------
      1          6           0       -0.661515   -0.020422    0.005055
      2          8           0        0.740383    0.112419   -0.010609
      3          1           0       -0.954131   -0.502255    0.947762
      4          1           0       -1.032650   -0.597525   -0.893622
      5          1           0       -1.098813    0.990229   -0.028669
      6          1           0        1.131619   -0.667272    0.029065
 ---------------------------------------------------------------------

 SCF Done:  E(RB2PLYPD3) =  -115.544372236     A.U. after   10 cycles
 E2(B2PLYPD3) =    -0.1457139551D+00 E(B2PLYPD3) =    -0.11569008619118D+03

 The electronic state is 1-A.
 Alpha  occ. eigenvalues --  -19.71540 -10.66325  -1.18409  -0.79237  -0.59748
 Alpha  occ. eigenvalues --   -0.52076  -0.50415  -0.40685  -0.35409
 Alpha virt. eigenvalues --    0.05292   0.08633   0.12145   0.12462   0.14597
 Alpha virt. eigenvalues --    0.17273   0.17940   0.29014   0.32994   0.33715
 Alpha virt. eigenvalues --    0.36874   0.39286   0.39806   0.40496   0.43764

 Mulliken charges:
               1
     1  C    0.066450
     2  O   -0.417029
     3  H    0.049286
     4  H    0.045199
     5  H    0.073108
     6  H    0.182986
 Sum of Mulliken charges =   0.00000

 Dipole moment (field-independent basis, Debye):
    X=             -0.8203    Y=             -1.3934    Z=              0.1052  Tot=              1.6203
 Quadrupole moment (field-independent basis, Debye-Ang):
   XX=            -13.0413   YY=            -12.4216   ZZ=            -13.6485
   XY=             -2.2413   XZ=              0.1411   YZ=             -0.0573

 Normal termination of Gaussian 09 at Thu Aug 27 00:13:19 2020.
