 Gaussian 09, Revision D.01,
 Gaussian 09:  ES64L-G09RevD.01 24-Apr-2013

 --------------------
 #p B2PLYPD3/Def2QZVP
 --------------------

 --------
 methanol
 --------
 Symbolic Z-matrix:
 Charge =  0 Multiplicity = 1

                         Standard orientation:
 ---------------------------------------------------------------------
 Center     Atomic      Atomic             Coordinates (Angstroms)
 Number     Number       Type             X           Y           Z
 ---------------------------------------------------------------------
      1          6           0       -0.686500    0.002708    0.008655
      2          8           0        0.753016   -0.137858   -0.011700
      3          1           0       -1.080775    0.590769   -0.841049
      4          1           0       -0.985713    0.509918    0.867122
      5          1           0       -1.015733   -0.911751   -0.015289
      6          1           0        1.177091    0.897680    0.030882
 ---------------------------------------------------------------------

 SCF Done:  E(RB2PLYPD3) =  -115.520016581     A.U. after   11 cycles
 E2(B2PLYPD3) =    -0.1502502074D+00 E(B2PLYPD3) =    -0.11567026678799D+03

 The electronic state is 1-A.
 Alpha  occ. eigenvalues --  -19.73531 -10.63920  -1.12681  -0.79221  -0.57035
 Alpha  occ. eigenvalues --   -0.51139  -0.49683  -0.41494  -0.34909
 Alpha virt. eigenvalues --    0.03571   0.07812   0.12554   0.12645   0.14855
 Alpha virt. eigenvalues --    0.17126   0.18027   0.28653   0.30091   0.32955
 Alpha virt. eigenvalues --    0.33452   0.38505   0.40303   0.41344   0.43984

 Mulliken charges:
               1
     1  C    0.082936
     2  O   -0.501173
     3  H    0.041662
     4  H    0.047671
     5  H    0.079603
     6  H    0.249301
 Sum of Mulliken charges =   0.00000

 Dipole moment (field-independent basis, Debye):
    X=             -1.0021    Y=              1.5862    Z=              0.1294  Tot=              1.8807
 Quadrupole moment (field-independent basis, Debye-Ang):
   XX=            -13.0345   YY=            -11.7645   ZZ=            -13.9207
   XY=              2.3938   XZ=              0.0898   YZ=              0.0933

 Normal termination of Gaussian 09 at Wed Aug 26 15:48:46 2020.
