 Gaussian 09, Revision D.01,
 Gaussian 09:  ES64L-G09RevD.01 24-Apr-2013

 --------------------
 #p B2PLYPD3/Def2QZVP
 --------------------

 --------
 methanol
 --------
 Symbolic Z-matrix:
 Charge =  0 Multiplicity = 1

                         Standard orientation:
 ---------------------------------------------------------------------
 Center     Atomic      Atomic             Coordinates (Angstroms)
 Number     Number       Type             X           Y           Z
 ---------------------------------------------------------------------
      1          6           0       -0.660426    0.038874    0.007146
      2          8           0        0.743315   -0.173826   -0.003538
      3          1           0       -1.028421    0.533087   -0.794794
      4          1           0       -0.953793    0.521279    0.804127
      5          1           0       -1.200731   -0.879124   -0.011503
      6          1           0        1.198976    0.982120   -0.012401
 ---------------------------------------------------------------------

 SCF Done:  E(RB2PLYPD3) =  -115.488708506     A.U. after   11 cycles
 E2(B2PLYPD3) =    -0.1521229311D+00 E(B2PLYPD3) =    -0.11564083143703D+03

 The electronic state is 1-A.
 Alpha  occ. eigenvalues --  -19.74583 -10.62756  -1.12544  -0.79545  -0.55231
 Alpha  occ. eigenvalues --   -0.53221  -0.49324  -0.40078  -0.35330
 Alpha virt. eigenvalues --    0.01617   0.07510   0.12733   0.12886   0.14716
 Alpha virt. eigenvalues --    0.18098   0.18307   0.25124   0.29577   0.33422
 Alpha virt. eigenvalues --    0.34141   0.39203   0.40148   0.43149   0.43333

 Mulliken charges:
               1
     1  C    0.100048
     2  O   -0.493672
     3  H    0.041095
     4  H    0.045350
     5  H    0.053997
     6  H    0.253183
 Sum of Mulliken charges =   0.00000

 Dipole moment (field-independent basis, Debye):
    X=             -0.9734    Y=              1.7763    Z=              0.0065  Tot=              2.0255
 Quadrupole moment (field-independent basis, Debye-Ang):
   XX=            -12.8159   YY=            -11.8237   ZZ=            -13.9327
   XY=              2.4969   XZ=              0.0261   YZ=              0.0271

 Normal termination of Gaussian 09 at Wed Aug 26 14:05:00 2020.
