 Gaussian 09, Revision D.01,
 Gaussian 09:  ES64L-G09RevD.01 24-Apr-2013

 --------------------
 #p B2PLYPD3/Def2QZVP
 --------------------

 --------
 methanol
 --------
 Symbolic Z-matrix:
 Charge =  0 Multiplicity = 1

                         Standard orientation:
 ---------------------------------------------------------------------
 Center     Atomic      Atomic             Coordinates (Angstroms)
 Number     Number       Type             X           Y           Z
 ---------------------------------------------------------------------
      1          6           0        0.675587    0.031193    0.004280
      2          8           0       -0.750490   -0.143314   -0.007736
      3          1           0        1.016450    0.434604    0.869225
      4          1           0        1.025434    0.589064   -0.816173
      5          1           0        1.058434   -0.953940   -0.058756
      6          1           0       -1.149922    0.889627    0.041915
 ---------------------------------------------------------------------

 SCF Done:  E(RB2PLYPD3) =  -115.528686778     A.U. after   11 cycles
 E2(B2PLYPD3) =    -0.1499496180D+00 E(B2PLYPD3) =    -0.11567863639558D+03

 The electronic state is 1-A.
 Alpha  occ. eigenvalues --  -19.73615 -10.63832  -1.13248  -0.79021  -0.56763
 Alpha  occ. eigenvalues --   -0.52744  -0.48761  -0.41099  -0.35441
 Alpha virt. eigenvalues --    0.03745   0.07882   0.12455   0.12647   0.14896
 Alpha virt. eigenvalues --    0.17230   0.18301   0.28641   0.30161   0.33524
 Alpha virt. eigenvalues --    0.33707   0.38902   0.39845   0.42511   0.44339

 Mulliken charges:
               1
     1  C    0.083361
     2  O   -0.492527
     3  H    0.050926
     4  H    0.047490
     5  H    0.064295
     6  H    0.246455
 Sum of Mulliken charges =   0.00000

 Dipole moment (field-independent basis, Debye):
    X=              1.0144    Y=              1.6439    Z=              0.1094  Tot=              1.9348
 Quadrupole moment (field-independent basis, Debye-Ang):
   XX=            -13.0982   YY=            -11.8967   ZZ=            -13.7898
   XY=             -2.2847   XZ=             -0.0730   YZ=              0.0615

 Normal termination of Gaussian 09 at Wed Aug 26 11:16:00 2020.
