 Gaussian 09, Revision D.01,
 Gaussian 09:  ES64L-G09RevD.01 24-Apr-2013

 --------------------
 #p B2PLYPD3/Def2QZVP
 --------------------

 --------
 methanol
 --------
 Symbolic Z-matrix:
 Charge =  0 Multiplicity = 1

                         Standard orientation:
 ---------------------------------------------------------------------
 Center     Atomic      Atomic             Coordinates (Angstroms)
 Number     Number       Type             X           Y           Z
 ---------------------------------------------------------------------
      1          6           0       -0.691790    0.015641    0.028127
      2          8           0        0.732831   -0.184130   -0.019902
      3          1           0       -0.974475    0.579420   -0.859970
      4          1           0       -0.822637    0.450852    0.863034
      5          1           0       -1.130774   -0.705504   -0.051433
      6          1           0        1.215978    1.054430    0.038827
 ---------------------------------------------------------------------

 SCF Done:  E(RB2PLYPD3) =  -115.405364554     A.U. after   11 cycles
 E2(B2PLYPD3) =    -0.1539127005D+00 E(B2PLYPD3) =    -0.11555927725485D+03

 The electronic state is 1-A.
 Alpha  occ. eigenvalues --  -19.74230 -10.61028  -1.11255  -0.81341  -0.57117
 Alpha  occ. eigenvalues --   -0.52640  -0.49630  -0.39440  -0.34676
 Alpha virt. eigenvalues --    0.00089   0.07715   0.12335   0.12984   0.14224
 Alpha virt. eigenvalues --    0.17977   0.18217   0.23775   0.29483   0.32369
 Alpha virt. eigenvalues --    0.32930   0.38500   0.41538   0.42528   0.46353

 Mulliken charges:
               1
     1  C    0.035573
     2  O   -0.501572
     3  H    0.042957
     4  H    0.057374
     5  H    0.118216
     6  H    0.247452
 Sum of Mulliken charges =   0.00000

 Dipole moment (field-independent basis, Debye):
    X=             -1.0844    Y=              1.6394    Z=              0.1650  Tot=              1.9725
 Quadrupole moment (field-independent basis, Debye-Ang):
   XX=            -12.9550   YY=            -11.6723   ZZ=            -13.5915
   XY=              2.8296   XZ=              0.1647   YZ=              0.1689

 Normal termination of Gaussian 09 at Wed Aug 26 22:24:33 2020.
