 Gaussian 09, Revision D.01,
 Gaussian 09:  ES64L-G09RevD.01 24-Apr-2013

 --------------------
 #p B2PLYPD3/Def2QZVP
 --------------------

 --------
 methanol
 --------
 Symbolic Z-matrix:
 Charge =  0 Multiplicity = 1

                         Standard orientation:
 ---------------------------------------------------------------------
 Center     Atomic      Atomic             Coordinates (Angstroms)
 Number     Number       Type             X           Y           Z
 ---------------------------------------------------------------------
      1          6           0        0.670641   -0.018416    0.010390
      2          8           0       -0.746040    0.098413   -0.012316
      3          1           0        1.050272   -0.673970   -0.856456
      4          1           0        1.000763   -0.423856    0.966373
      5          1           0        1.042606    1.039029   -0.122111
      6          1           0       -1.149166   -0.618012    0.048382
 ---------------------------------------------------------------------

 SCF Done:  E(RB2PLYPD3) =  -115.527228515     A.U. after   10 cycles
 E2(B2PLYPD3) =    -0.1452456124D+00 E(B2PLYPD3) =    -0.11567247412697D+03

 The electronic state is 1-A.
 Alpha  occ. eigenvalues --  -19.70942 -10.66989  -1.19225  -0.79818  -0.60321
 Alpha  occ. eigenvalues --   -0.51686  -0.49853  -0.40722  -0.35636
 Alpha virt. eigenvalues --    0.05394   0.08765   0.12063   0.12221   0.14744
 Alpha virt. eigenvalues --    0.16878   0.17911   0.29048   0.33050   0.33173
 Alpha virt. eigenvalues --    0.37427   0.38812   0.39613   0.40527   0.42798

 Mulliken charges:
               1
     1  C    0.063365
     2  O   -0.384072
     3  H    0.045341
     4  H    0.056821
     5  H    0.075807
     6  H    0.142738
 Sum of Mulliken charges =   0.00000

 Dipole moment (field-independent basis, Debye):
    X=              0.8335    Y=             -1.3425    Z=              0.1690  Tot=              1.5892
 Quadrupole moment (field-independent basis, Debye-Ang):
   XX=            -12.9723   YY=            -12.4349   ZZ=            -13.6438
   XY=              2.0781   XZ=             -0.1538   YZ=             -0.1199

 Normal termination of Gaussian 09 at Wed Aug 26 10:41:18 2020.
