 Gaussian 09, Revision D.01,
 Gaussian 09:  ES64L-G09RevD.01 24-Apr-2013

 --------------------
 #p B2PLYPD3/Def2QZVP
 --------------------

 --------
 methanol
 --------
 Symbolic Z-matrix:
 Charge =  0 Multiplicity = 1

                         Standard orientation:
 ---------------------------------------------------------------------
 Center     Atomic      Atomic             Coordinates (Angstroms)
 Number     Number       Type             X           Y           Z
 ---------------------------------------------------------------------
      1          6           0       -0.649068   -0.011783    0.048461
      2          8           0        0.752915   -0.142345   -0.042456
      3          1           0       -1.119804    0.758142   -0.820398
      4          1           0       -0.949358    0.372159    0.869150
      5          1           0       -1.210945   -0.813948   -0.148489
      6          1           0        1.151195    0.893107    0.148619
 ---------------------------------------------------------------------

 SCF Done:  E(RB2PLYPD3) =  -115.495047521     A.U. after   11 cycles
 E2(B2PLYPD3) =    -0.1504858686D+00 E(B2PLYPD3) =    -0.11564553338984D+03

 The electronic state is 1-A.
 Alpha  occ. eigenvalues --  -19.74500 -10.64614  -1.14316  -0.79531  -0.57517
 Alpha  occ. eigenvalues --   -0.52334  -0.49719  -0.40869  -0.34436
 Alpha virt. eigenvalues --    0.03115   0.07395   0.12229   0.12919   0.14627
 Alpha virt. eigenvalues --    0.18221   0.18800   0.27700   0.29727   0.32040
 Alpha virt. eigenvalues --    0.33606   0.36436   0.40843   0.41923   0.43878

 Mulliken charges:
               1
     1  C    0.083973
     2  O   -0.472798
     3  H    0.001992
     4  H    0.052092
     5  H    0.071129
     6  H    0.263611
 Sum of Mulliken charges =   0.00000

 Dipole moment (field-independent basis, Debye):
    X=             -0.8029    Y=              1.4556    Z=              0.5822  Tot=              1.7614
 Quadrupole moment (field-independent basis, Debye-Ang):
   XX=            -12.9340   YY=            -12.2299   ZZ=            -14.0076
   XY=              2.7057   XZ=              0.2229   YZ=              0.5402

 Normal termination of Gaussian 09 at Wed Aug 26 20:18:44 2020.
