 Gaussian 09, Revision D.01,
 Gaussian 09:  ES64L-G09RevD.01 24-Apr-2013

 --------------------
 #p B2PLYPD3/Def2QZVP
 --------------------

 --------
 methanol
 --------
 Symbolic Z-matrix:
 Charge =  0 Multiplicity = 1

                         Standard orientation:
 ---------------------------------------------------------------------
 Center     Atomic      Atomic             Coordinates (Angstroms)
 Number     Number       Type             X           Y           Z
 ---------------------------------------------------------------------
      1          6           0       -0.663223   -0.031089    0.002992
      2          8           0        0.742614    0.114903   -0.010285
      3          1           0       -0.980634   -0.455449    0.926117
      4          1           0       -1.003698   -0.610683   -0.860148
      5          1           0       -1.076030    1.026425   -0.055022
      6          1           0        1.098793   -0.692987    0.053379
 ---------------------------------------------------------------------

 SCF Done:  E(RB2PLYPD3) =  -115.545850037     A.U. after   10 cycles
 E2(B2PLYPD3) =    -0.1459413318D+00 E(B2PLYPD3) =    -0.11569179136896D+03

 The electronic state is 1-A.
 Alpha  occ. eigenvalues --  -19.71680 -10.65862  -1.18127  -0.79119  -0.59788
 Alpha  occ. eigenvalues --   -0.52783  -0.49461  -0.40965  -0.35696
 Alpha virt. eigenvalues --    0.05244   0.08687   0.12177   0.12305   0.14752
 Alpha virt. eigenvalues --    0.17204   0.17988   0.29048   0.33292   0.33482
 Alpha virt. eigenvalues --    0.37358   0.37819   0.40251   0.41495   0.44021

 Mulliken charges:
               1
     1  C    0.068431
     2  O   -0.423699
     3  H    0.053095
     4  H    0.050734
     5  H    0.064690
     6  H    0.186749
 Sum of Mulliken charges =   0.00000

 Dipole moment (field-independent basis, Debye):
    X=             -0.8953    Y=             -1.4800    Z=              0.1451  Tot=              1.7358
 Quadrupole moment (field-independent basis, Debye-Ang):
   XX=            -13.2172   YY=            -12.2906   ZZ=            -13.6070
   XY=             -2.0950   XZ=              0.1418   YZ=             -0.0658

 Normal termination of Gaussian 09 at Thu Aug 27 00:02:23 2020.
