 Gaussian 09, Revision D.01,
 Gaussian 09:  ES64L-G09RevD.01 24-Apr-2013

 --------------------
 #p B2PLYPD3/Def2QZVP
 --------------------

 --------
 methanol
 --------
 Symbolic Z-matrix:
 Charge =  0 Multiplicity = 1

                         Standard orientation:
 ---------------------------------------------------------------------
 Center     Atomic      Atomic             Coordinates (Angstroms)
 Number     Number       Type             X           Y           Z
 ---------------------------------------------------------------------
      1          6           0       -0.678944   -0.019054    0.012959
      2          8           0        0.754895    0.100083   -0.017777
      3          1           0       -0.986468   -0.439060    0.961868
      4          1           0       -1.061774   -0.626917   -0.895224
      5          1           0       -1.035680    1.023810   -0.074702
      6          1           0        1.118428   -0.644172    0.072522
 ---------------------------------------------------------------------

 SCF Done:  E(RB2PLYPD3) =  -115.530727097     A.U. after   10 cycles
 E2(B2PLYPD3) =    -0.1455969930D+00 E(B2PLYPD3) =    -0.11567632409011D+03

 The electronic state is 1-A.
 Alpha  occ. eigenvalues --  -19.71058 -10.66806  -1.18656  -0.79627  -0.59747
 Alpha  occ. eigenvalues --   -0.51748  -0.49677  -0.41194  -0.35759
 Alpha virt. eigenvalues --    0.05383   0.08707   0.12003   0.12252   0.14547
 Alpha virt. eigenvalues --    0.16925   0.18021   0.28965   0.32362   0.33195
 Alpha virt. eigenvalues --    0.37233   0.38917   0.39785   0.40539   0.43252

 Mulliken charges:
               1
     1  C    0.064254
     2  O   -0.396709
     3  H    0.058340
     4  H    0.048850
     5  H    0.076235
     6  H    0.149029
 Sum of Mulliken charges =   0.00000

 Dipole moment (field-independent basis, Debye):
    X=             -0.9559    Y=             -1.3470    Z=              0.2366  Tot=              1.6685
 Quadrupole moment (field-independent basis, Debye-Ang):
   XX=            -13.1414   YY=            -12.3993   ZZ=            -13.5474
   XY=             -2.0859   XZ=              0.2216   YZ=             -0.1532

 Normal termination of Gaussian 09 at Thu Aug 27 01:05:07 2020.
