 Gaussian 09, Revision D.01,
 Gaussian 09:  ES64L-G09RevD.01 24-Apr-2013

 --------------------
 #p B2PLYPD3/Def2QZVP
 --------------------

 --------
 methanol
 --------
 Symbolic Z-matrix:
 Charge =  0 Multiplicity = 1

                         Standard orientation:
 ---------------------------------------------------------------------
 Center     Atomic      Atomic             Coordinates (Angstroms)
 Number     Number       Type             X           Y           Z
 ---------------------------------------------------------------------
      1          6           0        0.671540   -0.020765   -0.003285
      2          8           0       -0.745493    0.101959    0.004236
      3          1           0        1.044941   -0.513787   -0.909813
      4          1           0        0.999899   -0.574932    0.914270
      5          1           0        1.023678    1.044889    0.024980
      6          1           0       -1.133814   -0.647256   -0.043612
 ---------------------------------------------------------------------

 SCF Done:  E(RB2PLYPD3) =  -115.536386753     A.U. after   10 cycles
 E2(B2PLYPD3) =    -0.1455122347D+00 E(B2PLYPD3) =    -0.11568189898761D+03

 The electronic state is 1-A.
 Alpha  occ. eigenvalues --  -19.71164 -10.66591  -1.18673  -0.79547  -0.60107
 Alpha  occ. eigenvalues --   -0.51863  -0.49646  -0.40986  -0.35614
 Alpha virt. eigenvalues --    0.05361   0.08741   0.12135   0.12208   0.14800
 Alpha virt. eigenvalues --    0.16862   0.17940   0.29082   0.32907   0.33507
 Alpha virt. eigenvalues --    0.37789   0.38584   0.39905   0.40548   0.42885

 Mulliken charges:
               1
     1  C    0.063593
     2  O   -0.401077
     3  H    0.053078
     4  H    0.050707
     5  H    0.074013
     6  H    0.159686
 Sum of Mulliken charges =   0.00000

 Dipole moment (field-independent basis, Debye):
    X=              0.8604    Y=             -1.3908    Z=             -0.1122  Tot=              1.6393
 Quadrupole moment (field-independent basis, Debye-Ang):
   XX=            -13.0722   YY=            -12.3433   ZZ=            -13.6431
   XY=              2.0631   XZ=              0.0482   YZ=              0.0732

 Normal termination of Gaussian 09 at Thu Aug 27 00:09:36 2020.
