 Gaussian 09, Revision D.01,
 Gaussian 09:  ES64L-G09RevD.01 24-Apr-2013

 --------------------
 #p B2PLYPD3/Def2QZVP
 --------------------

 --------
 methanol
 --------
 Symbolic Z-matrix:
 Charge =  0 Multiplicity = 1

                         Standard orientation:
 ---------------------------------------------------------------------
 Center     Atomic      Atomic             Coordinates (Angstroms)
 Number     Number       Type             X           Y           Z
 ---------------------------------------------------------------------
      1          6           0       -0.669275   -0.021691    0.005766
      2          8           0        0.740256    0.132885   -0.006198
      3          1           0       -0.957281   -0.511730    0.899556
      4          1           0       -1.020663   -0.573559   -0.866887
      5          1           0       -1.094061    0.941256   -0.025136
      6          1           0        1.165604   -0.788900    0.007456
 ---------------------------------------------------------------------

 SCF Done:  E(RB2PLYPD3) =  -115.547965107     A.U. after   10 cycles
 E2(B2PLYPD3) =    -0.1478778205D+00 E(B2PLYPD3) =    -0.11569584292766D+03

 The electronic state is 1-A.
 Alpha  occ. eigenvalues --  -19.72688 -10.64716  -1.14997  -0.78749  -0.57821
 Alpha  occ. eigenvalues --   -0.52304  -0.50144  -0.40797  -0.35123
 Alpha virt. eigenvalues --    0.04613   0.08153   0.12416   0.12654   0.14747
 Alpha virt. eigenvalues --    0.17372   0.18029   0.29204   0.32888   0.33330
 Alpha virt. eigenvalues --    0.33837   0.39370   0.40378   0.41519   0.44055

 Mulliken charges:
               1
     1  C    0.076819
     2  O   -0.479461
     3  H    0.048891
     4  H    0.044106
     5  H    0.071251
     6  H    0.238394
 Sum of Mulliken charges =   0.00000

 Dipole moment (field-independent basis, Debye):
    X=             -0.8686    Y=             -1.5367    Z=              0.0497  Tot=              1.7659
 Quadrupole moment (field-independent basis, Debye-Ang):
   XX=            -12.9637   YY=            -12.1583   ZZ=            -13.7396
   XY=             -2.4010   XZ=              0.0629   YZ=             -0.0395

 Normal termination of Gaussian 09 at Wed Aug 26 23:43:06 2020.
