 Gaussian 09, Revision D.01,
 Gaussian 09:  ES64L-G09RevD.01 24-Apr-2013

 --------------------
 #p B2PLYPD3/Def2QZVP
 --------------------

 --------
 methanol
 --------
 Symbolic Z-matrix:
 Charge =  0 Multiplicity = 1

                         Standard orientation:
 ---------------------------------------------------------------------
 Center     Atomic      Atomic             Coordinates (Angstroms)
 Number     Number       Type             X           Y           Z
 ---------------------------------------------------------------------
      1          6           0        0.661675    0.020889   -0.010824
      2          8           0       -0.736176   -0.138612    0.003964
      3          1           0        0.978537    0.561285    0.893182
      4          1           0        1.028295    0.514205   -0.855191
      5          1           0        1.080279   -0.927305    0.029418
      6          1           0       -1.167752    0.835378   -0.034181
 ---------------------------------------------------------------------

 SCF Done:  E(RB2PLYPD3) =  -115.539243588     A.U. after   11 cycles
 E2(B2PLYPD3) =    -0.1486901599D+00 E(B2PLYPD3) =    -0.11568793374775D+03

 The electronic state is 1-A.
 Alpha  occ. eigenvalues --  -19.73228 -10.64299  -1.14687  -0.78601  -0.57595
 Alpha  occ. eigenvalues --   -0.52095  -0.50234  -0.40801  -0.34980
 Alpha virt. eigenvalues --    0.04122   0.08018   0.12479   0.12730   0.14867
 Alpha virt. eigenvalues --    0.17385   0.18190   0.29100   0.31236   0.33180
 Alpha virt. eigenvalues --    0.34502   0.39150   0.40424   0.41641   0.44079

 Mulliken charges:
               1
     1  C    0.076132
     2  O   -0.479888
     3  H    0.040550
     4  H    0.046707
     5  H    0.068980
     6  H    0.247520
 Sum of Mulliken charges =   0.00000

 Dipole moment (field-independent basis, Debye):
    X=              0.8344    Y=              1.5646    Z=             -0.1079  Tot=              1.7764
 Quadrupole moment (field-independent basis, Debye-Ang):
   XX=            -12.9742   YY=            -12.0783   ZZ=            -13.8075
   XY=             -2.4253   XZ=             -0.0187   YZ=             -0.1075

 Normal termination of Gaussian 09 at Thu Aug 27 00:10:27 2020.
