 Gaussian 09, Revision D.01,
 Gaussian 09:  ES64L-G09RevD.01 24-Apr-2013

 --------------------
 #p B2PLYPD3/Def2QZVP
 --------------------

 --------
 methanol
 --------
 Symbolic Z-matrix:
 Charge =  0 Multiplicity = 1

                         Standard orientation:
 ---------------------------------------------------------------------
 Center     Atomic      Atomic             Coordinates (Angstroms)
 Number     Number       Type             X           Y           Z
 ---------------------------------------------------------------------
      1          6           0        0.662487    0.032958   -0.011056
      2          8           0       -0.738161   -0.143728    0.010426
      3          1           0        0.996434    0.588828    0.848453
      4          1           0        1.002585    0.471780   -0.846870
      5          1           0        1.095144   -0.958768    0.038704
      6          1           0       -1.163794    0.850239   -0.057365
 ---------------------------------------------------------------------

 SCF Done:  E(RB2PLYPD3) =  -115.533993263     A.U. after   11 cycles
 E2(B2PLYPD3) =    -0.1490861691D+00 E(B2PLYPD3) =    -0.11568307943231D+03

 The electronic state is 1-A.
 Alpha  occ. eigenvalues --  -19.73400 -10.64086  -1.14345  -0.78678  -0.57472
 Alpha  occ. eigenvalues --   -0.52714  -0.49366  -0.40703  -0.35245
 Alpha virt. eigenvalues --    0.03967   0.07955   0.12512   0.12615   0.14943
 Alpha virt. eigenvalues --    0.17400   0.18198   0.29002   0.30662   0.33391
 Alpha virt. eigenvalues --    0.34440   0.38846   0.39793   0.42241   0.44732

 Mulliken charges:
               1
     1  C    0.080442
     2  O   -0.483084
     3  H    0.044167
     4  H    0.049046
     5  H    0.062420
     6  H    0.247009
 Sum of Mulliken charges =   0.00000

 Dipole moment (field-independent basis, Debye):
    X=              0.8744    Y=              1.6346    Z=             -0.1708  Tot=              1.8617
 Quadrupole moment (field-independent basis, Debye-Ang):
   XX=            -13.0080   YY=            -12.0306   ZZ=            -13.7993
   XY=             -2.3409   XZ=              0.0625   YZ=             -0.1212

 Normal termination of Gaussian 09 at Wed Aug 26 12:03:34 2020.
