 Gaussian 09, Revision D.01,
 Gaussian 09:  ES64L-G09RevD.01 24-Apr-2013

 --------------------
 #p B2PLYPD3/Def2QZVP
 --------------------

 --------
 methanol
 --------
 Symbolic Z-matrix:
 Charge =  0 Multiplicity = 1

                         Standard orientation:
 ---------------------------------------------------------------------
 Center     Atomic      Atomic             Coordinates (Angstroms)
 Number     Number       Type             X           Y           Z
 ---------------------------------------------------------------------
      1          6           0       -0.660113    0.019786    0.008483
      2          8           0        0.749489   -0.137957   -0.014389
      3          1           0       -1.073808    0.611171   -0.817783
      4          1           0       -0.981277    0.465407    0.871422
      5          1           0       -1.110281   -0.947180   -0.037887
      6          1           0        1.130132    0.855548    0.048467
 ---------------------------------------------------------------------

 SCF Done:  E(RB2PLYPD3) =  -115.538261154     A.U. after   11 cycles
 E2(B2PLYPD3) =    -0.1490416576D+00 E(B2PLYPD3) =    -0.11568730281147D+03

 The electronic state is 1-A.
 Alpha  occ. eigenvalues --  -19.73567 -10.64472  -1.14543  -0.78707  -0.57580
 Alpha  occ. eigenvalues --   -0.51895  -0.49697  -0.41205  -0.35270
 Alpha virt. eigenvalues --    0.04102   0.07902   0.12494   0.12649   0.14956
 Alpha virt. eigenvalues --    0.17589   0.18177   0.29084   0.30987   0.33384
 Alpha virt. eigenvalues --    0.34150   0.38984   0.39868   0.41418   0.44235

 Mulliken charges:
               1
     1  C    0.079432
     2  O   -0.478468
     3  H    0.039626
     4  H    0.047278
     5  H    0.065340
     6  H    0.246792
 Sum of Mulliken charges =   0.00000

 Dipole moment (field-independent basis, Debye):
    X=             -0.9351    Y=              1.6102    Z=              0.1734  Tot=              1.8701
 Quadrupole moment (field-independent basis, Debye-Ang):
   XX=            -13.0720   YY=            -11.9879   ZZ=            -13.9030
   XY=              2.3127   XZ=              0.1232   YZ=              0.1129

 Normal termination of Gaussian 09 at Wed Aug 26 23:59:52 2020.
