 Gaussian 09, Revision D.01,
 Gaussian 09:  ES64L-G09RevD.01 24-Apr-2013

 --------------------
 #p B2PLYPD3/Def2QZVP
 --------------------

 --------
 methanol
 --------
 Symbolic Z-matrix:
 Charge =  0 Multiplicity = 1

                         Standard orientation:
 ---------------------------------------------------------------------
 Center     Atomic      Atomic             Coordinates (Angstroms)
 Number     Number       Type             X           Y           Z
 ---------------------------------------------------------------------
      1          6           0       -0.654452   -0.008778    0.004188
      2          8           0        0.744599    0.100416   -0.008983
      3          1           0       -1.008743   -0.534807    0.939389
      4          1           0       -1.024028   -0.594663   -0.928745
      5          1           0       -1.094414    1.002345   -0.012276
      6          1           0        1.097100   -0.623534    0.048365
 ---------------------------------------------------------------------

 SCF Done:  E(RB2PLYPD3) =  -115.519895949     A.U. after   10 cycles
 E2(B2PLYPD3) =    -0.1449014928D+00 E(B2PLYPD3) =    -0.11566479744217D+03

 The electronic state is 1-A.
 Alpha  occ. eigenvalues --  -19.71133 -10.67143  -1.20715  -0.79816  -0.60741
 Alpha  occ. eigenvalues --   -0.51441  -0.50930  -0.41066  -0.35467
 Alpha virt. eigenvalues --    0.05367   0.08853   0.11997   0.12369   0.14651
 Alpha virt. eigenvalues --    0.17284   0.17825   0.28868   0.32817   0.33754
 Alpha virt. eigenvalues --    0.37038   0.39266   0.39814   0.39923   0.43213

 Mulliken charges:
               1
     1  C    0.061156
     2  O   -0.354470
     3  H    0.044240
     4  H    0.041191
     5  H    0.078138
     6  H    0.129745
 Sum of Mulliken charges =   0.00000

 Dipole moment (field-independent basis, Debye):
    X=             -0.8341    Y=             -1.2986    Z=              0.1460  Tot=              1.5503
 Quadrupole moment (field-independent basis, Debye-Ang):
   XX=            -13.1302   YY=            -12.4483   ZZ=            -13.6936
   XY=             -2.1514   XZ=              0.1110   YZ=             -0.0888

 Normal termination of Gaussian 09 at Wed Aug 26 23:32:47 2020.
