 Gaussian 09, Revision D.01,
 Gaussian 09:  ES64L-G09RevD.01 24-Apr-2013

 --------------------
 #p B2PLYPD3/Def2QZVP
 --------------------

 --------
 methanol
 --------
 Symbolic Z-matrix:
 Charge =  0 Multiplicity = 1

                         Standard orientation:
 ---------------------------------------------------------------------
 Center     Atomic      Atomic             Coordinates (Angstroms)
 Number     Number       Type             X           Y           Z
 ---------------------------------------------------------------------
      1          6           0        0.651603   -0.010526    0.005560
      2          8           0       -0.753737    0.084010   -0.005954
      3          1           0        1.169541   -0.555801   -0.904647
      4          1           0        1.041849   -0.544835    0.938231
      5          1           0        1.015263    1.088500    0.000714
      6          1           0       -1.106378   -0.596792   -0.020028
 ---------------------------------------------------------------------

 SCF Done:  E(RB2PLYPD3) =  -115.488691404     A.U. after   10 cycles
 E2(B2PLYPD3) =    -0.1449710722D+00 E(B2PLYPD3) =    -0.11563366247597D+03

 The electronic state is 1-A.
 Alpha  occ. eigenvalues --  -19.71121 -10.68186  -1.22123  -0.80085  -0.61524
 Alpha  occ. eigenvalues --   -0.50915  -0.49878  -0.41063  -0.35780
 Alpha virt. eigenvalues --    0.05355   0.08698   0.11835   0.12109   0.15038
 Alpha virt. eigenvalues --    0.16844   0.18060   0.28820   0.32647   0.33763
 Alpha virt. eigenvalues --    0.36465   0.38315   0.38947   0.40186   0.41943

 Mulliken charges:
               1
     1  C    0.046238
     2  O   -0.301324
     3  H    0.043385
     4  H    0.049741
     5  H    0.074399
     6  H    0.087560
 Sum of Mulliken charges =   0.00000

 Dipole moment (field-independent basis, Debye):
    X=              0.7918    Y=             -1.2865    Z=              0.0121  Tot=              1.5107
 Quadrupole moment (field-independent basis, Debye-Ang):
   XX=            -13.0377   YY=            -12.4742   ZZ=            -13.8482
   XY=              1.8969   XZ=             -0.0204   YZ=             -0.0161

 Normal termination of Gaussian 09 at Wed Aug 26 13:38:47 2020.
