 Gaussian 09, Revision D.01,
 Gaussian 09:  ES64L-G09RevD.01 24-Apr-2013

 --------------------
 #p B2PLYPD3/Def2QZVP
 --------------------

 --------
 methanol
 --------
 Symbolic Z-matrix:
 Charge =  0 Multiplicity = 1

                         Standard orientation:
 ---------------------------------------------------------------------
 Center     Atomic      Atomic             Coordinates (Angstroms)
 Number     Number       Type             X           Y           Z
 ---------------------------------------------------------------------
      1          6           0        0.651201   -0.006106   -0.005922
      2          8           0       -0.756736    0.096472   -0.000894
      3          1           0        1.042722   -0.634673   -0.890672
      4          1           0        1.004641   -0.484723    1.019532
      5          1           0        1.136685    0.991358   -0.076912
      6          1           0       -1.037362   -0.607102   -0.009265
 ---------------------------------------------------------------------

 SCF Done:  E(RB2PLYPD3) =  -115.483680761     A.U. after   10 cycles
 E2(B2PLYPD3) =    -0.1446686130D+00 E(B2PLYPD3) =    -0.11562834937424D+03

 The electronic state is 1-A.
 Alpha  occ. eigenvalues --  -19.70939 -10.67915  -1.22751  -0.79878  -0.61139
 Alpha  occ. eigenvalues --   -0.51289  -0.51001  -0.41466  -0.35732
 Alpha virt. eigenvalues --    0.05340   0.08951   0.11704   0.12338   0.14405
 Alpha virt. eigenvalues --    0.17550   0.17858   0.28557   0.32490   0.33370
 Alpha virt. eigenvalues --    0.36218   0.38545   0.39381   0.40096   0.43586

 Mulliken charges:
               1
     1  C    0.055027
     2  O   -0.298889
     3  H    0.044180
     4  H    0.040375
     5  H    0.078910
     6  H    0.080396
 Sum of Mulliken charges =   0.00000

 Dipole moment (field-independent basis, Debye):
    X=              0.9593    Y=             -1.2481    Z=             -0.0645  Tot=              1.5755
 Quadrupole moment (field-independent basis, Debye-Ang):
   XX=            -13.3102   YY=            -12.5067   ZZ=            -13.6632
   XY=              2.0963   XZ=             -0.1025   YZ=              0.0452

 Normal termination of Gaussian 09 at Wed Aug 26 13:28:15 2020.
