 Gaussian 09, Revision D.01,
 Gaussian 09:  ES64L-G09RevD.01 24-Apr-2013

 --------------------
 #p B2PLYPD3/Def2QZVP
 --------------------

 --------
 methanol
 --------
 Symbolic Z-matrix:
 Charge =  0 Multiplicity = 1

                         Standard orientation:
 ---------------------------------------------------------------------
 Center     Atomic      Atomic             Coordinates (Angstroms)
 Number     Number       Type             X           Y           Z
 ---------------------------------------------------------------------
      1          6           0        0.649731   -0.040421   -0.009811
      2          8           0       -0.765250    0.077434    0.013348
      3          1           0        0.963924   -0.638607   -0.911030
      4          1           0        1.077537   -0.480139    1.009204
      5          1           0        1.187125    1.145045   -0.107725
      6          1           0       -1.004973   -0.403249   -0.038364
 ---------------------------------------------------------------------

 SCF Done:  E(RB2PLYPD3) =  -114.980155631     A.U. after   11 cycles
 E2(B2PLYPD3) =    -0.1434040992D+00 E(B2PLYPD3) =    -0.11512355973012D+03

 The electronic state is 1-A.
 Alpha  occ. eigenvalues --  -19.69111 -10.70164  -1.33000  -0.82757  -0.63258
 Alpha  occ. eigenvalues --   -0.52328  -0.49610  -0.40687  -0.37039
 Alpha virt. eigenvalues --    0.04862   0.09598   0.10905   0.11611   0.14272
 Alpha virt. eigenvalues --    0.17169   0.17752   0.27736   0.31509   0.32782
 Alpha virt. eigenvalues --    0.32976   0.36876   0.39084   0.40502   0.44059

 Mulliken charges:
               1
     1  C    0.048250
     2  O   -0.086446
     3  H    0.063851
     4  H    0.057239
     5  H    0.058749
     6  H   -0.141643
 Sum of Mulliken charges =   0.00000

 Dipole moment (field-independent basis, Debye):
    X=              1.0680    Y=             -1.2103    Z=             -0.1793  Tot=              1.6241
 Quadrupole moment (field-independent basis, Debye-Ang):
   XX=            -13.2724   YY=            -12.6942   ZZ=            -13.3351
   XY=              1.6600   XZ=              0.1751   YZ=              0.1557

 Normal termination of Gaussian 09 at Wed Aug 26 23:56:02 2020.
