 Gaussian 09, Revision D.01,
 Gaussian 09:  ES64L-G09RevD.01 24-Apr-2013

 --------------------
 #p B2PLYPD3/Def2QZVP
 --------------------

 --------
 methanol
 --------
 Symbolic Z-matrix:
 Charge =  0 Multiplicity = 1

                         Standard orientation:
 ---------------------------------------------------------------------
 Center     Atomic      Atomic             Coordinates (Angstroms)
 Number     Number       Type             X           Y           Z
 ---------------------------------------------------------------------
      1          6           0       -0.655291    0.008503    0.014410
      2          8           0        0.721416   -0.080298   -0.040055
      3          1           0       -0.852747    1.167963   -0.409078
      4          1           0       -1.069271   -0.188732    1.005451
      5          1           0       -1.044198   -0.796014   -0.655222
      6          1           0        1.126631    0.408149    0.292826
 ---------------------------------------------------------------------

 SCF Done:  E(RB2PLYPD3) =  -115.433191494     A.U. after   11 cycles
 E2(B2PLYPD3) =    -0.1436967937D+00 E(B2PLYPD3) =    -0.11557688828769D+03

 The electronic state is 1-A.
 Alpha  occ. eigenvalues --  -19.69588 -10.67931  -1.23976  -0.82244  -0.61646
 Alpha  occ. eigenvalues --   -0.52355  -0.51260  -0.39800  -0.35199
 Alpha virt. eigenvalues --    0.05246   0.09274   0.11511   0.12377   0.14298
 Alpha virt. eigenvalues --    0.16707   0.17837   0.28632   0.31322   0.33980
 Alpha virt. eigenvalues --    0.36511   0.38693   0.40567   0.41301   0.42937

 Mulliken charges:
               1
     1  C    0.046585
     2  O   -0.244753
     3  H    0.027277
     4  H    0.057556
     5  H    0.082910
     6  H    0.030424
 Sum of Mulliken charges =   0.00000

 Dipole moment (field-independent basis, Debye):
    X=             -0.6489    Y=              0.8348    Z=              0.7456  Tot=              1.2938
 Quadrupole moment (field-independent basis, Debye-Ang):
   XX=            -13.0426   YY=            -12.8938   ZZ=            -13.3163
   XY=              1.9923   XZ=              0.8682   YZ=              0.3745

 Normal termination of Gaussian 09 at Wed Aug 26 21:39:21 2020.
