 Gaussian 09, Revision D.01,
 Gaussian 09:  ES64L-G09RevD.01 24-Apr-2013

 --------------------
 #p B2PLYPD3/Def2QZVP
 --------------------

 --------
 methanol
 --------
 Symbolic Z-matrix:
 Charge =  0 Multiplicity = 1

                         Standard orientation:
 ---------------------------------------------------------------------
 Center     Atomic      Atomic             Coordinates (Angstroms)
 Number     Number       Type             X           Y           Z
 ---------------------------------------------------------------------
      1          6           0        0.663059    0.018054   -0.003637
      2          8           0       -0.735711   -0.142161    0.000093
      3          1           0        1.001731    0.520144    0.881867
      4          1           0        0.993951    0.574370   -0.842109
      5          1           0        1.094329   -0.912605   -0.023476
      6          1           0       -1.182674    0.847055    0.004793
 ---------------------------------------------------------------------

 SCF Done:  E(RB2PLYPD3) =  -115.535949994     A.U. after   11 cycles
 E2(B2PLYPD3) =    -0.1489302590D+00 E(B2PLYPD3) =    -0.11568488025284D+03

 The electronic state is 1-A.
 Alpha  occ. eigenvalues --  -19.73294 -10.64026  -1.14321  -0.78699  -0.57324
 Alpha  occ. eigenvalues --   -0.52033  -0.50429  -0.40763  -0.34901
 Alpha virt. eigenvalues --    0.03910   0.07967   0.12583   0.12762   0.14902
 Alpha virt. eigenvalues --    0.17478   0.18078   0.29105   0.30611   0.33256
 Alpha virt. eigenvalues --    0.34375   0.39349   0.40764   0.41650   0.43843

 Mulliken charges:
               1
     1  C    0.080946
     2  O   -0.486116
     3  H    0.041988
     4  H    0.042428
     5  H    0.070308
     6  H    0.250446
 Sum of Mulliken charges =   0.00000

 Dipole moment (field-independent basis, Debye):
    X=              0.8364    Y=              1.5860    Z=             -0.0061  Tot=              1.7930
 Quadrupole moment (field-independent basis, Debye-Ang):
   XX=            -12.8941   YY=            -12.0209   ZZ=            -13.8525
   XY=             -2.4727   XZ=             -0.0266   YZ=             -0.0125

 Normal termination of Gaussian 09 at Thu Aug 27 00:08:13 2020.
