 Gaussian 09, Revision D.01,
 Gaussian 09:  ES64L-G09RevD.01 24-Apr-2013

 --------------------
 #p B2PLYPD3/Def2QZVP
 --------------------

 --------
 methanol
 --------
 Symbolic Z-matrix:
 Charge =  0 Multiplicity = 1

                         Standard orientation:
 ---------------------------------------------------------------------
 Center     Atomic      Atomic             Coordinates (Angstroms)
 Number     Number       Type             X           Y           Z
 ---------------------------------------------------------------------
      1          6           0        0.677754    0.022115   -0.010343
      2          8           0       -0.747593   -0.143996    0.008044
      3          1           0        1.054059    0.549302    0.852556
      4          1           0        0.990461    0.530360   -0.836135
      5          1           0        1.069031   -0.938060   -0.001216
      6          1           0       -1.199332    0.877670   -0.017500
 ---------------------------------------------------------------------

 SCF Done:  E(RB2PLYPD3) =  -115.527777739     A.U. after   11 cycles
 E2(B2PLYPD3) =    -0.1499710924D+00 E(B2PLYPD3) =    -0.11567774883154D+03

 The electronic state is 1-A.
 Alpha  occ. eigenvalues --  -19.73559 -10.63972  -1.13024  -0.78926  -0.56846
 Alpha  occ. eigenvalues --   -0.51900  -0.49344  -0.41014  -0.35112
 Alpha virt. eigenvalues --    0.03630   0.07795   0.12547   0.12686   0.14929
 Alpha virt. eigenvalues --    0.17245   0.18138   0.28712   0.30028   0.33410
 Alpha virt. eigenvalues --    0.33573   0.39174   0.39902   0.41683   0.44312

 Mulliken charges:
               1
     1  C    0.084491
     2  O   -0.497838
     3  H    0.044238
     4  H    0.048792
     5  H    0.070519
     6  H    0.249797
 Sum of Mulliken charges =   0.00000

 Dipole moment (field-independent basis, Debye):
    X=              0.9352    Y=              1.6263    Z=             -0.0919  Tot=              1.8783
 Quadrupole moment (field-independent basis, Debye-Ang):
   XX=            -12.8755   YY=            -11.9153   ZZ=            -13.8917
   XY=             -2.4112   XZ=              0.0420   YZ=             -0.0772

 Normal termination of Gaussian 09 at Thu Aug 27 00:14:55 2020.
