 Gaussian 09, Revision D.01,
 Gaussian 09:  ES64L-G09RevD.01 24-Apr-2013

 --------------------
 #p B2PLYPD3/Def2QZVP
 --------------------

 --------
 methanol
 --------
 Symbolic Z-matrix:
 Charge =  0 Multiplicity = 1

                         Standard orientation:
 ---------------------------------------------------------------------
 Center     Atomic      Atomic             Coordinates (Angstroms)
 Number     Number       Type             X           Y           Z
 ---------------------------------------------------------------------
      1          6           0       -0.668442    0.014134    0.012428
      2          8           0        0.758687   -0.178186   -0.010517
      3          1           0       -1.233770    0.558107   -0.721001
      4          1           0       -1.031168    0.545554    0.735665
      5          1           0       -1.070354   -0.889199    0.004592
      6          1           0        1.276447    1.126223   -0.009689
 ---------------------------------------------------------------------

 SCF Done:  E(RB2PLYPD3) =  -115.434056914     A.U. after   11 cycles
 E2(B2PLYPD3) =    -0.1567201105D+00 E(B2PLYPD3) =    -0.11559077702493D+03

 The electronic state is 1-A.
 Alpha  occ. eigenvalues --  -19.76029 -10.62781  -1.11228  -0.80434  -0.55951
 Alpha  occ. eigenvalues --   -0.50109  -0.48513  -0.40335  -0.34858
 Alpha virt. eigenvalues --   -0.01532   0.07086   0.12232   0.13456   0.14933
 Alpha virt. eigenvalues --    0.17527   0.18440   0.22039   0.29542   0.32849
 Alpha virt. eigenvalues --    0.34075   0.37917   0.38438   0.41339   0.44803

 Mulliken charges:
               1
     1  C    0.092551
     2  O   -0.477505
     3  H    0.031508
     4  H    0.046584
     5  H    0.065265
     6  H    0.241597
 Sum of Mulliken charges =   0.00000

 Dipole moment (field-independent basis, Debye):
    X=             -1.0049    Y=              1.7722    Z=              0.1014  Tot=              2.0398
 Quadrupole moment (field-independent basis, Debye-Ang):
   XX=            -12.5940   YY=            -11.3312   ZZ=            -14.5364
   XY=              2.4412   XZ=             -0.0168   YZ=              0.1020

 Normal termination of Gaussian 09 at Wed Aug 26 22:20:22 2020.
