 Gaussian 09, Revision D.01,
 Gaussian 09:  ES64L-G09RevD.01 24-Apr-2013

 --------------------
 #p B2PLYPD3/Def2QZVP
 --------------------

 --------
 methanol
 --------
 Symbolic Z-matrix:
 Charge =  0 Multiplicity = 1

                         Standard orientation:
 ---------------------------------------------------------------------
 Center     Atomic      Atomic             Coordinates (Angstroms)
 Number     Number       Type             X           Y           Z
 ---------------------------------------------------------------------
      1          6           0       -0.682666   -0.014873   -0.006632
      2          8           0        0.752959    0.101443   -0.001201
      3          1           0       -1.027457   -0.524136    0.962626
      4          1           0       -0.967886   -0.581575   -0.937075
      5          1           0       -1.074268    0.997754   -0.015753
      6          1           0        1.141931   -0.614353    0.039605
 ---------------------------------------------------------------------

 SCF Done:  E(RB2PLYPD3) =  -115.522858024     A.U. after   10 cycles
 E2(B2PLYPD3) =    -0.1452802817D+00 E(B2PLYPD3) =    -0.11566813830618D+03

 The electronic state is 1-A.
 Alpha  occ. eigenvalues --  -19.70644 -10.67110  -1.18917  -0.79938  -0.59564
 Alpha  occ. eigenvalues --   -0.51715  -0.50339  -0.40758  -0.35578
 Alpha virt. eigenvalues --    0.05405   0.08778   0.11888   0.12405   0.14289
 Alpha virt. eigenvalues --    0.17019   0.17837   0.28995   0.32044   0.33053
 Alpha virt. eigenvalues --    0.37176   0.39385   0.39838   0.40146   0.43169

 Mulliken charges:
               1
     1  C    0.067446
     2  O   -0.387137
     3  H    0.048494
     4  H    0.054755
     5  H    0.082127
     6  H    0.134316
 Sum of Mulliken charges =   0.00000

 Dipole moment (field-independent basis, Debye):
    X=             -0.9411    Y=             -1.3048    Z=              0.0570  Tot=              1.6097
 Quadrupole moment (field-independent basis, Debye-Ang):
   XX=            -13.0290   YY=            -12.4690   ZZ=            -13.5412
   XY=             -2.2101   XZ=              0.0743   YZ=             -0.0099

 Normal termination of Gaussian 09 at Wed Aug 26 11:51:52 2020.
