 Gaussian 09, Revision D.01,
 Gaussian 09:  ES64L-G09RevD.01 24-Apr-2013

 --------------------
 #p B2PLYPD3/Def2QZVP
 --------------------

 --------
 methanol
 --------
 Symbolic Z-matrix:
 Charge =  0 Multiplicity = 1

                         Standard orientation:
 ---------------------------------------------------------------------
 Center     Atomic      Atomic             Coordinates (Angstroms)
 Number     Number       Type             X           Y           Z
 ---------------------------------------------------------------------
      1          6           0        0.665322    0.029793   -0.010382
      2          8           0       -0.745688   -0.146497    0.004099
      3          1           0        1.017690    0.519861    0.855241
      4          1           0        1.003731    0.516692   -0.819064
      5          1           0        1.071191   -0.953794    0.004647
      6          1           0       -1.119038    0.910459   -0.011324
 ---------------------------------------------------------------------

 SCF Done:  E(RB2PLYPD3) =  -115.524984180     A.U. after   11 cycles
 E2(B2PLYPD3) =    -0.1500324741D+00 E(B2PLYPD3) =    -0.11567501665398D+03

 The electronic state is 1-A.
 Alpha  occ. eigenvalues --  -19.73790 -10.63672  -1.13715  -0.78890  -0.57024
 Alpha  occ. eigenvalues --   -0.52775  -0.48980  -0.41099  -0.35349
 Alpha virt. eigenvalues --    0.03518   0.07914   0.12464   0.12661   0.14935
 Alpha virt. eigenvalues --    0.17423   0.18227   0.28410   0.29846   0.33535
 Alpha virt. eigenvalues --    0.34179   0.38853   0.39961   0.42471   0.44542

 Mulliken charges:
               1
     1  C    0.085674
     2  O   -0.485959
     3  H    0.043974
     4  H    0.047146
     5  H    0.061699
     6  H    0.247467
 Sum of Mulliken charges =   0.00000

 Dipole moment (field-independent basis, Debye):
    X=              1.0052    Y=              1.6705    Z=             -0.0605  Tot=              1.9505
 Quadrupole moment (field-independent basis, Debye-Ang):
   XX=            -13.2380   YY=            -11.8199   ZZ=            -13.8252
   XY=             -2.2523   XZ=             -0.0063   YZ=             -0.0704

 Normal termination of Gaussian 09 at Wed Aug 26 23:59:39 2020.
