 Gaussian 09, Revision D.01,
 Gaussian 09:  ES64L-G09RevD.01 24-Apr-2013

 --------------------
 #p B2PLYPD3/Def2QZVP
 --------------------

 --------
 methanol
 --------
 Symbolic Z-matrix:
 Charge =  0 Multiplicity = 1

                         Standard orientation:
 ---------------------------------------------------------------------
 Center     Atomic      Atomic             Coordinates (Angstroms)
 Number     Number       Type             X           Y           Z
 ---------------------------------------------------------------------
      1          6           0        0.669242   -0.016629   -0.003671
      2          8           0       -0.755735    0.128121   -0.002590
      3          1           0        1.024533   -0.580457   -0.864320
      4          1           0        1.087667   -0.498335    0.884834
      5          1           0        1.085048    0.958014   -0.023028
      6          1           0       -1.166821   -0.804413    0.045260
 ---------------------------------------------------------------------

 SCF Done:  E(RB2PLYPD3) =  -115.547490111     A.U. after   10 cycles
 E2(B2PLYPD3) =    -0.1484996393D+00 E(B2PLYPD3) =    -0.11569598974985D+03

 The electronic state is 1-A.
 Alpha  occ. eigenvalues --  -19.73198 -10.65310  -1.14648  -0.78627  -0.57771
 Alpha  occ. eigenvalues --   -0.51331  -0.49672  -0.41198  -0.35313
 Alpha virt. eigenvalues --    0.04574   0.07894   0.12467   0.12533   0.14906
 Alpha virt. eigenvalues --    0.17312   0.18256   0.29089   0.32621   0.33365
 Alpha virt. eigenvalues --    0.33717   0.38803   0.39804   0.40831   0.43829

 Mulliken charges:
               1
     1  C    0.072068
     2  O   -0.477104
     3  H    0.047598
     4  H    0.045467
     5  H    0.071686
     6  H    0.240285
 Sum of Mulliken charges =   0.00000

 Dipole moment (field-independent basis, Debye):
    X=              0.9042    Y=             -1.5367    Z=              0.0771  Tot=              1.7846
 Quadrupole moment (field-independent basis, Debye-Ang):
   XX=            -12.8916   YY=            -12.1498   ZZ=            -13.9049
   XY=              2.3398   XZ=             -0.0590   YZ=             -0.0325

 Normal termination of Gaussian 09 at Thu Aug 27 01:12:52 2020.
