 Gaussian 09, Revision D.01,
 Gaussian 09:  ES64L-G09RevD.01 24-Apr-2013

 --------------------
 #p B2PLYPD3/Def2QZVP
 --------------------

 --------
 methanol
 --------
 Symbolic Z-matrix:
 Charge =  0 Multiplicity = 1

                         Standard orientation:
 ---------------------------------------------------------------------
 Center     Atomic      Atomic             Coordinates (Angstroms)
 Number     Number       Type             X           Y           Z
 ---------------------------------------------------------------------
      1          6           0        0.681130    0.036457   -0.014197
      2          8           0       -0.736444   -0.173086    0.002423
      3          1           0        0.994664    0.472918    0.828978
      4          1           0        0.865998    0.615014   -0.753639
      5          1           0        1.148389   -0.883161   -0.047220
      6          1           0       -1.204280    0.961172    0.037681
 ---------------------------------------------------------------------

 SCF Done:  E(RB2PLYPD3) =  -115.485450223     A.U. after   11 cycles
 E2(B2PLYPD3) =    -0.1516841212D+00 E(B2PLYPD3) =    -0.11563713434388D+03

 The electronic state is 1-A.
 Alpha  occ. eigenvalues --  -19.73870 -10.62129  -1.12044  -0.79766  -0.56234
 Alpha  occ. eigenvalues --   -0.53611  -0.48879  -0.40463  -0.34946
 Alpha virt. eigenvalues --    0.02019   0.07756   0.12524   0.12938   0.14726
 Alpha virt. eigenvalues --    0.17523   0.17995   0.25839   0.29658   0.32910
 Alpha virt. eigenvalues --    0.33728   0.39869   0.40118   0.43361   0.44304

 Mulliken charges:
               1
     1  C    0.104757
     2  O   -0.506398
     3  H    0.042102
     4  H    0.047876
     5  H    0.064317
     6  H    0.247347
 Sum of Mulliken charges =   0.00000

 Dipole moment (field-independent basis, Debye):
    X=              1.0349    Y=              1.7470    Z=              0.0409  Tot=              2.0309
 Quadrupole moment (field-independent basis, Debye-Ang):
   XX=            -12.9187   YY=            -11.6553   ZZ=            -13.8421
   XY=             -2.5357   XZ=              0.0214   YZ=             -0.0316

 Normal termination of Gaussian 09 at Wed Aug 26 11:31:59 2020.
