 Gaussian 09, Revision D.01,
 Gaussian 09:  ES64L-G09RevD.01 24-Apr-2013

 --------------------
 #p B2PLYPD3/Def2QZVP
 --------------------

 --------
 methanol
 --------
 Symbolic Z-matrix:
 Charge =  0 Multiplicity = 1

                         Standard orientation:
 ---------------------------------------------------------------------
 Center     Atomic      Atomic             Coordinates (Angstroms)
 Number     Number       Type             X           Y           Z
 ---------------------------------------------------------------------
      1          6           0        0.654258   -0.009992   -0.000948
      2          8           0       -0.768083   -0.038287   -0.059766
      3          1           0        1.012586   -0.392034    1.037212
      4          1           0        1.032307    1.209418   -0.200458
      5          1           0        1.124363   -0.711593   -0.743402
      6          1           0       -0.950139    0.260453    0.390466
 ---------------------------------------------------------------------

 SCF Done:  E(RB2PLYPD3) =  -115.108797162     A.U. after   11 cycles
 E2(B2PLYPD3) =    -0.1434672130D+00 E(B2PLYPD3) =    -0.11525226437480D+03

 The electronic state is 1-A.
 Alpha  occ. eigenvalues --  -19.69249 -10.69718  -1.31732  -0.81944  -0.62551
 Alpha  occ. eigenvalues --   -0.51716  -0.50752  -0.42326  -0.36242
 Alpha virt. eigenvalues --    0.05040   0.09495   0.10855   0.12001   0.14184
 Alpha virt. eigenvalues --    0.17112   0.17737   0.27430   0.31303   0.32464
 Alpha virt. eigenvalues --    0.34508   0.36862   0.38818   0.40690   0.44670

 Mulliken charges:
               1
     1  C    0.050786
     2  O   -0.130155
     3  H    0.049341
     4  H    0.034292
     5  H    0.090246
     6  H   -0.094510
 Sum of Mulliken charges =   0.00000

 Dipole moment (field-independent basis, Debye):
    X=              1.1662    Y=              0.4230    Z=              0.9500  Tot=              1.5625
 Quadrupole moment (field-independent basis, Debye-Ang):
   XX=            -13.5947   YY=            -13.0359   ZZ=            -12.8900
   XY=             -1.2529   XZ=             -1.4113   YZ=              0.4520

 Normal termination of Gaussian 09 at Wed Aug 26 20:19:41 2020.
