 Gaussian 09, Revision D.01,
 Gaussian 09:  ES64L-G09RevD.01 24-Apr-2013

 --------------------
 #p B2PLYPD3/Def2QZVP
 --------------------

 --------
 methanol
 --------
 Symbolic Z-matrix:
 Charge =  0 Multiplicity = 1

                         Standard orientation:
 ---------------------------------------------------------------------
 Center     Atomic      Atomic             Coordinates (Angstroms)
 Number     Number       Type             X           Y           Z
 ---------------------------------------------------------------------
      1          6           0        0.686499   -0.017889    0.005972
      2          8           0       -0.759062    0.077852   -0.023397
      3          1           0        1.080743   -0.849646   -0.722199
      4          1           0        0.984929   -0.216733    1.062658
      5          1           0        1.038948    1.055814   -0.297025
      6          1           0       -1.151116   -0.504915    0.107906
 ---------------------------------------------------------------------

 SCF Done:  E(RB2PLYPD3) =  -115.436918222     A.U. after   11 cycles
 E2(B2PLYPD3) =    -0.1443954153D+00 E(B2PLYPD3) =    -0.11558131363682D+03

 The electronic state is 1-A.
 Alpha  occ. eigenvalues --  -19.69411 -10.68555  -1.22226  -0.81075  -0.60809
 Alpha  occ. eigenvalues --   -0.51320  -0.49474  -0.40461  -0.36045
 Alpha virt. eigenvalues --    0.05357   0.09058   0.11637   0.12012   0.14393
 Alpha virt. eigenvalues --    0.16574   0.17810   0.28916   0.31440   0.33047
 Alpha virt. eigenvalues --    0.36597   0.37520   0.39795   0.40433   0.42201

 Mulliken charges:
               1
     1  C    0.057379
     2  O   -0.280711
     3  H    0.053338
     4  H    0.062599
     5  H    0.082125
     6  H    0.025270
 Sum of Mulliken charges =   0.00000

 Dipole moment (field-independent basis, Debye):
    X=              0.9594    Y=             -1.1892    Z=              0.3216  Tot=              1.5614
 Quadrupole moment (field-independent basis, Debye-Ang):
   XX=            -12.9386   YY=            -12.5259   ZZ=            -13.5216
   XY=              1.8602   XZ=             -0.4498   YZ=             -0.1459

 Normal termination of Gaussian 09 at Wed Aug 26 14:43:54 2020.
