 Gaussian 09, Revision D.01,
 Gaussian 09:  ES64L-G09RevD.01 24-Apr-2013

 --------------------
 #p B2PLYPD3/Def2QZVP
 --------------------

 --------
 methanol
 --------
 Symbolic Z-matrix:
 Charge =  0 Multiplicity = 1

                         Standard orientation:
 ---------------------------------------------------------------------
 Center     Atomic      Atomic             Coordinates (Angstroms)
 Number     Number       Type             X           Y           Z
 ---------------------------------------------------------------------
      1          6           0        0.654340    0.027479    0.002280
      2          8           0       -0.737801   -0.161607    0.006421
      3          1           0        1.047236    0.558616    0.803730
      4          1           0        1.056748    0.518773   -0.801056
      5          1           0        1.101270   -0.915300   -0.021226
      6          1           0       -1.228889    0.965893   -0.046499
 ---------------------------------------------------------------------

 SCF Done:  E(RB2PLYPD3) =  -115.499423913     A.U. after   11 cycles
 E2(B2PLYPD3) =    -0.1519271116D+00 E(B2PLYPD3) =    -0.11565135102508D+03

 The electronic state is 1-A.
 Alpha  occ. eigenvalues --  -19.74663 -10.63291  -1.13142  -0.78921  -0.56230
 Alpha  occ. eigenvalues --   -0.51774  -0.49581  -0.40343  -0.35018
 Alpha virt. eigenvalues --    0.01793   0.07520   0.12585   0.13021   0.15159
 Alpha virt. eigenvalues --    0.17481   0.18381   0.25443   0.29627   0.33692
 Alpha virt. eigenvalues --    0.34952   0.38938   0.39296   0.42238   0.44275

 Mulliken charges:
               1
     1  C    0.087698
     2  O   -0.484857
     3  H    0.041656
     4  H    0.039572
     5  H    0.061523
     6  H    0.254409
 Sum of Mulliken charges =   0.00000

 Dipole moment (field-independent basis, Debye):
    X=              0.8414    Y=              1.7122    Z=             -0.1075  Tot=              1.9107
 Quadrupole moment (field-independent basis, Debye-Ang):
   XX=            -12.7194   YY=            -11.8021   ZZ=            -14.1045
   XY=             -2.4572   XZ=              0.0577   YZ=             -0.0381

 Normal termination of Gaussian 09 at Wed Aug 26 11:44:15 2020.
