 Gaussian 09, Revision D.01,
 Gaussian 09:  ES64L-G09RevD.01 24-Apr-2013

 --------------------
 #p B2PLYPD3/Def2QZVP
 --------------------

 --------
 methanol
 --------
 Symbolic Z-matrix:
 Charge =  0 Multiplicity = 1

                         Standard orientation:
 ---------------------------------------------------------------------
 Center     Atomic      Atomic             Coordinates (Angstroms)
 Number     Number       Type             X           Y           Z
 ---------------------------------------------------------------------
      1          6           0       -0.647312    0.025598   -0.013803
      2          8           0        0.723565   -0.205631    0.013076
      3          1           0       -1.060940    0.447837   -0.693254
      4          1           0       -0.920447    0.653364    0.750658
      5          1           0       -1.155456   -0.789627    0.031948
      6          1           0        1.232194    1.179892   -0.111138
 ---------------------------------------------------------------------

 SCF Done:  E(RB2PLYPD3) =  -115.390935119     A.U. after   12 cycles
 E2(B2PLYPD3) =    -0.1568548380D+00 E(B2PLYPD3) =    -0.11554778995660D+03

 The electronic state is 1-A.
 Alpha  occ. eigenvalues --  -19.75811 -10.60616  -1.12662  -0.81687  -0.55563
 Alpha  occ. eigenvalues --   -0.53038  -0.49638  -0.39102  -0.34790
 Alpha virt. eigenvalues --   -0.03278   0.07399   0.12709   0.13219   0.14812
 Alpha virt. eigenvalues --    0.17953   0.18508   0.21425   0.29961   0.32987
 Alpha virt. eigenvalues --    0.35485   0.38632   0.39144   0.43201   0.46087

 Mulliken charges:
               1
     1  C    0.105545
     2  O   -0.462034
     3  H    0.045840
     4  H    0.030849
     5  H    0.051042
     6  H    0.228758
 Sum of Mulliken charges =   0.00000

 Dipole moment (field-independent basis, Debye):
    X=             -1.0403    Y=              1.7945    Z=             -0.2685  Tot=              2.0916
 Quadrupole moment (field-independent basis, Debye-Ang):
   XX=            -12.8446   YY=            -11.2425   ZZ=            -14.1667
   XY=              2.5308   XZ=              0.0526   YZ=             -0.1718

 Normal termination of Gaussian 09 at Wed Aug 26 21:35:59 2020.
