 Gaussian 09, Revision D.01,
 Gaussian 09:  ES64L-G09RevD.01 24-Apr-2013

 --------------------
 #p B2PLYPD3/Def2QZVP
 --------------------

 --------
 methanol
 --------
 Symbolic Z-matrix:
 Charge =  0 Multiplicity = 1

                         Standard orientation:
 ---------------------------------------------------------------------
 Center     Atomic      Atomic             Coordinates (Angstroms)
 Number     Number       Type             X           Y           Z
 ---------------------------------------------------------------------
      1          6           0       -0.670971   -0.031759    0.002899
      2          8           0        0.745606    0.106566   -0.019213
      3          1           0       -0.923363   -0.470978    0.940900
      4          1           0       -1.029130   -0.613608   -0.864021
      5          1           0       -1.074629    1.058716   -0.019054
      6          1           0        1.088099   -0.636105    0.078483
 ---------------------------------------------------------------------

 SCF Done:  E(RB2PLYPD3) =  -115.525785145     A.U. after   10 cycles
 E2(B2PLYPD3) =    -0.1451980160D+00 E(B2PLYPD3) =    -0.11567098316086D+03

 The electronic state is 1-A.
 Alpha  occ. eigenvalues --  -19.70866 -10.66480  -1.19525  -0.79619  -0.60291
 Alpha  occ. eigenvalues --   -0.52867  -0.49236  -0.40991  -0.35859
 Alpha virt. eigenvalues --    0.05348   0.08922   0.11971   0.12179   0.14630
 Alpha virt. eigenvalues --    0.17052   0.17805   0.29030   0.32797   0.33195
 Alpha virt. eigenvalues --    0.36979   0.38582   0.40387   0.40928   0.43939

 Mulliken charges:
               1
     1  C    0.067441
     2  O   -0.382474
     3  H    0.054727
     4  H    0.054975
     5  H    0.066316
     6  H    0.139014
 Sum of Mulliken charges =   0.00000

 Dipole moment (field-independent basis, Debye):
    X=             -0.9405    Y=             -1.4279    Z=              0.2278  Tot=              1.7249
 Quadrupole moment (field-independent basis, Debye-Ang):
   XX=            -13.2814   YY=            -12.3307   ZZ=            -13.5232
   XY=             -2.0037   XZ=              0.2929   YZ=             -0.0862

 Normal termination of Gaussian 09 at Wed Aug 26 11:58:12 2020.
