 Gaussian 09, Revision D.01,
 Gaussian 09:  ES64L-G09RevD.01 24-Apr-2013

 --------------------
 #p B2PLYPD3/Def2QZVP
 --------------------

 --------
 methanol
 --------
 Symbolic Z-matrix:
 Charge =  0 Multiplicity = 1

                         Standard orientation:
 ---------------------------------------------------------------------
 Center     Atomic      Atomic             Coordinates (Angstroms)
 Number     Number       Type             X           Y           Z
 ---------------------------------------------------------------------
      1          6           0        0.668375    0.023028   -0.013649
      2          8           0       -0.751438   -0.196908    0.027156
      3          1           0        1.214932    0.604951    0.748387
      4          1           0        1.036686    0.504613   -0.712704
      5          1           0        1.138996   -0.822317   -0.075159
      6          1           0       -1.389354    1.149847   -0.095873
 ---------------------------------------------------------------------

 SCF Done:  E(RB2PLYPD3) =  -115.397513566     A.U. after   12 cycles
 E2(B2PLYPD3) =    -0.1585740063D+00 E(B2PLYPD3) =    -0.11555608757239D+03

 The electronic state is 1-A.
 Alpha  occ. eigenvalues --  -19.76390 -10.62345  -1.10948  -0.81361  -0.54780
 Alpha  occ. eigenvalues --   -0.49819  -0.49442  -0.39309  -0.34988
 Alpha virt. eigenvalues --   -0.03502   0.06943   0.12471   0.13474   0.14789
 Alpha virt. eigenvalues --    0.17731   0.18586   0.20874   0.29633   0.33170
 Alpha virt. eigenvalues --    0.33951   0.38072   0.39114   0.40228   0.44884

 Mulliken charges:
               1
     1  C    0.085959
     2  O   -0.472739
     3  H    0.032346
     4  H    0.056128
     5  H    0.062046
     6  H    0.236261
 Sum of Mulliken charges =   0.00000

 Dipole moment (field-independent basis, Debye):
    X=              0.9092    Y=              1.7606    Z=             -0.3685  Tot=              2.0155
 Quadrupole moment (field-independent basis, Debye-Ang):
   XX=            -12.1148   YY=            -11.5172   ZZ=            -14.4948
   XY=             -2.6939   XZ=              0.0404   YZ=             -0.1938

 Normal termination of Gaussian 09 at Wed Aug 26 22:50:26 2020.
