 Gaussian 09, Revision D.01,
 Gaussian 09:  ES64L-G09RevD.01 24-Apr-2013

 --------------------
 #p B2PLYPD3/Def2QZVP
 --------------------

 --------
 methanol
 --------
 Symbolic Z-matrix:
 Charge =  0 Multiplicity = 1

                         Standard orientation:
 ---------------------------------------------------------------------
 Center     Atomic      Atomic             Coordinates (Angstroms)
 Number     Number       Type             X           Y           Z
 ---------------------------------------------------------------------
      1          6           0        0.665950   -0.027039    0.006050
      2          8           0       -0.737489    0.138806   -0.010684
      3          1           0        1.030802   -0.590062   -0.834348
      4          1           0        0.970879   -0.482890    0.872793
      5          1           0        1.077252    0.954977   -0.027504
      6          1           0       -1.174722   -0.830236    0.038232
 ---------------------------------------------------------------------

 SCF Done:  E(RB2PLYPD3) =  -115.539635103     A.U. after   11 cycles
 E2(B2PLYPD3) =    -0.1486727696D+00 E(B2PLYPD3) =    -0.11568830787219D+03

 The electronic state is 1-A.
 Alpha  occ. eigenvalues --  -19.73137 -10.64161  -1.14451  -0.78709  -0.57640
 Alpha  occ. eigenvalues --   -0.52476  -0.49644  -0.40799  -0.35152
 Alpha virt. eigenvalues --    0.04184   0.08023   0.12530   0.12636   0.14970
 Alpha virt. eigenvalues --    0.17286   0.18117   0.29152   0.31384   0.33386
 Alpha virt. eigenvalues --    0.34263   0.39258   0.39840   0.41985   0.44414

 Mulliken charges:
               1
     1  C    0.079660
     2  O   -0.484417
     3  H    0.044158
     4  H    0.048117
     5  H    0.067221
     6  H    0.245261
 Sum of Mulliken charges =   0.00000

 Dipole moment (field-independent basis, Debye):
    X=              0.8596    Y=             -1.6010    Z=              0.1268  Tot=              1.8216
 Quadrupole moment (field-independent basis, Debye-Ang):
   XX=            -12.9491   YY=            -12.0375   ZZ=            -13.8021
   XY=              2.3569   XZ=             -0.1048   YZ=             -0.0750

 Normal termination of Gaussian 09 at Wed Aug 26 16:35:33 2020.
