 Gaussian 09, Revision D.01,
 Gaussian 09:  ES64L-G09RevD.01 24-Apr-2013

 --------------------
 #p B2PLYPD3/Def2QZVP
 --------------------

 --------
 methanol
 --------
 Symbolic Z-matrix:
 Charge =  0 Multiplicity = 1

                         Standard orientation:
 ---------------------------------------------------------------------
 Center     Atomic      Atomic             Coordinates (Angstroms)
 Number     Number       Type             X           Y           Z
 ---------------------------------------------------------------------
      1          6           0       -0.694606   -0.001583    0.005276
      2          8           0        0.772183    0.073278   -0.008314
      3          1           0       -1.094377   -0.399083    1.009496
      4          1           0       -1.001119   -0.801704   -0.842137
      5          1           0       -1.097574    1.068492   -0.215633
      6          1           0        1.183245   -0.444430    0.083131
 ---------------------------------------------------------------------

 SCF Done:  E(RB2PLYPD3) =  -115.359829032     A.U. after   11 cycles
 E2(B2PLYPD3) =    -0.1443897342D+00 E(B2PLYPD3) =    -0.11550421876643D+03

 The electronic state is 1-A.
 Alpha  occ. eigenvalues --  -19.68757 -10.69833  -1.23580  -0.81690  -0.61129
 Alpha  occ. eigenvalues --   -0.50209  -0.49974  -0.40216  -0.35886
 Alpha virt. eigenvalues --    0.05203   0.09058   0.11584   0.11739   0.14183
 Alpha virt. eigenvalues --    0.16789   0.17423   0.28690   0.30237   0.32772
 Alpha virt. eigenvalues --    0.36424   0.36759   0.38003   0.40610   0.41852

 Mulliken charges:
               1
     1  C    0.064827
     2  O   -0.252001
     3  H    0.060353
     4  H    0.049576
     5  H    0.094710
     6  H   -0.017466
 Sum of Mulliken charges =   0.00000

 Dipole moment (field-independent basis, Debye):
    X=             -1.0493    Y=             -1.0885    Z=              0.2394  Tot=              1.5308
 Quadrupole moment (field-independent basis, Debye-Ang):
   XX=            -12.6867   YY=            -12.5802   ZZ=            -13.6362
   XY=             -1.9517   XZ=              0.1905   YZ=             -0.1917

 Normal termination of Gaussian 09 at Wed Aug 26 23:12:49 2020.
