 Gaussian 09, Revision D.01,
 Gaussian 09:  ES64L-G09RevD.01 24-Apr-2013

 --------------------
 #p B2PLYPD3/Def2QZVP
 --------------------

 --------
 methanol
 --------
 Symbolic Z-matrix:
 Charge =  0 Multiplicity = 1

                         Standard orientation:
 ---------------------------------------------------------------------
 Center     Atomic      Atomic             Coordinates (Angstroms)
 Number     Number       Type             X           Y           Z
 ---------------------------------------------------------------------
      1          6           0       -0.662759   -0.007791   -0.001002
      2          8           0        0.742507   -0.043480   -0.029573
      3          1           0       -0.959750    1.189308   -0.367593
      4          1           0       -1.023244   -0.199640    1.114981
      5          1           0       -1.053570   -0.847823   -0.706023
      6          1           0        1.073063    0.252742    0.201233
 ---------------------------------------------------------------------

 SCF Done:  E(RB2PLYPD3) =  -114.764922738     A.U. after   12 cycles
 E2(B2PLYPD3) =    -0.1431418646D+00 E(B2PLYPD3) =    -0.11490806460253D+03

 The electronic state is 1-A.
 Alpha  occ. eigenvalues --  -19.68378 -10.70949  -1.33358  -0.86082  -0.62091
 Alpha  occ. eigenvalues --   -0.51808  -0.51045  -0.39849  -0.35855
 Alpha virt. eigenvalues --    0.04817   0.09977   0.10898   0.11710   0.13840
 Alpha virt. eigenvalues --    0.16547   0.17195   0.27996   0.30895   0.32516
 Alpha virt. eigenvalues --    0.35137   0.36461   0.37258   0.41394   0.42876

 Mulliken charges:
               1
     1  C    0.058333
     2  O   -0.039369
     3  H    0.036487
     4  H    0.053116
     5  H    0.099106
     6  H   -0.207672
 Sum of Mulliken charges =   0.00000

 Dipole moment (field-independent basis, Debye):
    X=             -0.8977    Y=              0.6047    Z=              0.5999  Tot=              1.2375
 Quadrupole moment (field-independent basis, Debye-Ang):
   XX=            -13.1427   YY=            -12.8152   ZZ=            -13.1015
   XY=              1.5518   XZ=              0.9618   YZ=              0.4064

 Normal termination of Gaussian 09 at Wed Aug 26 18:52:26 2020.
