 Gaussian 09, Revision D.01,
 Gaussian 09:  ES64L-G09RevD.01 24-Apr-2013

 --------------------
 #p B2PLYPD3/Def2QZVP
 --------------------

 --------
 methanol
 --------
 Symbolic Z-matrix:
 Charge =  0 Multiplicity = 1

                         Standard orientation:
 ---------------------------------------------------------------------
 Center     Atomic      Atomic             Coordinates (Angstroms)
 Number     Number       Type             X           Y           Z
 ---------------------------------------------------------------------
      1          6           0        0.673152    0.019214    0.011422
      2          8           0       -0.734776   -0.151603   -0.021250
      3          1           0        1.003626    0.322249    0.907141
      4          1           0        1.013218    0.698252   -0.787487
      5          1           0        1.020001   -0.860138   -0.137702
      6          1           0       -1.197550    0.937175    0.119516
 ---------------------------------------------------------------------

 SCF Done:  E(RB2PLYPD3) =  -115.497934142     A.U. after   11 cycles
 E2(B2PLYPD3) =    -0.1510901937D+00 E(B2PLYPD3) =    -0.11564902433541D+03

 The electronic state is 1-A.
 Alpha  occ. eigenvalues --  -19.73901 -10.62855  -1.12883  -0.79366  -0.56396
 Alpha  occ. eigenvalues --   -0.52426  -0.49766  -0.40612  -0.34976
 Alpha virt. eigenvalues --    0.02588   0.07823   0.12509   0.12926   0.14830
 Alpha virt. eigenvalues --    0.17113   0.18410   0.26812   0.29492   0.33370
 Alpha virt. eigenvalues --    0.34258   0.38306   0.41137   0.42053   0.44281

 Mulliken charges:
               1
     1  C    0.081815
     2  O   -0.495106
     3  H    0.048622
     4  H    0.040182
     5  H    0.072930
     6  H    0.251557
 Sum of Mulliken charges =   0.00000

 Dipole moment (field-independent basis, Debye):
    X=              0.9286    Y=              1.5746    Z=              0.2804  Tot=              1.8494
 Quadrupole moment (field-independent basis, Debye-Ang):
   XX=            -12.9857   YY=            -11.8412   ZZ=            -13.7482
   XY=             -2.5036   XZ=             -0.2165   YZ=              0.2000

 Normal termination of Gaussian 09 at Wed Aug 26 11:52:42 2020.
