 Gaussian 09, Revision D.01,
 Gaussian 09:  ES64L-G09RevD.01 24-Apr-2013

 --------------------
 #p B2PLYPD3/Def2QZVP
 --------------------

 --------
 methanol
 --------
 Symbolic Z-matrix:
 Charge =  0 Multiplicity = 1

                         Standard orientation:
 ---------------------------------------------------------------------
 Center     Atomic      Atomic             Coordinates (Angstroms)
 Number     Number       Type             X           Y           Z
 ---------------------------------------------------------------------
      1          6           0        0.647295   -0.011254    0.014319
      2          8           0       -0.743470    0.084290   -0.019775
      3          1           0        1.053020   -0.773120   -0.829893
      4          1           0        0.972254   -0.421370    0.992046
      5          1           0        1.141616    1.076852   -0.161716
      6          1           0       -1.102896   -0.489152    0.071846
 ---------------------------------------------------------------------

 SCF Done:  E(RB2PLYPD3) =  -115.391168608     A.U. after   11 cycles
 E2(B2PLYPD3) =    -0.1437176835D+00 E(B2PLYPD3) =    -0.11553488629202D+03

 The electronic state is 1-A.
 Alpha  occ. eigenvalues --  -19.69786 -10.68808  -1.25527  -0.81840  -0.62439
 Alpha  occ. eigenvalues --   -0.51527  -0.50438  -0.40424  -0.35751
 Alpha virt. eigenvalues --    0.05250   0.09245   0.11627   0.12021   0.14659
 Alpha virt. eigenvalues --    0.17109   0.17497   0.28660   0.32456   0.33741
 Alpha virt. eigenvalues --    0.35389   0.37172   0.40040   0.40606   0.42517

 Mulliken charges:
               1
     1  C    0.055283
     2  O   -0.225114
     3  H    0.034538
     4  H    0.053542
     5  H    0.076006
     6  H    0.005745
 Sum of Mulliken charges =   0.00000

 Dipole moment (field-independent basis, Debye):
    X=              0.7786    Y=             -1.1759    Z=              0.2969  Tot=              1.4412
 Quadrupole moment (field-independent basis, Debye-Ang):
   XX=            -13.0117   YY=            -12.5996   ZZ=            -13.6916
   XY=              1.9454   XZ=             -0.2451   YZ=             -0.2010

 Normal termination of Gaussian 09 at Wed Aug 26 16:03:35 2020.
