 Gaussian 09, Revision D.01,
 Gaussian 09:  ES64L-G09RevD.01 24-Apr-2013

 --------------------
 #p B2PLYPD3/Def2QZVP
 --------------------

 --------
 methanol
 --------
 Symbolic Z-matrix:
 Charge =  0 Multiplicity = 1

                         Standard orientation:
 ---------------------------------------------------------------------
 Center     Atomic      Atomic             Coordinates (Angstroms)
 Number     Number       Type             X           Y           Z
 ---------------------------------------------------------------------
      1          6           0        0.667657   -0.013554    0.003259
      2          8           0       -0.761862    0.099098   -0.000819
      3          1           0        1.102058   -0.565989   -0.895873
      4          1           0        1.038484   -0.529285    0.934263
      5          1           0        1.059573    1.040282   -0.026748
      6          1           0       -1.111161   -0.656468   -0.024644
 ---------------------------------------------------------------------

 SCF Done:  E(RB2PLYPD3) =  -115.530432701     A.U. after   10 cycles
 E2(B2PLYPD3) =    -0.1458167801D+00 E(B2PLYPD3) =    -0.11567624948149D+03

 The electronic state is 1-A.
 Alpha  occ. eigenvalues --  -19.71560 -10.67311  -1.19110  -0.79276  -0.60199
 Alpha  occ. eigenvalues --   -0.51041  -0.49628  -0.41425  -0.35800
 Alpha virt. eigenvalues --    0.05338   0.08544   0.12072   0.12162   0.14818
 Alpha virt. eigenvalues --    0.17072   0.18045   0.28945   0.32471   0.33421
 Alpha virt. eigenvalues --    0.37142   0.38706   0.39352   0.39792   0.42464

 Mulliken charges:
               1
     1  C    0.059806
     2  O   -0.385999
     3  H    0.047820
     4  H    0.052268
     5  H    0.074726
     6  H    0.151379
 Sum of Mulliken charges =   0.00000

 Dipole moment (field-independent basis, Debye):
    X=              0.9340    Y=             -1.3720    Z=             -0.0343  Tot=              1.6602
 Quadrupole moment (field-independent basis, Debye-Ang):
   XX=            -13.0701   YY=            -12.3749   ZZ=            -13.7746
   XY=              2.0543   XZ=              0.0094   YZ=              0.0065

 Normal termination of Gaussian 09 at Wed Aug 26 23:59:42 2020.
