 Gaussian 09, Revision D.01,
 Gaussian 09:  ES64L-G09RevD.01 24-Apr-2013

 --------------------
 #p B2PLYPD3/Def2QZVP
 --------------------

 --------
 methanol
 --------
 Symbolic Z-matrix:
 Charge =  0 Multiplicity = 1

                         Standard orientation:
 ---------------------------------------------------------------------
 Center     Atomic      Atomic             Coordinates (Angstroms)
 Number     Number       Type             X           Y           Z
 ---------------------------------------------------------------------
      1          6           0       -0.642146   -0.022686    0.015327
      2          8           0        0.738886    0.076227   -0.011776
      3          1           0       -1.031194   -0.396963    0.972339
      4          1           0       -0.931296   -0.814765   -0.841266
      5          1           0       -1.132505    1.139219   -0.221932
      6          1           0        1.036782   -0.401197    0.093106
 ---------------------------------------------------------------------

 SCF Done:  E(RB2PLYPD3) =  -115.114449552     A.U. after   11 cycles
 E2(B2PLYPD3) =    -0.1428992739D+00 E(B2PLYPD3) =    -0.11525734882615D+03

 The electronic state is 1-A.
 Alpha  occ. eigenvalues --  -19.68815 -10.69478  -1.31329  -0.83838  -0.63513
 Alpha  occ. eigenvalues --   -0.52383  -0.50113  -0.40385  -0.36214
 Alpha virt. eigenvalues --    0.04949   0.09749   0.11070   0.11865   0.14609
 Alpha virt. eigenvalues --    0.16917   0.17290   0.28173   0.31871   0.32974
 Alpha virt. eigenvalues --    0.34558   0.37436   0.40150   0.41256   0.42732

 Mulliken charges:
               1
     1  C    0.051838
     2  O   -0.113898
     3  H    0.058930
     4  H    0.039098
     5  H    0.067190
     6  H   -0.103158
 Sum of Mulliken charges =   0.00000

 Dipole moment (field-independent basis, Debye):
    X=             -0.8337    Y=             -1.1341    Z=              0.3600  Tot=              1.4529
 Quadrupole moment (field-independent basis, Debye-Ang):
   XX=            -13.2553   YY=            -12.5381   ZZ=            -13.4965
   XY=             -1.7294   XZ=              0.1296   YZ=             -0.2220

 Normal termination of Gaussian 09 at Wed Aug 26 21:30:37 2020.
