 Gaussian 09, Revision D.01,
 Gaussian 09:  ES64L-G09RevD.01 24-Apr-2013

 --------------------
 #p B2PLYPD3/Def2QZVP
 --------------------

 --------
 methanol
 --------
 Symbolic Z-matrix:
 Charge =  0 Multiplicity = 1

                         Standard orientation:
 ---------------------------------------------------------------------
 Center     Atomic      Atomic             Coordinates (Angstroms)
 Number     Number       Type             X           Y           Z
 ---------------------------------------------------------------------
      1          6           0        0.652726    0.028113   -0.013939
      2          8           0       -0.730295   -0.153345    0.008217
      3          1           0        0.981580    0.571140    0.869227
      4          1           0        1.053712    0.449950   -0.836701
      5          1           0        1.057753   -0.897867    0.051217
      6          1           0       -1.167039    0.934857   -0.065849
 ---------------------------------------------------------------------

 SCF Done:  E(RB2PLYPD3) =  -115.510680839     A.U. after   11 cycles
 E2(B2PLYPD3) =    -0.1506377660D+00 E(B2PLYPD3) =    -0.11566131860543D+03

 The electronic state is 1-A.
 Alpha  occ. eigenvalues --  -19.74125 -10.63214  -1.14026  -0.78781  -0.56763
 Alpha  occ. eigenvalues --   -0.52574  -0.49927  -0.40445  -0.35020
 Alpha virt. eigenvalues --    0.02731   0.07814   0.12608   0.12817   0.14959
 Alpha virt. eigenvalues --    0.17376   0.18521   0.27028   0.29485   0.33331
 Alpha virt. eigenvalues --    0.35322   0.38889   0.40185   0.42216   0.44633

 Mulliken charges:
               1
     1  C    0.079746
     2  O   -0.478749
     3  H    0.039058
     4  H    0.045003
     5  H    0.062039
     6  H    0.252904
 Sum of Mulliken charges =   0.00000

 Dipole moment (field-independent basis, Debye):
    X=              0.8593    Y=              1.6208    Z=             -0.1763  Tot=              1.8429
 Quadrupole moment (field-independent basis, Debye-Ang):
   XX=            -13.0415   YY=            -11.9077   ZZ=            -13.8262
   XY=             -2.4385   XZ=              0.0039   YZ=             -0.1500

 Normal termination of Gaussian 09 at Wed Aug 26 10:58:49 2020.
