 Gaussian 09, Revision D.01,
 Gaussian 09:  ES64L-G09RevD.01 24-Apr-2013

 --------------------
 #p B2PLYPD3/Def2QZVP
 --------------------

 --------
 methanol
 --------
 Symbolic Z-matrix:
 Charge =  0 Multiplicity = 1

                         Standard orientation:
 ---------------------------------------------------------------------
 Center     Atomic      Atomic             Coordinates (Angstroms)
 Number     Number       Type             X           Y           Z
 ---------------------------------------------------------------------
      1          6           0       -0.639874    0.037085    0.008814
      2          8           0        0.754669   -0.169136   -0.018043
      3          1           0       -1.048162    0.629927   -0.752716
      4          1           0       -1.028040    0.354740    0.806015
      5          1           0       -1.190556   -0.899667   -0.062694
      6          1           0        1.068654    1.045576    0.100855
 ---------------------------------------------------------------------

 SCF Done:  E(RB2PLYPD3) =  -115.472935378     A.U. after   11 cycles
 E2(B2PLYPD3) =    -0.1531551716D+00 E(B2PLYPD3) =    -0.11562609054974D+03

 The electronic state is 1-A.
 Alpha  occ. eigenvalues --  -19.75392 -10.63025  -1.13303  -0.79884  -0.55160
 Alpha  occ. eigenvalues --   -0.53105  -0.49506  -0.39819  -0.35737
 Alpha virt. eigenvalues --    0.01096   0.07399   0.12504   0.12906   0.14728
 Alpha virt. eigenvalues --    0.18179   0.18830   0.24362   0.29351   0.33833
 Alpha virt. eigenvalues --    0.34556   0.37967   0.39682   0.42068   0.44207

 Mulliken charges:
               1
     1  C    0.092323
     2  O   -0.473372
     3  H    0.038123
     4  H    0.048421
     5  H    0.041222
     6  H    0.253284
 Sum of Mulliken charges =   0.00000

 Dipole moment (field-independent basis, Debye):
    X=             -1.0901    Y=              1.7921    Z=              0.2738  Tot=              2.1154
 Quadrupole moment (field-independent basis, Debye-Ang):
   XX=            -13.3282   YY=            -11.6833   ZZ=            -14.0034
   XY=              2.1949   XZ=              0.0758   YZ=              0.1320

 Normal termination of Gaussian 09 at Wed Aug 26 18:48:48 2020.
