 Gaussian 09, Revision D.01,
 Gaussian 09:  ES64L-G09RevD.01 24-Apr-2013

 --------------------
 #p B2PLYPD3/Def2QZVP
 --------------------

 --------
 methanol
 --------
 Symbolic Z-matrix:
 Charge =  0 Multiplicity = 1

                         Standard orientation:
 ---------------------------------------------------------------------
 Center     Atomic      Atomic             Coordinates (Angstroms)
 Number     Number       Type             X           Y           Z
 ---------------------------------------------------------------------
      1          6           0        0.651561    0.015097    0.032417
      2          8           0       -0.729503   -0.146305   -0.035639
      3          1           0        0.896506    0.371216    0.890132
      4          1           0        1.088837    0.691781   -0.815578
      5          1           0        1.106990   -0.870890   -0.099433
      6          1           0       -1.165672    0.887752    0.115488
 ---------------------------------------------------------------------

 SCF Done:  E(RB2PLYPD3) =  -115.508258940     A.U. after   11 cycles
 E2(B2PLYPD3) =    -0.1497461020D+00 E(B2PLYPD3) =    -0.11565800504181D+03

 The electronic state is 1-A.
 Alpha  occ. eigenvalues --  -19.73795 -10.63512  -1.14565  -0.79024  -0.57480
 Alpha  occ. eigenvalues --   -0.52345  -0.50534  -0.40487  -0.34787
 Alpha virt. eigenvalues --    0.03257   0.07823   0.12440   0.12898   0.14850
 Alpha virt. eigenvalues --    0.17707   0.18288   0.28064   0.29600   0.32737
 Alpha virt. eigenvalues --    0.34857   0.38219   0.41012   0.41672   0.44641

 Mulliken charges:
               1
     1  C    0.081609
     2  O   -0.479031
     3  H    0.049397
     4  H    0.025763
     5  H    0.066170
     6  H    0.256092
 Sum of Mulliken charges =   0.00000

 Dipole moment (field-independent basis, Debye):
    X=              0.7935    Y=              1.5315    Z=              0.4210  Tot=              1.7755
 Quadrupole moment (field-independent basis, Debye-Ang):
   XX=            -13.0098   YY=            -12.0569   ZZ=            -13.7812
   XY=             -2.5568   XZ=             -0.2679   YZ=              0.3209

 Normal termination of Gaussian 09 at Wed Aug 26 22:08:46 2020.
