 Gaussian 09, Revision D.01,
 Gaussian 09:  ES64L-G09RevD.01 24-Apr-2013

 --------------------
 #p B2PLYPD3/Def2QZVP
 --------------------

 --------
 methanol
 --------
 Symbolic Z-matrix:
 Charge =  0 Multiplicity = 1

                         Standard orientation:
 ---------------------------------------------------------------------
 Center     Atomic      Atomic             Coordinates (Angstroms)
 Number     Number       Type             X           Y           Z
 ---------------------------------------------------------------------
      1          6           0       -0.655195   -0.017894   -0.003214
      2          8           0        0.739680    0.127890   -0.005737
      3          1           0       -1.032851   -0.466764    0.933888
      4          1           0       -0.992041   -0.622706   -0.863219
      5          1           0       -1.124552    0.930634   -0.059410
      6          1           0        1.163171   -0.756920    0.053920
 ---------------------------------------------------------------------

 SCF Done:  E(RB2PLYPD3) =  -115.550961339     A.U. after   10 cycles
 E2(B2PLYPD3) =    -0.1473539322D+00 E(B2PLYPD3) =    -0.11569831527116D+03

 The electronic state is 1-A.
 Alpha  occ. eigenvalues --  -19.72753 -10.65415  -1.16206  -0.78599  -0.58500
 Alpha  occ. eigenvalues --   -0.51836  -0.50667  -0.40567  -0.35122
 Alpha virt. eigenvalues --    0.04799   0.08130   0.12328   0.12757   0.14734
 Alpha virt. eigenvalues --    0.17543   0.18183   0.29093   0.33120   0.33786
 Alpha virt. eigenvalues --    0.34255   0.39300   0.40346   0.40917   0.43847

 Mulliken charges:
               1
     1  C    0.069182
     2  O   -0.460849
     3  H    0.042455
     4  H    0.043215
     5  H    0.071553
     6  H    0.234444
 Sum of Mulliken charges =   0.00000

 Dipole moment (field-independent basis, Debye):
    X=             -0.7780    Y=             -1.4756    Z=              0.0983  Tot=              1.6710
 Quadrupole moment (field-independent basis, Debye-Ang):
   XX=            -12.8752   YY=            -12.3352   ZZ=            -13.8048
   XY=             -2.4235   XZ=              0.1222   YZ=             -0.0475

 Normal termination of Gaussian 09 at Wed Aug 26 23:58:06 2020.
