 Gaussian 09, Revision D.01,
 Gaussian 09:  ES64L-G09RevD.01 24-Apr-2013

 --------------------
 #p B2PLYPD3/Def2QZVP
 --------------------

 --------
 methanol
 --------
 Symbolic Z-matrix:
 Charge =  0 Multiplicity = 1

                         Standard orientation:
 ---------------------------------------------------------------------
 Center     Atomic      Atomic             Coordinates (Angstroms)
 Number     Number       Type             X           Y           Z
 ---------------------------------------------------------------------
      1          6           0       -0.669190    0.000819    0.001689
      2          8           0        0.747963   -0.127920   -0.012910
      3          1           0       -1.024444    0.657923   -0.832489
      4          1           0       -0.984282    0.452079    0.926506
      5          1           0       -1.061564   -0.919239   -0.066611
      6          1           0        1.101723    0.827679    0.065738
 ---------------------------------------------------------------------

 SCF Done:  E(RB2PLYPD3) =  -115.542481855     A.U. after   10 cycles
 E2(B2PLYPD3) =    -0.1482416290D+00 E(B2PLYPD3) =    -0.11569072348365D+03

 The electronic state is 1-A.
 Alpha  occ. eigenvalues --  -19.72952 -10.64726  -1.14995  -0.78870  -0.57845
 Alpha  occ. eigenvalues --   -0.51399  -0.50665  -0.41644  -0.34945
 Alpha virt. eigenvalues --    0.04447   0.08190   0.12293   0.12684   0.14802
 Alpha virt. eigenvalues --    0.17414   0.17935   0.29214   0.32457   0.33125
 Alpha virt. eigenvalues --    0.33790   0.38811   0.40501   0.41435   0.43982

 Mulliken charges:
               1
     1  C    0.078288
     2  O   -0.475152
     3  H    0.037986
     4  H    0.043373
     5  H    0.076365
     6  H    0.239140
 Sum of Mulliken charges =   0.00000

 Dipole moment (field-independent basis, Debye):
    X=             -0.9716    Y=              1.5087    Z=              0.1686  Tot=              1.8024
 Quadrupole moment (field-independent basis, Debye-Ang):
   XX=            -13.2828   YY=            -11.9352   ZZ=            -13.8275
   XY=              2.3365   XZ=              0.1641   YZ=              0.1176

 Normal termination of Gaussian 09 at Wed Aug 26 10:48:59 2020.
