 Gaussian 09, Revision D.01,
 Gaussian 09:  ES64L-G09RevD.01 24-Apr-2013

 --------------------
 #p B2PLYPD3/Def2QZVP
 --------------------

 --------
 methanol
 --------
 Symbolic Z-matrix:
 Charge =  0 Multiplicity = 1

                         Standard orientation:
 ---------------------------------------------------------------------
 Center     Atomic      Atomic             Coordinates (Angstroms)
 Number     Number       Type             X           Y           Z
 ---------------------------------------------------------------------
      1          6           0       -0.657208   -0.034747   -0.006542
      2          8           0        0.747807    0.119602    0.001052
      3          1           0       -1.030245   -0.541636    0.905482
      4          1           0       -0.939213   -0.584268   -0.897528
      5          1           0       -1.219390    1.010274   -0.013298
      6          1           0        1.149636   -0.632707    0.036180
 ---------------------------------------------------------------------

 SCF Done:  E(RB2PLYPD3) =  -115.534089917     A.U. after   11 cycles
 E2(B2PLYPD3) =    -0.1457078316D+00 E(B2PLYPD3) =    -0.11567979774836D+03

 The electronic state is 1-A.
 Alpha  occ. eigenvalues --  -19.71550 -10.66963  -1.18890  -0.79204  -0.60306
 Alpha  occ. eigenvalues --   -0.52443  -0.49558  -0.40102  -0.35756
 Alpha virt. eigenvalues --    0.05309   0.08454   0.12212   0.12258   0.14470
 Alpha virt. eigenvalues --    0.17664   0.17933   0.28997   0.32866   0.33511
 Alpha virt. eigenvalues --    0.35453   0.38290   0.39940   0.40958   0.43853

 Mulliken charges:
               1
     1  C    0.066096
     2  O   -0.403488
     3  H    0.049276
     4  H    0.054731
     5  H    0.063316
     6  H    0.170070
 Sum of Mulliken charges =   0.00000

 Dipole moment (field-independent basis, Debye):
    X=             -0.8195    Y=             -1.4621    Z=              0.0495  Tot=              1.6769
 Quadrupole moment (field-independent basis, Debye-Ang):
   XX=            -12.8339   YY=            -12.6091   ZZ=            -13.7022
   XY=             -2.2259   XZ=              0.0218   YZ=              0.0009

 Normal termination of Gaussian 09 at Wed Aug 26 13:08:53 2020.
