 Gaussian 09, Revision D.01,
 Gaussian 09:  ES64L-G09RevD.01 24-Apr-2013

 --------------------
 #p B2PLYPD3/Def2QZVP
 --------------------

 --------
 methanol
 --------
 Symbolic Z-matrix:
 Charge =  0 Multiplicity = 1

                         Standard orientation:
 ---------------------------------------------------------------------
 Center     Atomic      Atomic             Coordinates (Angstroms)
 Number     Number       Type             X           Y           Z
 ---------------------------------------------------------------------
      1          6           0        0.665768    0.026577   -0.004425
      2          8           0       -0.739362   -0.141451    0.000640
      3          1           0        0.967313    0.542528    0.885828
      4          1           0        1.031610    0.509187   -0.860792
      5          1           0        1.090615   -0.923038    0.021407
      6          1           0       -1.169253    0.843468   -0.025008
 ---------------------------------------------------------------------

 SCF Done:  E(RB2PLYPD3) =  -115.538035319     A.U. after   11 cycles
 E2(B2PLYPD3) =    -0.1489115336D+00 E(B2PLYPD3) =    -0.11568694685226D+03

 The electronic state is 1-A.
 Alpha  occ. eigenvalues --  -19.73255 -10.64120  -1.14271  -0.78726  -0.57167
 Alpha  occ. eigenvalues --   -0.52511  -0.49933  -0.40710  -0.35150
 Alpha virt. eigenvalues --    0.04075   0.07982   0.12489   0.12743   0.14781
 Alpha virt. eigenvalues --    0.17414   0.18253   0.29043   0.30962   0.33270
 Alpha virt. eigenvalues --    0.34219   0.39324   0.40368   0.42024   0.43907

 Mulliken charges:
               1
     1  C    0.077697
     2  O   -0.485297
     3  H    0.045595
     4  H    0.047422
     5  H    0.066865
     6  H    0.247716
 Sum of Mulliken charges =   0.00000

 Dipole moment (field-independent basis, Debye):
    X=              0.8819    Y=              1.5835    Z=             -0.0576  Tot=              1.8134
 Quadrupole moment (field-independent basis, Debye-Ang):
   XX=            -12.9595   YY=            -12.0881   ZZ=            -13.7549
   XY=             -2.4277   XZ=             -0.0235   YZ=             -0.0561

 Normal termination of Gaussian 09 at Wed Aug 26 10:34:18 2020.
