 Gaussian 09, Revision D.01,
 Gaussian 09:  ES64L-G09RevD.01 24-Apr-2013

 --------------------
 #p B2PLYPD3/Def2QZVP
 --------------------

 --------
 methanol
 --------
 Symbolic Z-matrix:
 Charge =  0 Multiplicity = 1

                         Standard orientation:
 ---------------------------------------------------------------------
 Center     Atomic      Atomic             Coordinates (Angstroms)
 Number     Number       Type             X           Y           Z
 ---------------------------------------------------------------------
      1          6           0        0.660902    0.028771   -0.002141
      2          8           0       -0.743638   -0.146790   -0.008881
      3          1           0        1.002397    0.442459    0.885811
      4          1           0        1.014657    0.630232   -0.794203
      5          1           0        1.138349   -0.932245   -0.058644
      6          1           0       -1.171706    0.861248    0.050934
 ---------------------------------------------------------------------

 SCF Done:  E(RB2PLYPD3) =  -115.533752320     A.U. after   11 cycles
 E2(B2PLYPD3) =    -0.1494016161D+00 E(B2PLYPD3) =    -0.11568315393600D+03

 The electronic state is 1-A.
 Alpha  occ. eigenvalues --  -19.73622 -10.64178  -1.14066  -0.78663  -0.57042
 Alpha  occ. eigenvalues --   -0.52343  -0.49657  -0.40695  -0.35216
 Alpha virt. eigenvalues --    0.03793   0.07814   0.12534   0.12752   0.14874
 Alpha virt. eigenvalues --    0.17607   0.18251   0.28904   0.30196   0.33454
 Alpha virt. eigenvalues --    0.34159   0.39267   0.39926   0.42091   0.43866

 Mulliken charges:
               1
     1  C    0.082378
     2  O   -0.485999
     3  H    0.046051
     4  H    0.043808
     5  H    0.062903
     6  H    0.250860
 Sum of Mulliken charges =   0.00000

 Dipole moment (field-independent basis, Debye):
    X=              0.8873    Y=              1.6458    Z=              0.1205  Tot=              1.8736
 Quadrupole moment (field-independent basis, Debye-Ang):
   XX=            -12.9020   YY=            -12.0348   ZZ=            -13.8865
   XY=             -2.4074   XZ=             -0.1173   YZ=              0.0417

 Normal termination of Gaussian 09 at Thu Aug 27 00:01:08 2020.
