 Gaussian 09, Revision D.01,
 Gaussian 09:  ES64L-G09RevD.01 24-Apr-2013

 --------------------
 #p B2PLYPD3/Def2QZVP
 --------------------

 --------
 methanol
 --------
 Symbolic Z-matrix:
 Charge =  0 Multiplicity = 1

                         Standard orientation:
 ---------------------------------------------------------------------
 Center     Atomic      Atomic             Coordinates (Angstroms)
 Number     Number       Type             X           Y           Z
 ---------------------------------------------------------------------
      1          6           0        0.666636   -0.005526   -0.004818
      2          8           0       -0.762747    0.101028   -0.010601
      3          1           0        1.084137   -0.628134   -0.884202
      4          1           0        1.068651   -0.432381    0.995868
      5          1           0        1.050525    0.974098   -0.069152
      6          1           0       -1.101150   -0.688649    0.071204
 ---------------------------------------------------------------------

 SCF Done:  E(RB2PLYPD3) =  -115.537349408     A.U. after   10 cycles
 E2(B2PLYPD3) =    -0.1462783972D+00 E(B2PLYPD3) =    -0.11568362780559D+03

 The electronic state is 1-A.
 Alpha  occ. eigenvalues --  -19.71971 -10.66971  -1.18328  -0.79263  -0.59451
 Alpha  occ. eigenvalues --   -0.50838  -0.50400  -0.41560  -0.35625
 Alpha virt. eigenvalues --    0.05284   0.08398   0.11910   0.12526   0.14636
 Alpha virt. eigenvalues --    0.17170   0.18259   0.28830   0.32702   0.33161
 Alpha virt. eigenvalues --    0.36130   0.38797   0.39054   0.40611   0.43633

 Mulliken charges:
               1
     1  C    0.059956
     2  O   -0.407831
     3  H    0.047355
     4  H    0.043856
     5  H    0.080021
     6  H    0.176643
 Sum of Mulliken charges =   0.00000

 Dipole moment (field-independent basis, Debye):
    X=              0.9447    Y=             -1.3200    Z=              0.1358  Tot=              1.6289
 Quadrupole moment (field-independent basis, Debye-Ang):
   XX=            -13.1296   YY=            -12.3945   ZZ=            -13.7370
   XY=              2.1725   XZ=             -0.2334   YZ=             -0.0728

 Normal termination of Gaussian 09 at Wed Aug 26 15:30:41 2020.
