 Gaussian 09, Revision D.01,
 Gaussian 09:  ES64L-G09RevD.01 24-Apr-2013

 --------------------
 #p B2PLYPD3/Def2QZVP
 --------------------

 --------
 methanol
 --------
 Symbolic Z-matrix:
 Charge =  0 Multiplicity = 1

                         Standard orientation:
 ---------------------------------------------------------------------
 Center     Atomic      Atomic             Coordinates (Angstroms)
 Number     Number       Type             X           Y           Z
 ---------------------------------------------------------------------
      1          6           0       -0.674484   -0.004905    0.005524
      2          8           0        0.759804   -0.005856    0.066543
      3          1           0       -0.922524   -0.728725   -0.917835
      4          1           0       -0.978492    1.191949   -0.202672
      5          1           0       -1.096922   -0.428308    0.951631
      6          1           0        0.966410    0.041359   -0.396617
 ---------------------------------------------------------------------

 SCF Done:  E(RB2PLYPD3) =  -114.829903112     A.U. after   12 cycles
 E2(B2PLYPD3) =    -0.1430572272D+00 E(B2PLYPD3) =    -0.11497296033951D+03

 The electronic state is 1-A.
 Alpha  occ. eigenvalues --  -19.68462 -10.69987  -1.33834  -0.83277  -0.62055
 Alpha  occ. eigenvalues --   -0.51948  -0.51029  -0.41869  -0.36298
 Alpha virt. eigenvalues --    0.04981   0.09815   0.10808   0.11883   0.13852
 Alpha virt. eigenvalues --    0.16854   0.17076   0.27404   0.31132   0.31975
 Alpha virt. eigenvalues --    0.35144   0.36130   0.38344   0.41211   0.44746

 Mulliken charges:
               1
     1  C    0.056770
     2  O   -0.059289
     3  H    0.044418
     4  H    0.049819
     5  H    0.097294
     6  H   -0.189013
 Sum of Mulliken charges =   0.00000

 Dipole moment (field-independent basis, Debye):
    X=             -1.2164    Y=             -0.0053    Z=             -0.9915  Tot=              1.5694
 Quadrupole moment (field-independent basis, Debye-Ang):
   XX=            -13.6576   YY=            -13.1418   ZZ=            -12.4305
   XY=              0.3849   XZ=             -1.8511   YZ=             -0.1618

 Normal termination of Gaussian 09 at Wed Aug 26 21:31:29 2020.
