 Gaussian 09, Revision D.01,
 Gaussian 09:  ES64L-G09RevD.01 24-Apr-2013

 --------------------
 #p B2PLYPD3/Def2QZVP
 --------------------

 --------
 methanol
 --------
 Symbolic Z-matrix:
 Charge =  0 Multiplicity = 1

                         Standard orientation:
 ---------------------------------------------------------------------
 Center     Atomic      Atomic             Coordinates (Angstroms)
 Number     Number       Type             X           Y           Z
 ---------------------------------------------------------------------
      1          6           0        0.664782    0.018015    0.031883
      2          8           0       -0.737490   -0.189844   -0.028276
      3          1           0        0.991197    0.339528    0.778946
      4          1           0        1.148155    0.654863   -0.750324
      5          1           0        1.013005   -0.782429   -0.087304
      6          1           0       -1.241128    1.198699    0.093590
 ---------------------------------------------------------------------

 SCF Done:  E(RB2PLYPD3) =  -115.361210462     A.U. after   12 cycles
 E2(B2PLYPD3) =    -0.1576605299D+00 E(B2PLYPD3) =    -0.11551887099232D+03

 The electronic state is 1-A.
 Alpha  occ. eigenvalues --  -19.75983 -10.60734  -1.11863  -0.82104  -0.57083
 Alpha  occ. eigenvalues --   -0.51414  -0.49333  -0.39331  -0.35310
 Alpha virt. eigenvalues --   -0.03008   0.07323   0.12762   0.13050   0.14884
 Alpha virt. eigenvalues --    0.17303   0.18702   0.21305   0.29477   0.33393
 Alpha virt. eigenvalues --    0.34511   0.37178   0.40061   0.41524   0.46587

 Mulliken charges:
               1
     1  C    0.040065
     2  O   -0.468665
     3  H    0.073263
     4  H    0.034521
     5  H    0.093859
     6  H    0.226957
 Sum of Mulliken charges =   0.00000

 Dipole moment (field-independent basis, Debye):
    X=              1.0991    Y=              1.6383    Z=              0.3282  Tot=              2.0000
 Quadrupole moment (field-independent basis, Debye-Ang):
   XX=            -12.9281   YY=            -11.2738   ZZ=            -14.0140
   XY=             -2.5226   XZ=             -0.0651   YZ=              0.2624

 Normal termination of Gaussian 09 at Wed Aug 26 18:55:17 2020.
