 Gaussian 09, Revision D.01,
 Gaussian 09:  ES64L-G09RevD.01 24-Apr-2013

 --------------------
 #p B2PLYPD3/Def2QZVP
 --------------------

 --------
 methanol
 --------
 Symbolic Z-matrix:
 Charge =  0 Multiplicity = 1

                         Standard orientation:
 ---------------------------------------------------------------------
 Center     Atomic      Atomic             Coordinates (Angstroms)
 Number     Number       Type             X           Y           Z
 ---------------------------------------------------------------------
      1          6           0       -0.651682    0.046966    0.003827
      2          8           0        0.751013   -0.194197   -0.006793
      3          1           0       -1.049673    0.570980   -0.696939
      4          1           0       -1.018918    0.422797    0.744495
      5          1           0       -1.169777   -0.893244   -0.043826
      6          1           0        1.140354    1.171250    0.027653
 ---------------------------------------------------------------------

 SCF Done:  E(RB2PLYPD3) =  -115.411830774     A.U. after   11 cycles
 E2(B2PLYPD3) =    -0.1564697988D+00 E(B2PLYPD3) =    -0.11556830057286D+03

 The electronic state is 1-A.
 Alpha  occ. eigenvalues --  -19.76080 -10.61552  -1.11897  -0.81581  -0.54269
 Alpha  occ. eigenvalues --   -0.53553  -0.48978  -0.39225  -0.35863
 Alpha virt. eigenvalues --   -0.01967   0.07275   0.12378   0.13244   0.14761
 Alpha virt. eigenvalues --    0.18033   0.18543   0.21765   0.29545   0.34052
 Alpha virt. eigenvalues --    0.34262   0.37399   0.39565   0.43652   0.44327

 Mulliken charges:
               1
     1  C    0.107136
     2  O   -0.468912
     3  H    0.037098
     4  H    0.052343
     5  H    0.040258
     6  H    0.232076
 Sum of Mulliken charges =   0.00000

 Dipole moment (field-independent basis, Debye):
    X=             -1.1907    Y=              1.8787    Z=              0.0953  Tot=              2.2263
 Quadrupole moment (field-independent basis, Debye-Ang):
   XX=            -13.1860   YY=            -11.2898   ZZ=            -14.1246
   XY=              2.1725   XZ=              0.0037   YZ=              0.0359

 Normal termination of Gaussian 09 at Wed Aug 26 22:48:17 2020.
