 Gaussian 09, Revision D.01,
 Gaussian 09:  ES64L-G09RevD.01 24-Apr-2013

 --------------------
 #p B2PLYPD3/Def2QZVP
 --------------------

 --------
 methanol
 --------
 Symbolic Z-matrix:
 Charge =  0 Multiplicity = 1

                         Standard orientation:
 ---------------------------------------------------------------------
 Center     Atomic      Atomic             Coordinates (Angstroms)
 Number     Number       Type             X           Y           Z
 ---------------------------------------------------------------------
      1          6           0        0.699301    0.001333    0.035820
      2          8           0       -0.762446    0.057775   -0.023600
      3          1           0        1.105020   -0.920624   -0.745071
      4          1           0        0.917490   -0.252144    1.033970
      5          1           0        1.027103    1.104718   -0.359213
      6          1           0       -1.145851   -0.402146    0.044189
 ---------------------------------------------------------------------

 SCF Done:  E(RB2PLYPD3) =  -115.199715731     A.U. after   11 cycles
 E2(B2PLYPD3) =    -0.1439363369D+00 E(B2PLYPD3) =    -0.11534365206796D+03

 The electronic state is 1-A.
 Alpha  occ. eigenvalues --  -19.67702 -10.70047  -1.26635  -0.83206  -0.61613
 Alpha  occ. eigenvalues --   -0.51698  -0.48934  -0.39765  -0.36171
 Alpha virt. eigenvalues --    0.04972   0.09445   0.10882   0.11659   0.14188
 Alpha virt. eigenvalues --    0.16449   0.17196   0.28659   0.30176   0.31641
 Alpha virt. eigenvalues --    0.34722   0.35186   0.40833   0.41546   0.42155

 Mulliken charges:
               1
     1  C    0.062955
     2  O   -0.192219
     3  H    0.037653
     4  H    0.080902
     5  H    0.094076
     6  H   -0.083367
 Sum of Mulliken charges =   0.00000

 Dipole moment (field-independent basis, Debye):
    X=              1.0522    Y=             -0.9989    Z=              0.3363  Tot=              1.4893
 Quadrupole moment (field-independent basis, Debye-Ang):
   XX=            -13.0059   YY=            -12.5141   ZZ=            -13.3655
   XY=              1.7644   XZ=             -0.2242   YZ=             -0.2950

 Normal termination of Gaussian 09 at Wed Aug 26 22:18:04 2020.
