 Gaussian 09, Revision D.01,
 Gaussian 09:  ES64L-G09RevD.01 24-Apr-2013

 --------------------
 #p B2PLYPD3/Def2QZVP
 --------------------

 --------
 methanol
 --------
 Symbolic Z-matrix:
 Charge =  0 Multiplicity = 1

                         Standard orientation:
 ---------------------------------------------------------------------
 Center     Atomic      Atomic             Coordinates (Angstroms)
 Number     Number       Type             X           Y           Z
 ---------------------------------------------------------------------
      1          6           0        0.662752    0.043099   -0.018690
      2          8           0       -0.744094   -0.169181    0.015711
      3          1           0        0.996102    0.555661    0.837457
      4          1           0        1.006704    0.459566   -0.763359
      5          1           0        1.128487   -0.920784    0.000392
      6          1           0       -1.155052    1.000413   -0.088035
 ---------------------------------------------------------------------

 SCF Done:  E(RB2PLYPD3) =  -115.477243628     A.U. after   11 cycles
 E2(B2PLYPD3) =    -0.1524368009D+00 E(B2PLYPD3) =    -0.11562968042863D+03

 The electronic state is 1-A.
 Alpha  occ. eigenvalues --  -19.74686 -10.62688  -1.12577  -0.79852  -0.55938
 Alpha  occ. eigenvalues --   -0.53154  -0.48738  -0.40358  -0.35436
 Alpha virt. eigenvalues --    0.01649   0.07602   0.12535   0.12762   0.14843
 Alpha virt. eigenvalues --    0.17695   0.18424   0.25099   0.29464   0.33360
 Alpha virt. eigenvalues --    0.34440   0.38439   0.39731   0.42251   0.45370

 Mulliken charges:
               1
     1  C    0.087944
     2  O   -0.487038
     3  H    0.045417
     4  H    0.053630
     5  H    0.052350
     6  H    0.247697
 Sum of Mulliken charges =   0.00000

 Dipole moment (field-independent basis, Debye):
    X=              1.0352    Y=              1.7545    Z=             -0.2462  Tot=              2.0519
 Quadrupole moment (field-independent basis, Debye-Ang):
   XX=            -13.1259   YY=            -11.7161   ZZ=            -13.8623
   XY=             -2.3299   XZ=              0.0478   YZ=             -0.1832

 Normal termination of Gaussian 09 at Wed Aug 26 14:06:36 2020.
