 Gaussian 09, Revision D.01,
 Gaussian 09:  ES64L-G09RevD.01 24-Apr-2013

 --------------------
 #p B2PLYPD3/Def2QZVP
 --------------------

 --------
 methanol
 --------
 Symbolic Z-matrix:
 Charge =  0 Multiplicity = 1

                         Standard orientation:
 ---------------------------------------------------------------------
 Center     Atomic      Atomic             Coordinates (Angstroms)
 Number     Number       Type             X           Y           Z
 ---------------------------------------------------------------------
      1          6           0        0.669773    0.019378    0.006250
      2          8           0       -0.752166   -0.137071   -0.014318
      3          1           0        1.014278    0.433509    0.900154
      4          1           0        1.070353    0.635226   -0.820189
      5          1           0        1.096946   -0.932915   -0.065726
      6          1           0       -1.182889    0.844485    0.062803
 ---------------------------------------------------------------------

 SCF Done:  E(RB2PLYPD3) =  -115.537865262     A.U. after   11 cycles
 E2(B2PLYPD3) =    -0.1493230063D+00 E(B2PLYPD3) =    -0.11568718826867D+03

 The electronic state is 1-A.
 Alpha  occ. eigenvalues --  -19.73522 -10.64681  -1.13822  -0.78715  -0.57059
 Alpha  occ. eigenvalues --   -0.51510  -0.49777  -0.40981  -0.35238
 Alpha virt. eigenvalues --    0.04078   0.07781   0.12492   0.12680   0.14872
 Alpha virt. eigenvalues --    0.17387   0.18295   0.29005   0.30947   0.33445
 Alpha virt. eigenvalues --    0.33606   0.38885   0.40078   0.41159   0.43896

 Mulliken charges:
               1
     1  C    0.077149
     2  O   -0.487646
     3  H    0.049665
     4  H    0.042447
     5  H    0.069425
     6  H    0.248959
 Sum of Mulliken charges =   0.00000

 Dipole moment (field-independent basis, Debye):
    X=              0.9048    Y=              1.5724    Z=              0.1833  Tot=              1.8234
 Quadrupole moment (field-independent basis, Debye-Ang):
   XX=            -12.8568   YY=            -12.0863   ZZ=            -13.8930
   XY=             -2.4123   XZ=             -0.1517   YZ=              0.1134

 Normal termination of Gaussian 09 at Wed Aug 26 10:26:14 2020.
