 Gaussian 09, Revision D.01,
 Gaussian 09:  ES64L-G09RevD.01 24-Apr-2013

 --------------------
 #p B2PLYPD3/Def2QZVP
 --------------------

 --------
 methanol
 --------
 Symbolic Z-matrix:
 Charge =  0 Multiplicity = 1

                         Standard orientation:
 ---------------------------------------------------------------------
 Center     Atomic      Atomic             Coordinates (Angstroms)
 Number     Number       Type             X           Y           Z
 ---------------------------------------------------------------------
      1          6           0        0.680953   -0.007071   -0.011704
      2          8           0       -0.771612   -0.031246   -0.040056
      3          1           0        1.103435   -0.549658    1.007887
      4          1           0        1.045561    1.253672   -0.029553
      5          1           0        1.084839   -0.600609   -0.875882
      6          1           0       -1.146658    0.188990    0.288220
 ---------------------------------------------------------------------

 SCF Done:  E(RB2PLYPD3) =  -114.986479723     A.U. after   11 cycles
 E2(B2PLYPD3) =    -0.1441801019D+00 E(B2PLYPD3) =    -0.11513065982482D+03

 The electronic state is 1-A.
 Alpha  occ. eigenvalues --  -19.68186 -10.71741  -1.30055  -0.84307  -0.61902
 Alpha  occ. eigenvalues --   -0.51256  -0.49520  -0.39633  -0.35993
 Alpha virt. eigenvalues --    0.04704   0.09486   0.10546   0.11836   0.13619
 Alpha virt. eigenvalues --    0.16681   0.17635   0.28202   0.29856   0.31404
 Alpha virt. eigenvalues --    0.33453   0.35846   0.37355   0.41718   0.42295

 Mulliken charges:
               1
     1  C    0.057250
     2  O   -0.117660
     3  H    0.053523
     4  H    0.044499
     5  H    0.109559
     6  H   -0.147170
 Sum of Mulliken charges =   0.00000

 Dipole moment (field-independent basis, Debye):
    X=              1.0370    Y=              0.3860    Z=              0.7201  Tot=              1.3202
 Quadrupole moment (field-independent basis, Debye-Ang):
   XX=            -12.7621   YY=            -13.1405   ZZ=            -13.1090
   XY=             -1.2013   XZ=             -1.4704   YZ=              0.3793

 Normal termination of Gaussian 09 at Wed Aug 26 23:02:15 2020.
