 Gaussian 09, Revision D.01,
 Gaussian 09:  ES64L-G09RevD.01 24-Apr-2013

 --------------------
 #p B2PLYPD3/Def2QZVP
 --------------------

 --------
 methanol
 --------
 Symbolic Z-matrix:
 Charge =  0 Multiplicity = 1

                         Standard orientation:
 ---------------------------------------------------------------------
 Center     Atomic      Atomic             Coordinates (Angstroms)
 Number     Number       Type             X           Y           Z
 ---------------------------------------------------------------------
      1          6           0        0.688253    0.021531   -0.010796
      2          8           0       -0.750826   -0.148314    0.006389
      3          1           0        1.077324    0.542515    0.828832
      4          1           0        0.950016    0.583943   -0.809639
      5          1           0        1.095980   -0.941481   -0.020359
      6          1           0       -1.246229    0.872354    0.014830
 ---------------------------------------------------------------------

 SCF Done:  E(RB2PLYPD3) =  -115.521996864     A.U. after   11 cycles
 E2(B2PLYPD3) =    -0.1503870096D+00 E(B2PLYPD3) =    -0.11567238387321D+03

 The electronic state is 1-A.
 Alpha  occ. eigenvalues --  -19.73507 -10.63943  -1.12216  -0.79108  -0.56605
 Alpha  occ. eigenvalues --   -0.51787  -0.49069  -0.40883  -0.34968
 Alpha virt. eigenvalues --    0.03441   0.07663   0.12422   0.12847   0.14893
 Alpha virt. eigenvalues --    0.17291   0.17945   0.28526   0.29735   0.32745
 Alpha virt. eigenvalues --    0.33658   0.39306   0.39540   0.41748   0.44358

 Mulliken charges:
               1
     1  C    0.090672
     2  O   -0.509190
     3  H    0.044491
     4  H    0.049196
     5  H    0.073697
     6  H    0.251134
 Sum of Mulliken charges =   0.00000

 Dipole moment (field-independent basis, Debye):
    X=              0.9380    Y=              1.6568    Z=             -0.0263  Tot=              1.9041
 Quadrupole moment (field-independent basis, Debye-Ang):
   XX=            -12.6558   YY=            -11.8747   ZZ=            -13.9936
   XY=             -2.4791   XZ=              0.0359   YZ=             -0.0413

 Normal termination of Gaussian 09 at Wed Aug 26 15:04:58 2020.
