 Gaussian 09, Revision D.01,
 Gaussian 09:  ES64L-G09RevD.01 24-Apr-2013

 --------------------
 #p B2PLYPD3/Def2QZVP
 --------------------

 --------
 methanol
 --------
 Symbolic Z-matrix:
 Charge =  0 Multiplicity = 1

                         Standard orientation:
 ---------------------------------------------------------------------
 Center     Atomic      Atomic             Coordinates (Angstroms)
 Number     Number       Type             X           Y           Z
 ---------------------------------------------------------------------
      1          6           0        0.668053    0.015220    0.000545
      2          8           0       -0.747554    0.035363   -0.014727
      3          1           0        1.156276   -0.955099   -0.663312
      4          1           0        0.990268   -0.116732    1.136577
      5          1           0        0.874313    1.093074   -0.429008
      6          1           0       -1.048741   -0.395471    0.070292
 ---------------------------------------------------------------------

 SCF Done:  E(RB2PLYPD3) =  -114.941751328     A.U. after   11 cycles
 E2(B2PLYPD3) =    -0.1434154099D+00 E(B2PLYPD3) =    -0.11508516673801D+03

 The electronic state is 1-A.
 Alpha  occ. eigenvalues --  -19.68328 -10.70550  -1.32066  -0.84700  -0.61647
 Alpha  occ. eigenvalues --   -0.51135  -0.50286  -0.40762  -0.36044
 Alpha virt. eigenvalues --    0.04907   0.09507   0.11126   0.11579   0.14313
 Alpha virt. eigenvalues --    0.16117   0.17509   0.28425   0.31535   0.31890
 Alpha virt. eigenvalues --    0.34170   0.37270   0.37843   0.41373   0.42113

 Mulliken charges:
               1
     1  C    0.040692
     2  O   -0.066681
     3  H    0.038891
     4  H    0.056854
     5  H    0.096832
     6  H   -0.166588
 Sum of Mulliken charges =   0.00000

 Dipole moment (field-independent basis, Debye):
    X=              0.8993    Y=             -0.9312    Z=              0.2451  Tot=              1.3175
 Quadrupole moment (field-independent basis, Debye-Ang):
   XX=            -13.4203   YY=            -12.3597   ZZ=            -13.4244
   XY=              1.4412   XZ=             -0.3447   YZ=             -0.2672

 Normal termination of Gaussian 09 at Wed Aug 26 23:25:32 2020.
