 Gaussian 09, Revision D.01,
 Gaussian 09:  ES64L-G09RevD.01 24-Apr-2013

 --------------------
 #p B2PLYPD3/Def2QZVP
 --------------------

 --------
 methanol
 --------
 Symbolic Z-matrix:
 Charge =  0 Multiplicity = 1

                         Standard orientation:
 ---------------------------------------------------------------------
 Center     Atomic      Atomic             Coordinates (Angstroms)
 Number     Number       Type             X           Y           Z
 ---------------------------------------------------------------------
      1          6           0       -0.664815   -0.029256   -0.000231
      2          8           0        0.742603    0.139238    0.000352
      3          1           0       -1.038306   -0.505564    0.865263
      4          1           0       -1.053222   -0.542215   -0.835401
      5          1           0       -1.058593    0.961983   -0.023497
      6          1           0        1.198189   -0.852573   -0.007798
 ---------------------------------------------------------------------

 SCF Done:  E(RB2PLYPD3) =  -115.535809259     A.U. after   11 cycles
 E2(B2PLYPD3) =    -0.1494136137D+00 E(B2PLYPD3) =    -0.11568522287282D+03

 The electronic state is 1-A.
 Alpha  occ. eigenvalues --  -19.73587 -10.64308  -1.13998  -0.78607  -0.57343
 Alpha  occ. eigenvalues --   -0.52016  -0.49359  -0.40732  -0.35271
 Alpha virt. eigenvalues --    0.03917   0.07819   0.12502   0.12707   0.15090
 Alpha virt. eigenvalues --    0.17156   0.18373   0.28911   0.30580   0.33666
 Alpha virt. eigenvalues --    0.34265   0.38785   0.39586   0.41977   0.44180

 Mulliken charges:
               1
     1  C    0.074514
     2  O   -0.484456
     3  H    0.048315
     4  H    0.046961
     5  H    0.065779
     6  H    0.248886
 Sum of Mulliken charges =   0.00000

 Dipole moment (field-independent basis, Debye):
    X=             -0.8424    Y=             -1.6140    Z=             -0.0175  Tot=              1.8207
 Quadrupole moment (field-independent basis, Debye-Ang):
   XX=            -12.8228   YY=            -12.0552   ZZ=            -13.8919
   XY=             -2.3450   XZ=              0.0029   YZ=              0.0093

 Normal termination of Gaussian 09 at Thu Aug 27 00:10:42 2020.
