 Gaussian 09, Revision D.01,
 Gaussian 09:  ES64L-G09RevD.01 24-Apr-2013

 --------------------
 #p B2PLYPD3/Def2QZVP
 --------------------

 --------
 methanol
 --------
 Symbolic Z-matrix:
 Charge =  0 Multiplicity = 1

                         Standard orientation:
 ---------------------------------------------------------------------
 Center     Atomic      Atomic             Coordinates (Angstroms)
 Number     Number       Type             X           Y           Z
 ---------------------------------------------------------------------
      1          6           0        0.668735    0.050785   -0.027442
      2          8           0       -0.707435   -0.203287    0.013311
      3          1           0        0.931496    0.552897    0.796926
      4          1           0        0.966765    0.518733   -0.659408
      5          1           0        1.061417   -0.860430   -0.009924
      6          1           0       -1.312608    1.110390   -0.069428
 ---------------------------------------------------------------------

 SCF Done:  E(RB2PLYPD3) =  -115.378191835     A.U. after   12 cycles
 E2(B2PLYPD3) =    -0.1558465641D+00 E(B2PLYPD3) =    -0.11553403839947D+03

 The electronic state is 1-A.
 Alpha  occ. eigenvalues --  -19.75095 -10.60110  -1.12327  -0.81513  -0.57397
 Alpha  occ. eigenvalues --   -0.53730  -0.48678  -0.39144  -0.34913
 Alpha virt. eigenvalues --   -0.02115   0.07595   0.12497   0.13286   0.14971
 Alpha virt. eigenvalues --    0.17284   0.18132   0.21815   0.29751   0.33278
 Alpha virt. eigenvalues --    0.35471   0.38407   0.39267   0.43487   0.47577

 Mulliken charges:
               1
     1  C    0.048252
     2  O   -0.473023
     3  H    0.043694
     4  H    0.099047
     5  H    0.061919
     6  H    0.220110
 Sum of Mulliken charges =   0.00000

 Dipole moment (field-independent basis, Debye):
    X=              0.9970    Y=              1.7558    Z=             -0.1903  Tot=              2.0281
 Quadrupole moment (field-independent basis, Debye-Ang):
   XX=            -12.7266   YY=            -11.3481   ZZ=            -13.9411
   XY=             -2.4744   XZ=             -0.0070   YZ=             -0.1791

 Normal termination of Gaussian 09 at Wed Aug 26 22:12:50 2020.
