 Gaussian 09, Revision D.01,
 Gaussian 09:  ES64L-G09RevD.01 24-Apr-2013

 --------------------
 #p B2PLYPD3/Def2QZVP
 --------------------

 --------
 methanol
 --------
 Symbolic Z-matrix:
 Charge =  0 Multiplicity = 1

                         Standard orientation:
 ---------------------------------------------------------------------
 Center     Atomic      Atomic             Coordinates (Angstroms)
 Number     Number       Type             X           Y           Z
 ---------------------------------------------------------------------
      1          6           0        0.659525   -0.014916    0.008029
      2          8           0       -0.753464    0.105979   -0.009743
      3          1           0        1.058534   -0.644895   -0.858755
      4          1           0        1.013030   -0.450377    0.946428
      5          1           0        1.087550    1.012589   -0.093409
      6          1           0       -1.088549   -0.675652    0.035510
 ---------------------------------------------------------------------

 SCF Done:  E(RB2PLYPD3) =  -115.538387345     A.U. after   10 cycles
 E2(B2PLYPD3) =    -0.1457285680D+00 E(B2PLYPD3) =    -0.11568411591319D+03

 The electronic state is 1-A.
 Alpha  occ. eigenvalues --  -19.71715 -10.66687  -1.19084  -0.79210  -0.60209
 Alpha  occ. eigenvalues --   -0.51588  -0.50027  -0.41377  -0.35686
 Alpha virt. eigenvalues --    0.05304   0.08632   0.12133   0.12293   0.14799
 Alpha virt. eigenvalues --    0.17298   0.17976   0.28983   0.33056   0.33357
 Alpha virt. eigenvalues --    0.37185   0.38654   0.39469   0.40526   0.43319

 Mulliken charges:
               1
     1  C    0.064242
     2  O   -0.397161
     3  H    0.042256
     4  H    0.052231
     5  H    0.071665
     6  H    0.166768
 Sum of Mulliken charges =   0.00000

 Dipole moment (field-independent basis, Debye):
    X=              0.9182    Y=             -1.3981    Z=              0.1264  Tot=              1.6774
 Quadrupole moment (field-independent basis, Debye-Ang):
   XX=            -13.1676   YY=            -12.3382   ZZ=            -13.7319
   XY=              2.1010   XZ=             -0.1100   YZ=             -0.0979

 Normal termination of Gaussian 09 at Wed Aug 26 10:07:39 2020.
