 Gaussian 09, Revision D.01,
 Gaussian 09:  ES64L-G09RevD.01 24-Apr-2013

 --------------------
 #p B2PLYPD3/Def2QZVP
 --------------------

 --------
 methanol
 --------
 Symbolic Z-matrix:
 Charge =  0 Multiplicity = 1

                         Standard orientation:
 ---------------------------------------------------------------------
 Center     Atomic      Atomic             Coordinates (Angstroms)
 Number     Number       Type             X           Y           Z
 ---------------------------------------------------------------------
      1          6           0       -0.666019    0.023749    0.004034
      2          8           0        0.738258   -0.147861   -0.016238
      3          1           0       -1.049894    0.584249   -0.807105
      4          1           0       -0.926358    0.454727    0.867936
      5          1           0       -1.052631   -0.921565   -0.008501
      6          1           0        1.118935    0.922980    0.053370
 ---------------------------------------------------------------------

 SCF Done:  E(RB2PLYPD3) =  -115.518173599     A.U. after   11 cycles
 E2(B2PLYPD3) =    -0.1500891707D+00 E(B2PLYPD3) =    -0.11566826277017D+03

 The electronic state is 1-A.
 Alpha  occ. eigenvalues --  -19.73674 -10.63071  -1.13702  -0.79049  -0.56994
 Alpha  occ. eigenvalues --   -0.53014  -0.49358  -0.41079  -0.35137
 Alpha virt. eigenvalues --    0.03292   0.07987   0.12558   0.12706   0.14897
 Alpha virt. eigenvalues --    0.17362   0.18175   0.28127   0.29726   0.33262
 Alpha virt. eigenvalues --    0.34453   0.39372   0.40416   0.42340   0.44325

 Mulliken charges:
               1
     1  C    0.087600
     2  O   -0.487730
     3  H    0.042438
     4  H    0.044846
     5  H    0.064800
     6  H    0.248046
 Sum of Mulliken charges =   0.00000

 Dipole moment (field-independent basis, Debye):
    X=             -1.0039    Y=              1.6452    Z=              0.1669  Tot=              1.9346
 Quadrupole moment (field-independent basis, Debye-Ang):
   XX=            -13.2675   YY=            -11.7498   ZZ=            -13.7696
   XY=              2.3031   XZ=              0.1697   YZ=              0.0787

 Normal termination of Gaussian 09 at Wed Aug 26 14:10:06 2020.
