 Gaussian 09, Revision D.01,
 Gaussian 09:  ES64L-G09RevD.01 24-Apr-2013

 --------------------
 #p B2PLYPD3/Def2QZVP
 --------------------

 --------
 methanol
 --------
 Symbolic Z-matrix:
 Charge =  0 Multiplicity = 1

                         Standard orientation:
 ---------------------------------------------------------------------
 Center     Atomic      Atomic             Coordinates (Angstroms)
 Number     Number       Type             X           Y           Z
 ---------------------------------------------------------------------
      1          6           0       -0.684677   -0.001663   -0.000575
      2          8           0        0.775266    0.046944   -0.022662
      3          1           0       -1.104494   -0.079982    1.110830
      4          1           0       -0.997245   -0.977740   -0.678364
      5          1           0       -0.985802    1.035229   -0.472246
      6          1           0        0.993474   -0.343077    0.224524
 ---------------------------------------------------------------------

 SCF Done:  E(RB2PLYPD3) =  -114.836787097     A.U. after   12 cycles
 E2(B2PLYPD3) =    -0.1435104370D+00 E(B2PLYPD3) =    -0.11498029753451D+03

 The electronic state is 1-A.
 Alpha  occ. eigenvalues --  -19.68514 -10.70401  -1.33195  -0.82730  -0.61971
 Alpha  occ. eigenvalues --   -0.50984  -0.49627  -0.42156  -0.36798
 Alpha virt. eigenvalues --    0.04971   0.09434   0.11120   0.11495   0.14141
 Alpha virt. eigenvalues --    0.16541   0.17453   0.27802   0.30092   0.32687
 Alpha virt. eigenvalues --    0.34745   0.36467   0.37128   0.41177   0.43205

 Mulliken charges:
               1
     1  C    0.049104
     2  O   -0.059265
     3  H    0.057544
     4  H    0.056434
     5  H    0.090629
     6  H   -0.194445
 Sum of Mulliken charges =   0.00000

 Dipole moment (field-independent basis, Debye):
    X=             -1.2595    Y=             -0.8526    Z=              0.5991  Tot=              1.6347
 Quadrupole moment (field-independent basis, Debye-Ang):
   XX=            -13.5357   YY=            -12.5000   ZZ=            -13.0663
   XY=             -1.4619   XZ=              0.6924   YZ=             -0.3873

 Normal termination of Gaussian 09 at Wed Aug 26 21:12:11 2020.
