 Gaussian 09, Revision D.01,
 Gaussian 09:  ES64L-G09RevD.01 24-Apr-2013

 --------------------
 #p B2PLYPD3/Def2QZVP
 --------------------

 --------
 methanol
 --------
 Symbolic Z-matrix:
 Charge =  0 Multiplicity = 1

                         Standard orientation:
 ---------------------------------------------------------------------
 Center     Atomic      Atomic             Coordinates (Angstroms)
 Number     Number       Type             X           Y           Z
 ---------------------------------------------------------------------
      1          6           0        0.631221   -0.015185   -0.018272
      2          8           0       -0.727995   -0.176050    0.020216
      3          1           0        1.129777    0.580556    0.812210
      4          1           0        0.972972    0.480047   -0.805214
      5          1           0        1.047099   -0.741641   -0.006021
      6          1           0       -1.113213    1.180543   -0.053070
 ---------------------------------------------------------------------

 SCF Done:  E(RB2PLYPD3) =  -115.384008237     A.U. after   12 cycles
 E2(B2PLYPD3) =    -0.1555028087D+00 E(B2PLYPD3) =    -0.11553951104595D+03

 The electronic state is 1-A.
 Alpha  occ. eigenvalues --  -19.75770 -10.61362  -1.13984  -0.81137  -0.56869
 Alpha  occ. eigenvalues --   -0.51448  -0.50983  -0.39911  -0.34343
 Alpha virt. eigenvalues --   -0.02165   0.07426   0.12861   0.12995   0.14998
 Alpha virt. eigenvalues --    0.18155   0.18386   0.22262   0.29644   0.32646
 Alpha virt. eigenvalues --    0.35622   0.37819   0.40599   0.41762   0.44704

 Mulliken charges:
               1
     1  C    0.030750
     2  O   -0.459129
     3  H    0.020827
     4  H    0.033083
     5  H    0.126556
     6  H    0.247913
 Sum of Mulliken charges =   0.00000

 Dipole moment (field-independent basis, Debye):
    X=              0.9579    Y=              1.6536    Z=             -0.2668  Tot=              1.9295
 Quadrupole moment (field-independent basis, Debye-Ang):
   XX=            -13.3504   YY=            -11.1604   ZZ=            -14.1562
   XY=             -2.5170   XZ=             -0.0038   YZ=             -0.1979

 Normal termination of Gaussian 09 at Wed Aug 26 18:41:56 2020.
