 Gaussian 09, Revision D.01,
 Gaussian 09:  ES64L-G09RevD.01 24-Apr-2013

 --------------------
 #p B2PLYPD3/Def2QZVP
 --------------------

 --------
 methanol
 --------
 Symbolic Z-matrix:
 Charge =  0 Multiplicity = 1

                         Standard orientation:
 ---------------------------------------------------------------------
 Center     Atomic      Atomic             Coordinates (Angstroms)
 Number     Number       Type             X           Y           Z
 ---------------------------------------------------------------------
      1          6           0        0.669033   -0.016826    0.017201
      2          8           0       -0.755537    0.081593   -0.025910
      3          1           0        1.061144   -0.810675   -0.774452
      4          1           0        0.939340   -0.283385    1.025843
      5          1           0        1.064119    1.071241   -0.247716
      6          1           0       -1.034508   -0.528968    0.100400
 ---------------------------------------------------------------------

 SCF Done:  E(RB2PLYPD3) =  -115.395473465     A.U. after   11 cycles
 E2(B2PLYPD3) =    -0.1438220082D+00 E(B2PLYPD3) =    -0.11553929547338D+03

 The electronic state is 1-A.
 Alpha  occ. eigenvalues --  -19.69464 -10.68122  -1.25022  -0.80998  -0.61646
 Alpha  occ. eigenvalues --   -0.52148  -0.49573  -0.41430  -0.36299
 Alpha virt. eigenvalues --    0.05310   0.09323   0.11548   0.11952   0.14522
 Alpha virt. eigenvalues --    0.16880   0.17637   0.28609   0.32108   0.32857
 Alpha virt. eigenvalues --    0.36107   0.37280   0.40331   0.41231   0.43083

 Mulliken charges:
               1
     1  C    0.056675
     2  O   -0.244043
     3  H    0.044918
     4  H    0.062981
     5  H    0.074083
     6  H    0.005387
 Sum of Mulliken charges =   0.00000

 Dipole moment (field-independent basis, Debye):
    X=              1.0330    Y=             -1.2226    Z=              0.3538  Tot=              1.6392
 Quadrupole moment (field-independent basis, Debye-Ang):
   XX=            -13.4263   YY=            -12.4002   ZZ=            -13.4299
   XY=              1.8077   XZ=             -0.3734   YZ=             -0.2024

 Normal termination of Gaussian 09 at Wed Aug 26 15:16:00 2020.
