 Gaussian 09, Revision D.01,
 Gaussian 09:  ES64L-G09RevD.01 24-Apr-2013

 --------------------
 #p B2PLYPD3/Def2QZVP
 --------------------

 --------
 methanol
 --------
 Symbolic Z-matrix:
 Charge =  0 Multiplicity = 1

                         Standard orientation:
 ---------------------------------------------------------------------
 Center     Atomic      Atomic             Coordinates (Angstroms)
 Number     Number       Type             X           Y           Z
 ---------------------------------------------------------------------
      1          6           0        0.658135   -0.022213    0.000011
      2          8           0       -0.734509    0.113439   -0.002084
      3          1           0        1.015081   -0.555329   -0.880078
      4          1           0        0.915743   -0.588479    0.900463
      5          1           0        1.092858    1.033264    0.023900
      6          1           0       -1.096419   -0.663692   -0.027677
 ---------------------------------------------------------------------

 SCF Done:  E(RB2PLYPD3) =  -115.539167246     A.U. after   10 cycles
 E2(B2PLYPD3) =    -0.1453460359D+00 E(B2PLYPD3) =    -0.11568451328147D+03

 The electronic state is 1-A.
 Alpha  occ. eigenvalues --  -19.71298 -10.66163  -1.19239  -0.79257  -0.60441
 Alpha  occ. eigenvalues --   -0.52524  -0.49972  -0.41011  -0.35336
 Alpha virt. eigenvalues --    0.05262   0.08845   0.12120   0.12305   0.14829
 Alpha virt. eigenvalues --    0.17239   0.17603   0.29099   0.32843   0.34056
 Alpha virt. eigenvalues --    0.37561   0.38147   0.40333   0.40830   0.43906

 Mulliken charges:
               1
     1  C    0.069294
     2  O   -0.401280
     3  H    0.046290
     4  H    0.046477
     5  H    0.069304
     6  H    0.169914
 Sum of Mulliken charges =   0.00000

 Dipole moment (field-independent basis, Debye):
    X=              0.8293    Y=             -1.4491    Z=             -0.0514  Tot=              1.6704
 Quadrupole moment (field-independent basis, Debye-Ang):
   XX=            -13.2381   YY=            -12.2449   ZZ=            -13.6930
   XY=              2.1294   XZ=             -0.0385   YZ=              0.0428

 Normal termination of Gaussian 09 at Wed Aug 26 15:46:46 2020.
