 Gaussian 09, Revision D.01,
 Gaussian 09:  ES64L-G09RevD.01 24-Apr-2013

 --------------------
 #p B2PLYPD3/Def2QZVP
 --------------------

 --------
 methanol
 --------
 Symbolic Z-matrix:
 Charge =  0 Multiplicity = 1

                         Standard orientation:
 ---------------------------------------------------------------------
 Center     Atomic      Atomic             Coordinates (Angstroms)
 Number     Number       Type             X           Y           Z
 ---------------------------------------------------------------------
      1          6           0        0.648625    0.027783   -0.033027
      2          8           0       -0.757125   -0.163477    0.021552
      3          1           0        1.162932    0.543230    0.828515
      4          1           0        0.908016    0.519115   -0.785828
      5          1           0        1.232173   -0.891027   -0.004291
      6          1           0       -1.137873    0.969798   -0.012654
 ---------------------------------------------------------------------

 SCF Done:  E(RB2PLYPD3) =  -115.489048048     A.U. after   11 cycles
 E2(B2PLYPD3) =    -0.1519694572D+00 E(B2PLYPD3) =    -0.11564101750520D+03

 The electronic state is 1-A.
 Alpha  occ. eigenvalues --  -19.74935 -10.63986  -1.13353  -0.79223  -0.56318
 Alpha  occ. eigenvalues --   -0.52086  -0.49243  -0.40461  -0.35206
 Alpha virt. eigenvalues --    0.02239   0.07289   0.12582   0.12764   0.14662
 Alpha virt. eigenvalues --    0.18182   0.18769   0.25948   0.29514   0.32657
 Alpha virt. eigenvalues --    0.33933   0.37898   0.39753   0.41346   0.43240

 Mulliken charges:
               1
     1  C    0.080478
     2  O   -0.480707
     3  H    0.030142
     4  H    0.055572
     5  H    0.056050
     6  H    0.258465
 Sum of Mulliken charges =   0.00000

 Dipole moment (field-independent basis, Debye):
    X=              0.9569    Y=              1.7356    Z=             -0.2013  Tot=              1.9921
 Quadrupole moment (field-independent basis, Debye-Ang):
   XX=            -12.9937   YY=            -11.9198   ZZ=            -14.0980
   XY=             -2.4547   XZ=              0.0809   YZ=             -0.2285

 Normal termination of Gaussian 09 at Wed Aug 26 19:52:02 2020.
