 Gaussian 09, Revision D.01,
 Gaussian 09:  ES64L-G09RevD.01 24-Apr-2013

 --------------------
 #p B2PLYPD3/Def2QZVP
 --------------------

 --------
 methanol
 --------
 Symbolic Z-matrix:
 Charge =  0 Multiplicity = 1

                         Standard orientation:
 ---------------------------------------------------------------------
 Center     Atomic      Atomic             Coordinates (Angstroms)
 Number     Number       Type             X           Y           Z
 ---------------------------------------------------------------------
      1          6           0       -0.666975   -0.042412   -0.008331
      2          8           0        0.741570    0.137593    0.003327
      3          1           0       -0.920409   -0.600670    0.853199
      4          1           0       -1.001039   -0.495170   -0.845047
      5          1           0       -1.161235    1.003821    0.056733
      6          1           0        1.151976   -0.754254   -0.041520
 ---------------------------------------------------------------------

 SCF Done:  E(RB2PLYPD3) =  -115.543153254     A.U. after   11 cycles
 E2(B2PLYPD3) =    -0.1474434749D+00 E(B2PLYPD3) =    -0.11569059672898D+03

 The electronic state is 1-A.
 Alpha  occ. eigenvalues --  -19.72477 -10.64968  -1.15639  -0.78908  -0.58541
 Alpha  occ. eigenvalues --   -0.53344  -0.48931  -0.40569  -0.35485
 Alpha virt. eigenvalues --    0.04814   0.08191   0.12221   0.12540   0.14776
 Alpha virt. eigenvalues --    0.17552   0.17893   0.29221   0.32914   0.33464
 Alpha virt. eigenvalues --    0.34473   0.37244   0.40360   0.42575   0.45171

 Mulliken charges:
               1
     1  C    0.080118
     2  O   -0.470213
     3  H    0.049826
     4  H    0.053104
     5  H    0.058940
     6  H    0.228224
 Sum of Mulliken charges =   0.00000

 Dipole moment (field-independent basis, Debye):
    X=             -0.8796    Y=             -1.6323    Z=             -0.1136  Tot=              1.8577
 Quadrupole moment (field-independent basis, Debye-Ang):
   XX=            -12.9950   YY=            -12.2132   ZZ=            -13.7210
   XY=             -2.2644   XZ=              0.0122   YZ=              0.0835

 Normal termination of Gaussian 09 at Wed Aug 26 12:29:16 2020.
