 Gaussian 09, Revision D.01,
 Gaussian 09:  ES64L-G09RevD.01 24-Apr-2013

 --------------------
 #p B2PLYPD3/Def2QZVP
 --------------------

 --------
 methanol
 --------
 Symbolic Z-matrix:
 Charge =  0 Multiplicity = 1

                         Standard orientation:
 ---------------------------------------------------------------------
 Center     Atomic      Atomic             Coordinates (Angstroms)
 Number     Number       Type             X           Y           Z
 ---------------------------------------------------------------------
      1          6           0       -0.655598    0.019644    0.006838
      2          8           0        0.746461   -0.164275   -0.012633
      3          1           0       -1.042074    0.597183   -0.823778
      4          1           0       -1.028688    0.457940    0.842235
      5          1           0       -1.154686   -0.847122   -0.026014
      6          1           0        1.187346    0.988335    0.067596
 ---------------------------------------------------------------------

 SCF Done:  E(RB2PLYPD3) =  -115.494166385     A.U. after   11 cycles
 E2(B2PLYPD3) =    -0.1521860739D+00 E(B2PLYPD3) =    -0.11564635245847D+03

 The electronic state is 1-A.
 Alpha  occ. eigenvalues --  -19.74768 -10.63269  -1.12848  -0.79255  -0.55371
 Alpha  occ. eigenvalues --   -0.51775  -0.50210  -0.40318  -0.35101
 Alpha virt. eigenvalues --    0.01638   0.07492   0.12710   0.12925   0.14767
 Alpha virt. eigenvalues --    0.17996   0.18479   0.25222   0.29554   0.33454
 Alpha virt. eigenvalues --    0.34318   0.38980   0.40732   0.41668   0.43287

 Mulliken charges:
               1
     1  C    0.089380
     2  O   -0.487473
     3  H    0.037402
     4  H    0.042015
     5  H    0.060853
     6  H    0.257823
 Sum of Mulliken charges =   0.00000

 Dipole moment (field-independent basis, Debye):
    X=             -0.9336    Y=              1.6740    Z=              0.1858  Tot=              1.9257
 Quadrupole moment (field-independent basis, Debye-Ang):
   XX=            -12.8529   YY=            -11.8491   ZZ=            -13.9990
   XY=              2.5686   XZ=              0.0812   YZ=              0.1178

 Normal termination of Gaussian 09 at Wed Aug 26 10:46:46 2020.
