 Gaussian 09, Revision D.01,
 Gaussian 09:  ES64L-G09RevD.01 24-Apr-2013

 --------------------
 #p B2PLYPD3/Def2QZVP
 --------------------

 --------
 methanol
 --------
 Symbolic Z-matrix:
 Charge =  0 Multiplicity = 1

                         Standard orientation:
 ---------------------------------------------------------------------
 Center     Atomic      Atomic             Coordinates (Angstroms)
 Number     Number       Type             X           Y           Z
 ---------------------------------------------------------------------
      1          6           0       -0.670460   -0.034279   -0.008352
      2          8           0        0.730816    0.141490   -0.000056
      3          1           0       -0.995703   -0.523108    0.857215
      4          1           0       -1.142285   -0.555215   -0.756809
      5          1           0       -0.976590    1.021652   -0.008872
      6          1           0        1.290807   -0.869578   -0.040979
 ---------------------------------------------------------------------

 SCF Done:  E(RB2PLYPD3) =  -115.515461450     A.U. after   11 cycles
 E2(B2PLYPD3) =    -0.1507563570D+00 E(B2PLYPD3) =    -0.11566621780651D+03

 The electronic state is 1-A.
 Alpha  occ. eigenvalues --  -19.73870 -10.64195  -1.13296  -0.78365  -0.57581
 Alpha  occ. eigenvalues --   -0.51717  -0.48418  -0.40168  -0.34940
 Alpha virt. eigenvalues --    0.03148   0.07618   0.12021   0.13054   0.15376
 Alpha virt. eigenvalues --    0.16700   0.18380   0.28015   0.29569   0.33263
 Alpha virt. eigenvalues --    0.35012   0.37703   0.38633   0.42147   0.44383

 Mulliken charges:
               1
     1  C    0.069189
     2  O   -0.484366
     3  H    0.048391
     4  H    0.049994
     5  H    0.067266
     6  H    0.249528
 Sum of Mulliken charges =   0.00000

 Dipole moment (field-independent basis, Debye):
    X=             -0.7066    Y=             -1.6564    Z=             -0.0748  Tot=              1.8024
 Quadrupole moment (field-independent basis, Debye-Ang):
   XX=            -12.5459   YY=            -11.9558   ZZ=            -14.0976
   XY=             -2.2565   XZ=              0.0322   YZ=              0.0721

 Normal termination of Gaussian 09 at Wed Aug 26 20:28:09 2020.
