 Gaussian 09, Revision D.01,
 Gaussian 09:  ES64L-G09RevD.01 24-Apr-2013

 --------------------
 #p B2PLYPD3/Def2QZVP
 --------------------

 --------
 methanol
 --------
 Symbolic Z-matrix:
 Charge =  0 Multiplicity = 1

                         Standard orientation:
 ---------------------------------------------------------------------
 Center     Atomic      Atomic             Coordinates (Angstroms)
 Number     Number       Type             X           Y           Z
 ---------------------------------------------------------------------
      1          6           0       -0.676598    0.011546    0.004516
      2          8           0        0.735862   -0.160174   -0.015157
      3          1           0       -1.045813    0.619958   -0.810890
      4          1           0       -1.019672    0.469685    0.838205
      5          1           0       -1.025950   -0.856857   -0.012975
      6          1           0        1.264126    0.979327    0.079823
 ---------------------------------------------------------------------

 SCF Done:  E(RB2PLYPD3) =  -115.477398246     A.U. after   11 cycles
 E2(B2PLYPD3) =    -0.1524469186D+00 E(B2PLYPD3) =    -0.11562984516452D+03

 The electronic state is 1-A.
 Alpha  occ. eigenvalues --  -19.74332 -10.62562  -1.12136  -0.79638  -0.56425
 Alpha  occ. eigenvalues --   -0.51516  -0.49740  -0.40535  -0.34732
 Alpha virt. eigenvalues --    0.01430   0.07625   0.12770   0.12894   0.14953
 Alpha virt. eigenvalues --    0.17180   0.18263   0.25083   0.29555   0.33421
 Alpha virt. eigenvalues --    0.34273   0.38258   0.40970   0.41454   0.44306

 Mulliken charges:
               1
     1  C    0.083968
     2  O   -0.499773
     3  H    0.041480
     4  H    0.042785
     5  H    0.079529
     6  H    0.252012
 Sum of Mulliken charges =   0.00000

 Dipole moment (field-independent basis, Debye):
    X=             -0.8947    Y=              1.6357    Z=              0.2135  Tot=              1.8766
 Quadrupole moment (field-independent basis, Debye-Ang):
   XX=            -12.6881   YY=            -11.6894   ZZ=            -13.9840
   XY=              2.5727   XZ=              0.1147   YZ=              0.1214

 Normal termination of Gaussian 09 at Wed Aug 26 16:08:42 2020.
