 Gaussian 09, Revision D.01,
 Gaussian 09:  ES64L-G09RevD.01 24-Apr-2013

 --------------------
 #p B2PLYPD3/Def2QZVP
 --------------------

 --------
 methanol
 --------
 Symbolic Z-matrix:
 Charge =  0 Multiplicity = 1

                         Standard orientation:
 ---------------------------------------------------------------------
 Center     Atomic      Atomic             Coordinates (Angstroms)
 Number     Number       Type             X           Y           Z
 ---------------------------------------------------------------------
      1          6           0        0.658692   -0.027535    0.017783
      2          8           0       -0.757942    0.085326   -0.004481
      3          1           0        1.009342   -0.674835   -0.897551
      4          1           0        1.056169   -0.412220    0.965235
      5          1           0        1.074997    1.106856   -0.168019
      6          1           0       -1.029126   -0.537199    0.029487
 ---------------------------------------------------------------------

 SCF Done:  E(RB2PLYPD3) =  -115.388483556     A.U. after   11 cycles
 E2(B2PLYPD3) =    -0.1439888725D+00 E(B2PLYPD3) =    -0.11553247242812D+03

 The electronic state is 1-A.
 Alpha  occ. eigenvalues --  -19.69848 -10.68501  -1.25658  -0.80761  -0.62080
 Alpha  occ. eigenvalues --   -0.52185  -0.49425  -0.41013  -0.36563
 Alpha virt. eigenvalues --    0.05250   0.09253   0.11452   0.11898   0.14547
 Alpha virt. eigenvalues --    0.17030   0.17903   0.28476   0.32273   0.33155
 Alpha virt. eigenvalues --    0.35194   0.37708   0.40268   0.40655   0.42805

 Mulliken charges:
               1
     1  C    0.048012
     2  O   -0.230766
     3  H    0.047079
     4  H    0.065617
     5  H    0.064827
     6  H    0.005230
 Sum of Mulliken charges =   0.00000

 Dipole moment (field-independent basis, Debye):
    X=              0.9934    Y=             -1.2899    Z=              0.1349  Tot=              1.6336
 Quadrupole moment (field-independent basis, Debye-Ang):
   XX=            -13.3759   YY=            -12.5202   ZZ=            -13.4756
   XY=              1.7787   XZ=              0.0155   YZ=             -0.1208

 Normal termination of Gaussian 09 at Wed Aug 26 15:56:48 2020.
