 Gaussian 09, Revision D.01,
 Gaussian 09:  ES64L-G09RevD.01 24-Apr-2013

 --------------------
 #p B2PLYPD3/Def2QZVP
 --------------------

 --------
 methanol
 --------
 Symbolic Z-matrix:
 Charge =  0 Multiplicity = 1

                         Standard orientation:
 ---------------------------------------------------------------------
 Center     Atomic      Atomic             Coordinates (Angstroms)
 Number     Number       Type             X           Y           Z
 ---------------------------------------------------------------------
      1          6           0       -0.645140   -0.014866    0.010359
      2          8           0        0.731730   -0.052967   -0.046932
      3          1           0       -1.013011    1.199787   -0.253615
      4          1           0       -1.018688   -0.353637    1.018457
      5          1           0       -1.016040   -0.702841   -0.757493
      6          1           0        1.064741    0.369621    0.305956
 ---------------------------------------------------------------------

 SCF Done:  E(RB2PLYPD3) =  -115.316525819     A.U. after   11 cycles
 E2(B2PLYPD3) =    -0.1430868739D+00 E(B2PLYPD3) =    -0.11545961269259D+03

 The electronic state is 1-A.
 Alpha  occ. eigenvalues --  -19.69314 -10.68642  -1.27703  -0.83477  -0.62128
 Alpha  occ. eigenvalues --   -0.52356  -0.51552  -0.40521  -0.35556
 Alpha virt. eigenvalues --    0.05222   0.09497   0.11188   0.12351   0.14375
 Alpha virt. eigenvalues --    0.16752   0.17758   0.28264   0.31247   0.33719
 Alpha virt. eigenvalues --    0.35516   0.39183   0.40240   0.41331   0.42936

 Mulliken charges:
               1
     1  C    0.044185
     2  O   -0.179355
     3  H    0.017371
     4  H    0.055579
     5  H    0.091560
     6  H   -0.029340
 Sum of Mulliken charges =   0.00000

 Dipole moment (field-independent basis, Debye):
    X=             -0.7288    Y=              0.6501    Z=              0.7604  Tot=              1.2377
 Quadrupole moment (field-independent basis, Debye-Ang):
   XX=            -13.2729   YY=            -12.9962   ZZ=            -13.1192
   XY=              1.6653   XZ=              1.1331   YZ=              0.4441

 Normal termination of Gaussian 09 at Wed Aug 26 19:11:01 2020.
