 Gaussian 09, Revision D.01,
 Gaussian 09:  ES64L-G09RevD.01 24-Apr-2013

 --------------------
 #p B2PLYPD3/Def2QZVP
 --------------------

 --------
 methanol
 --------
 Symbolic Z-matrix:
 Charge =  0 Multiplicity = 1

                         Standard orientation:
 ---------------------------------------------------------------------
 Center     Atomic      Atomic             Coordinates (Angstroms)
 Number     Number       Type             X           Y           Z
 ---------------------------------------------------------------------
      1          6           0        0.678028   -0.027322    0.030002
      2          8           0       -0.779753    0.000939   -0.058083
      3          1           0        0.926818   -0.594549    1.000089
      4          1           0        1.269702    1.200315   -0.011639
      5          1           0        1.139645   -0.598482   -0.961572
      6          1           0       -1.166311    0.149137    0.257777
 ---------------------------------------------------------------------

 SCF Done:  E(RB2PLYPD3) =  -114.854551319     A.U. after   12 cycles
 E2(B2PLYPD3) =    -0.1449274560D+00 E(B2PLYPD3) =    -0.11499947877456D+03

 The electronic state is 1-A.
 Alpha  occ. eigenvalues --  -19.68352 -10.72764  -1.31172  -0.84476  -0.62045
 Alpha  occ. eigenvalues --   -0.51058  -0.48589  -0.39194  -0.36152
 Alpha virt. eigenvalues --    0.04338   0.09035   0.10536   0.11419   0.13563
 Alpha virt. eigenvalues --    0.16731   0.17829   0.27854   0.29487   0.30106
 Alpha virt. eigenvalues --    0.33188   0.33898   0.38096   0.41123   0.42468

 Mulliken charges:
               1
     1  C    0.059187
     2  O   -0.096106
     3  H    0.076154
     4  H    0.041781
     5  H    0.091790
     6  H   -0.172806
 Sum of Mulliken charges =   0.00000

 Dipole moment (field-independent basis, Debye):
    X=              1.0339    Y=              0.1222    Z=              0.8749  Tot=              1.3599
 Quadrupole moment (field-independent basis, Debye-Ang):
   XX=            -12.5669   YY=            -13.4781   ZZ=            -12.9472
   XY=             -0.7490   XZ=             -1.6046   YZ=              0.0971

 Normal termination of Gaussian 09 at Wed Aug 26 22:50:56 2020.
