 Gaussian 09, Revision D.01,
 Gaussian 09:  ES64L-G09RevD.01 24-Apr-2013

 --------------------
 #p B2PLYPD3/Def2QZVP
 --------------------

 --------
 methanol
 --------
 Symbolic Z-matrix:
 Charge =  0 Multiplicity = 1

                         Standard orientation:
 ---------------------------------------------------------------------
 Center     Atomic      Atomic             Coordinates (Angstroms)
 Number     Number       Type             X           Y           Z
 ---------------------------------------------------------------------
      1          6           0       -0.669139   -0.035790    0.001381
      2          8           0        0.740613    0.113150   -0.008573
      3          1           0       -0.983424   -0.481508    0.925441
      4          1           0       -1.019147   -0.589271   -0.870337
      5          1           0       -1.073523    1.041121   -0.032768
      6          1           0        1.166025   -0.660800    0.037960
 ---------------------------------------------------------------------

 SCF Done:  E(RB2PLYPD3) =  -115.544827559     A.U. after   10 cycles
 E2(B2PLYPD3) =    -0.1459538871D+00 E(B2PLYPD3) =    -0.11569078144595D+03

 The electronic state is 1-A.
 Alpha  occ. eigenvalues --  -19.71490 -10.66166  -1.17642  -0.79264  -0.59731
 Alpha  occ. eigenvalues --   -0.52616  -0.49285  -0.40348  -0.35663
 Alpha virt. eigenvalues --    0.05297   0.08573   0.12135   0.12340   0.14759
 Alpha virt. eigenvalues --    0.17008   0.18047   0.29093   0.33342   0.33473
 Alpha virt. eigenvalues --    0.37061   0.37988   0.40000   0.41415   0.43500

 Mulliken charges:
               1
     1  C    0.067307
     2  O   -0.430696
     3  H    0.055140
     4  H    0.054577
     5  H    0.066056
     6  H    0.187617
 Sum of Mulliken charges =   0.00000

 Dipole moment (field-independent basis, Debye):
    X=             -0.8073    Y=             -1.4647    Z=              0.1065  Tot=              1.6758
 Quadrupole moment (field-independent basis, Debye-Ang):
   XX=            -12.9182   YY=            -12.4238   ZZ=            -13.6225
   XY=             -2.1332   XZ=              0.1318   YZ=             -0.0357

 Normal termination of Gaussian 09 at Wed Aug 26 21:37:23 2020.
