 Gaussian 09, Revision D.01,
 Gaussian 09:  ES64L-G09RevD.01 24-Apr-2013

 --------------------
 #p B2PLYPD3/Def2QZVP
 --------------------

 --------
 methanol
 --------
 Symbolic Z-matrix:
 Charge =  0 Multiplicity = 1

                         Standard orientation:
 ---------------------------------------------------------------------
 Center     Atomic      Atomic             Coordinates (Angstroms)
 Number     Number       Type             X           Y           Z
 ---------------------------------------------------------------------
      1          6           0        0.654433    0.038132   -0.003449
      2          8           0       -0.725112   -0.153907   -0.000831
      3          1           0        0.977846    0.482529    0.881806
      4          1           0        0.951302    0.590208   -0.819080
      5          1           0        1.149976   -0.917488   -0.049682
      6          1           0       -1.204827    0.847210    0.014298
 ---------------------------------------------------------------------

 SCF Done:  E(RB2PLYPD3) =  -115.529891040     A.U. after   11 cycles
 E2(B2PLYPD3) =    -0.1491007311D+00 E(B2PLYPD3) =    -0.11567899177064D+03

 The electronic state is 1-A.
 Alpha  occ. eigenvalues --  -19.73373 -10.63709  -1.14519  -0.78467  -0.57098
 Alpha  occ. eigenvalues --   -0.53229  -0.50016  -0.39989  -0.35010
 Alpha virt. eigenvalues --    0.03628   0.07885   0.12627   0.12796   0.14825
 Alpha virt. eigenvalues --    0.17662   0.18156   0.28734   0.29874   0.33250
 Alpha virt. eigenvalues --    0.34879   0.39665   0.40186   0.42845   0.43878

 Mulliken charges:
               1
     1  C    0.081951
     2  O   -0.485422
     3  H    0.045224
     4  H    0.044376
     5  H    0.060993
     6  H    0.252879
 Sum of Mulliken charges =   0.00000

 Dipole moment (field-independent basis, Debye):
    X=              0.7646    Y=              1.6523    Z=              0.0140  Tot=              1.8207
 Quadrupole moment (field-independent basis, Debye-Ang):
   XX=            -12.7938   YY=            -12.1334   ZZ=            -13.7856
   XY=             -2.5036   XZ=             -0.0357   YZ=             -0.0137

 Normal termination of Gaussian 09 at Wed Aug 26 12:58:00 2020.
