 Gaussian 09, Revision D.01,
 Gaussian 09:  ES64L-G09RevD.01 24-Apr-2013

 --------------------
 #p B2PLYPD3/Def2QZVP
 --------------------

 --------
 methanol
 --------
 Symbolic Z-matrix:
 Charge =  0 Multiplicity = 1

                         Standard orientation:
 ---------------------------------------------------------------------
 Center     Atomic      Atomic             Coordinates (Angstroms)
 Number     Number       Type             X           Y           Z
 ---------------------------------------------------------------------
      1          6           0        0.657770   -0.013311   -0.002713
      2          8           0       -0.760007    0.048333    0.007224
      3          1           0        1.212935   -0.502672   -0.954773
      4          1           0        1.006270   -0.626164    0.984967
      5          1           0        0.998691    1.189383    0.069031
      6          1           0       -1.084458   -0.367349   -0.140736
 ---------------------------------------------------------------------

 SCF Done:  E(RB2PLYPD3) =  -115.009105467     A.U. after   11 cycles
 E2(B2PLYPD3) =    -0.1437742254D+00 E(B2PLYPD3) =    -0.11515287969247D+03

 The electronic state is 1-A.
 Alpha  occ. eigenvalues --  -19.68869 -10.70943  -1.31492  -0.84023  -0.62512
 Alpha  occ. eigenvalues --   -0.50969  -0.49518  -0.40194  -0.36422
 Alpha virt. eigenvalues --    0.04895   0.09205   0.11154   0.11538   0.14548
 Alpha virt. eigenvalues --    0.16458   0.17839   0.28646   0.31131   0.33224
 Alpha virt. eigenvalues --    0.34743   0.35215   0.37199   0.41334   0.41969

 Mulliken charges:
               1
     1  C    0.036058
     2  O   -0.086142
     3  H    0.053788
     4  H    0.057524
     5  H    0.077864
     6  H   -0.139093
 Sum of Mulliken charges =   0.00000

 Dipole moment (field-independent basis, Debye):
    X=              0.8942    Y=             -0.9997    Z=             -0.3847  Tot=              1.3954
 Quadrupole moment (field-independent basis, Debye-Ang):
   XX=            -13.0018   YY=            -12.7060   ZZ=            -13.4788
   XY=              1.4530   XZ=              0.2834   YZ=              0.1925

 Normal termination of Gaussian 09 at Wed Aug 26 22:03:46 2020.
