 Gaussian 09, Revision D.01,
 Gaussian 09:  ES64L-G09RevD.01 24-Apr-2013

 --------------------
 #p B2PLYPD3/Def2QZVP
 --------------------

 --------
 methanol
 --------
 Symbolic Z-matrix:
 Charge =  0 Multiplicity = 1

                         Standard orientation:
 ---------------------------------------------------------------------
 Center     Atomic      Atomic             Coordinates (Angstroms)
 Number     Number       Type             X           Y           Z
 ---------------------------------------------------------------------
      1          6           0        0.641067    0.022972    0.045754
      2          8           0       -0.730057   -0.171137   -0.036766
      3          1           0        0.962260    0.330885    0.810560
      4          1           0        1.154673    0.719094   -0.765128
      5          1           0        1.126557   -0.846001   -0.134465
      6          1           0       -1.249438    1.027284    0.108633
 ---------------------------------------------------------------------

 SCF Done:  E(RB2PLYPD3) =  -115.437474092     A.U. after   11 cycles
 E2(B2PLYPD3) =    -0.1536671772D+00 E(B2PLYPD3) =    -0.11559114126929D+03

 The electronic state is 1-A.
 Alpha  occ. eigenvalues --  -19.75388 -10.62800  -1.13521  -0.80015  -0.56641
 Alpha  occ. eigenvalues --   -0.51345  -0.50226  -0.39611  -0.34842
 Alpha virt. eigenvalues --    0.00059   0.07292   0.12664   0.12938   0.15067
 Alpha virt. eigenvalues --    0.17756   0.18731   0.23285   0.29477   0.32875
 Alpha virt. eigenvalues --    0.35441   0.37088   0.39773   0.41299   0.45434

 Mulliken charges:
               1
     1  C    0.065669
     2  O   -0.472382
     3  H    0.073384
     4  H    0.018663
     5  H    0.058663
     6  H    0.256003
 Sum of Mulliken charges =   0.00000

 Dipole moment (field-independent basis, Debye):
    X=              0.7426    Y=              1.6092    Z=              0.4551  Tot=              1.8298
 Quadrupole moment (field-independent basis, Debye-Ang):
   XX=            -12.7135   YY=            -11.8909   ZZ=            -14.0571
   XY=             -2.6957   XZ=             -0.1136   YZ=              0.3745

 Normal termination of Gaussian 09 at Wed Aug 26 22:55:40 2020.
