 Gaussian 09, Revision D.01,
 Gaussian 09:  ES64L-G09RevD.01 24-Apr-2013

 --------------------
 #p B2PLYPD3/Def2QZVP
 --------------------

 --------
 methanol
 --------
 Symbolic Z-matrix:
 Charge =  0 Multiplicity = 1

                         Standard orientation:
 ---------------------------------------------------------------------
 Center     Atomic      Atomic             Coordinates (Angstroms)
 Number     Number       Type             X           Y           Z
 ---------------------------------------------------------------------
      1          6           0       -0.669111    0.013762   -0.001791
      2          8           0        0.745679   -0.134295   -0.002957
      3          1           0       -1.052737    0.545634   -0.860157
      4          1           0       -1.006434    0.513847    0.896283
      5          1           0       -1.046870   -0.920076   -0.004075
      6          1           0        1.155269    0.852390    0.002348
 ---------------------------------------------------------------------

 SCF Done:  E(RB2PLYPD3) =  -115.537468648     A.U. after   11 cycles
 E2(B2PLYPD3) =    -0.1490011210D+00 E(B2PLYPD3) =    -0.11568646976923D+03

 The electronic state is 1-A.
 Alpha  occ. eigenvalues --  -19.73324 -10.64294  -1.14185  -0.78856  -0.57303
 Alpha  occ. eigenvalues --   -0.51703  -0.50136  -0.41208  -0.35098
 Alpha virt. eigenvalues --    0.04127   0.07971   0.12462   0.12737   0.14879
 Alpha virt. eigenvalues --    0.17261   0.18246   0.29043   0.31271   0.33331
 Alpha virt. eigenvalues --    0.33965   0.38816   0.40704   0.41275   0.43773

 Mulliken charges:
               1
     1  C    0.075594
     2  O   -0.484293
     3  H    0.044836
     4  H    0.044419
     5  H    0.072686
     6  H    0.246759
 Sum of Mulliken charges =   0.00000

 Dipole moment (field-independent basis, Debye):
    X=             -0.9166    Y=              1.5503    Z=              0.0094  Tot=              1.8010
 Quadrupole moment (field-independent basis, Debye-Ang):
   XX=            -13.0320   YY=            -11.9977   ZZ=            -13.8208
   XY=              2.3850   XZ=              0.0535   YZ=             -0.0076

 Normal termination of Gaussian 09 at Wed Aug 26 23:48:37 2020.
