 Gaussian 09, Revision D.01,
 Gaussian 09:  ES64L-G09RevD.01 24-Apr-2013

 --------------------
 #p B2PLYPD3/Def2QZVP
 --------------------

 --------
 methanol
 --------
 Symbolic Z-matrix:
 Charge =  0 Multiplicity = 1

                         Standard orientation:
 ---------------------------------------------------------------------
 Center     Atomic      Atomic             Coordinates (Angstroms)
 Number     Number       Type             X           Y           Z
 ---------------------------------------------------------------------
      1          6           0        0.666380    0.032105   -0.007514
      2          8           0       -0.747375   -0.146270    0.003456
      3          1           0        1.055489    0.525842    0.853704
      4          1           0        1.055953    0.522909   -0.822532
      5          1           0        1.085383   -0.954475    0.000644
      6          1           0       -1.216101    0.883257   -0.014377
 ---------------------------------------------------------------------

 SCF Done:  E(RB2PLYPD3) =  -115.526161755     A.U. after   11 cycles
 E2(B2PLYPD3) =    -0.1503246579D+00 E(B2PLYPD3) =    -0.11567648641292D+03

 The electronic state is 1-A.
 Alpha  occ. eigenvalues --  -19.73982 -10.64223  -1.13302  -0.78684  -0.56748
 Alpha  occ. eigenvalues --   -0.51846  -0.49153  -0.40640  -0.35309
 Alpha virt. eigenvalues --    0.03431   0.07634   0.12492   0.12775   0.15053
 Alpha virt. eigenvalues --    0.17259   0.18441   0.28253   0.29753   0.33707
 Alpha virt. eigenvalues --    0.34058   0.38641   0.39511   0.41914   0.44272

 Mulliken charges:
               1
     1  C    0.077663
     2  O   -0.489113
     3  H    0.046246
     4  H    0.049482
     5  H    0.063385
     6  H    0.252336
 Sum of Mulliken charges =   0.00000

 Dipole moment (field-independent basis, Debye):
    X=              0.8636    Y=              1.6511    Z=             -0.0588  Tot=              1.8642
 Quadrupole moment (field-independent basis, Debye-Ang):
   XX=            -12.7381   YY=            -12.0279   ZZ=            -13.9600
   XY=             -2.3897   XZ=             -0.0021   YZ=             -0.0566

 Normal termination of Gaussian 09 at Wed Aug 26 10:01:27 2020.
