 Gaussian 09, Revision D.01,
 Gaussian 09:  ES64L-G09RevD.01 24-Apr-2013

 --------------------
 #p B2PLYPD3/Def2QZVP
 --------------------

 --------
 methanol
 --------
 Symbolic Z-matrix:
 Charge =  0 Multiplicity = 1

                         Standard orientation:
 ---------------------------------------------------------------------
 Center     Atomic      Atomic             Coordinates (Angstroms)
 Number     Number       Type             X           Y           Z
 ---------------------------------------------------------------------
      1          6           0        0.678443   -0.009911    0.010173
      2          8           0       -0.779241   -0.017213   -0.053317
      3          1           0        1.076821   -0.511289    0.990093
      4          1           0        1.060914    1.213391   -0.098894
      5          1           0        1.055739   -0.634666   -0.899641
      6          1           0       -1.030203    0.129734    0.373940
 ---------------------------------------------------------------------

 SCF Done:  E(RB2PLYPD3) =  -114.866388354     A.U. after   11 cycles
 E2(B2PLYPD3) =    -0.1436754919D+00 E(B2PLYPD3) =    -0.11501006384610D+03

 The electronic state is 1-A.
 Alpha  occ. eigenvalues --  -19.68728 -10.70758  -1.32796  -0.83019  -0.62319
 Alpha  occ. eigenvalues --   -0.50436  -0.50077  -0.41806  -0.36599
 Alpha virt. eigenvalues --    0.04895   0.09479   0.10837   0.11620   0.14056
 Alpha virt. eigenvalues --    0.16739   0.17645   0.27950   0.30284   0.32001
 Alpha virt. eigenvalues --    0.34396   0.36081   0.37467   0.41011   0.43381

 Mulliken charges:
               1
     1  C    0.049065
     2  O   -0.069486
     3  H    0.061025
     4  H    0.049951
     5  H    0.091311
     6  H   -0.181865
 Sum of Mulliken charges =   0.00000

 Dipole moment (field-independent basis, Debye):
    X=              1.2117    Y=              0.1840    Z=              1.0198  Tot=              1.5944
 Quadrupole moment (field-independent basis, Debye-Ang):
   XX=            -13.2761   YY=            -13.1930   ZZ=            -12.6361
   XY=             -0.8068   XZ=             -1.5241   YZ=              0.2456

 Normal termination of Gaussian 09 at Wed Aug 26 21:30:07 2020.
