 Gaussian 09, Revision D.01,
 Gaussian 09:  ES64L-G09RevD.01 24-Apr-2013

 --------------------
 #p B2PLYPD3/Def2QZVP
 --------------------

 --------
 methanol
 --------
 Symbolic Z-matrix:
 Charge =  0 Multiplicity = 1

                         Standard orientation:
 ---------------------------------------------------------------------
 Center     Atomic      Atomic             Coordinates (Angstroms)
 Number     Number       Type             X           Y           Z
 ---------------------------------------------------------------------
      1          6           0       -0.703898    0.038576   -0.010363
      2          8           0        0.745508   -0.181031   -0.010088
      3          1           0       -1.112976    0.454601   -0.778185
      4          1           0       -0.854464    0.594895    0.797580
      5          1           0       -1.079591   -0.854308    0.138108
      6          1           0        1.306349    1.021605   -0.014621
 ---------------------------------------------------------------------

 SCF Done:  E(RB2PLYPD3) =  -115.453210766     A.U. after   12 cycles
 E2(B2PLYPD3) =    -0.1543519383D+00 E(B2PLYPD3) =    -0.11560756270398D+03

 The electronic state is 1-A.
 Alpha  occ. eigenvalues --  -19.74481 -10.61826  -1.10302  -0.80457  -0.55289
 Alpha  occ. eigenvalues --   -0.53582  -0.48005  -0.39885  -0.35105
 Alpha virt. eigenvalues --    0.00396   0.07527   0.12572   0.12941   0.14499
 Alpha virt. eigenvalues --    0.17126   0.18303   0.23733   0.29213   0.31927
 Alpha virt. eigenvalues --    0.34101   0.39069   0.40064   0.43312   0.44981

 Mulliken charges:
               1
     1  C    0.101861
     2  O   -0.508932
     3  H    0.050987
     4  H    0.048263
     5  H    0.066723
     6  H    0.241098
 Sum of Mulliken charges =   0.00000

 Dipole moment (field-independent basis, Debye):
    X=             -1.0808    Y=              1.7160    Z=              0.0194  Tot=              2.0280
 Quadrupole moment (field-independent basis, Debye-Ang):
   XX=            -12.5696   YY=            -11.6723   ZZ=            -13.8710
   XY=              2.6091   XZ=              0.1745   YZ=             -0.0674

 Normal termination of Gaussian 09 at Wed Aug 26 23:18:36 2020.
