 Gaussian 09, Revision D.01,
 Gaussian 09:  ES64L-G09RevD.01 24-Apr-2013

 --------------------
 #p B2PLYPD3/Def2QZVP
 --------------------

 --------
 methanol
 --------
 Symbolic Z-matrix:
 Charge =  0 Multiplicity = 1

                         Standard orientation:
 ---------------------------------------------------------------------
 Center     Atomic      Atomic             Coordinates (Angstroms)
 Number     Number       Type             X           Y           Z
 ---------------------------------------------------------------------
      1          6           0        0.699031    0.033683    0.010550
      2          8           0       -0.729440   -0.178150   -0.006019
      3          1           0        1.065579    0.377086    0.766996
      4          1           0        0.855617    0.728534   -0.725285
      5          1           0        1.018338   -0.886458   -0.151051
      6          1           0       -1.298200    1.003940    0.094190
 ---------------------------------------------------------------------

 SCF Done:  E(RB2PLYPD3) =  -115.443217626     A.U. after   12 cycles
 E2(B2PLYPD3) =    -0.1537982302D+00 E(B2PLYPD3) =    -0.11559701585634D+03

 The electronic state is 1-A.
 Alpha  occ. eigenvalues --  -19.74226 -10.61483  -1.11087  -0.80518  -0.56854
 Alpha  occ. eigenvalues --   -0.53547  -0.47747  -0.40070  -0.34790
 Alpha virt. eigenvalues --    0.00590   0.07698   0.12379   0.13054   0.14785
 Alpha virt. eigenvalues --    0.16928   0.17981   0.24046   0.29453   0.32262
 Alpha virt. eigenvalues --    0.34335   0.38098   0.39791   0.43633   0.46526

 Mulliken charges:
               1
     1  C    0.090778
     2  O   -0.502919
     3  H    0.057157
     4  H    0.043807
     5  H    0.073519
     6  H    0.237658
 Sum of Mulliken charges =   0.00000

 Dipole moment (field-independent basis, Debye):
    X=              1.0125    Y=              1.7057    Z=              0.2055  Tot=              1.9942
 Quadrupole moment (field-independent basis, Debye-Ang):
   XX=            -12.6905   YY=            -11.5006   ZZ=            -13.9509
   XY=             -2.5322   XZ=              0.0722   YZ=              0.1655

 Normal termination of Gaussian 09 at Wed Aug 26 22:29:43 2020.
