 Gaussian 09, Revision D.01,
 Gaussian 09:  ES64L-G09RevD.01 24-Apr-2013

 --------------------
 #p B2PLYPD3/Def2QZVP
 --------------------

 --------
 methanol
 --------
 Symbolic Z-matrix:
 Charge =  0 Multiplicity = 1

                         Standard orientation:
 ---------------------------------------------------------------------
 Center     Atomic      Atomic             Coordinates (Angstroms)
 Number     Number       Type             X           Y           Z
 ---------------------------------------------------------------------
      1          6           0        0.647632    0.003455    0.010257
      2          8           0       -0.742189    0.081216   -0.017436
      3          1           0        1.045482   -0.843669   -0.787780
      4          1           0        1.045927   -0.306463    1.048417
      5          1           0        1.086447    0.999534   -0.281153
      6          1           0       -1.126137   -0.519857    0.098462
 ---------------------------------------------------------------------

 SCF Done:  E(RB2PLYPD3) =  -115.445229186     A.U. after   11 cycles
 E2(B2PLYPD3) =    -0.1441229660D+00 E(B2PLYPD3) =    -0.11558935215232D+03

 The electronic state is 1-A.
 Alpha  occ. eigenvalues --  -19.70331 -10.68637  -1.23838  -0.81460  -0.61742
 Alpha  occ. eigenvalues --   -0.51485  -0.50806  -0.40450  -0.35384
 Alpha virt. eigenvalues --    0.05321   0.09048   0.11717   0.12181   0.14632
 Alpha virt. eigenvalues --    0.17066   0.17700   0.28708   0.32255   0.33828
 Alpha virt. eigenvalues --    0.36182   0.38300   0.39022   0.40631   0.42266

 Mulliken charges:
               1
     1  C    0.051887
     2  O   -0.256118
     3  H    0.027373
     4  H    0.047939
     5  H    0.086495
     6  H    0.042425
 Sum of Mulliken charges =   0.00000

 Dipole moment (field-independent basis, Debye):
    X=              0.7116    Y=             -1.0971    Z=              0.2899  Tot=              1.3394
 Quadrupole moment (field-independent basis, Debye-Ang):
   XX=            -12.9532   YY=            -12.6830   ZZ=            -13.7125
   XY=              2.0586   XZ=             -0.3139   YZ=             -0.2754

 Normal termination of Gaussian 09 at Wed Aug 26 13:18:55 2020.
