 Gaussian 09, Revision D.01,
 Gaussian 09:  ES64L-G09RevD.01 24-Apr-2013

 --------------------
 #p B2PLYPD3/Def2QZVP
 --------------------

 --------
 methanol
 --------
 Symbolic Z-matrix:
 Charge =  0 Multiplicity = 1

                         Standard orientation:
 ---------------------------------------------------------------------
 Center     Atomic      Atomic             Coordinates (Angstroms)
 Number     Number       Type             X           Y           Z
 ---------------------------------------------------------------------
      1          6           0        0.658797    0.020255   -0.009726
      2          8           0       -0.745827   -0.163319   -0.000195
      3          1           0        0.977877    0.507996    0.876946
      4          1           0        1.068624    0.539608   -0.788108
      5          1           0        1.131769   -0.857028   -0.005116
      6          1           0       -1.164434    0.994447   -0.023805
 ---------------------------------------------------------------------

 SCF Done:  E(RB2PLYPD3) =  -115.495394272     A.U. after   11 cycles
 E2(B2PLYPD3) =    -0.1520682911D+00 E(B2PLYPD3) =    -0.11564746256294D+03

 The electronic state is 1-A.
 Alpha  occ. eigenvalues --  -19.74641 -10.63072  -1.12820  -0.79287  -0.55627
 Alpha  occ. eigenvalues --   -0.52063  -0.49930  -0.40564  -0.35056
 Alpha virt. eigenvalues --    0.01771   0.07586   0.12655   0.12909   0.14743
 Alpha virt. eigenvalues --    0.17911   0.18406   0.25429   0.29585   0.33176
 Alpha virt. eigenvalues --    0.34537   0.39091   0.40523   0.42007   0.43650

 Mulliken charges:
               1
     1  C    0.090857
     2  O   -0.487371
     3  H    0.039813
     4  H    0.040539
     5  H    0.060922
     6  H    0.255240
 Sum of Mulliken charges =   0.00000

 Dipole moment (field-independent basis, Debye):
    X=              0.9816    Y=              1.6838    Z=             -0.0630  Tot=              1.9500
 Quadrupole moment (field-independent basis, Debye-Ang):
   XX=            -12.9892   YY=            -11.7633   ZZ=            -13.9631
   XY=             -2.5026   XZ=             -0.0703   YZ=             -0.0744

 Normal termination of Gaussian 09 at Wed Aug 26 13:44:52 2020.
