 Gaussian 09, Revision D.01,
 Gaussian 09:  ES64L-G09RevD.01 24-Apr-2013

 --------------------
 #p B2PLYPD3/Def2QZVP
 --------------------

 --------
 methanol
 --------
 Symbolic Z-matrix:
 Charge =  0 Multiplicity = 1

                         Standard orientation:
 ---------------------------------------------------------------------
 Center     Atomic      Atomic             Coordinates (Angstroms)
 Number     Number       Type             X           Y           Z
 ---------------------------------------------------------------------
      1          6           0        0.666424    0.031447    0.011424
      2          8           0       -0.740443   -0.169009   -0.009061
      3          1           0        1.034340    0.418375    0.830494
      4          1           0        1.017624    0.664673   -0.758334
      5          1           0        1.148991   -0.879810   -0.112872
      6          1           0       -1.275952    0.960156    0.044653
 ---------------------------------------------------------------------

 SCF Done:  E(RB2PLYPD3) =  -115.489853359     A.U. after   11 cycles
 E2(B2PLYPD3) =    -0.1522879793D+00 E(B2PLYPD3) =    -0.11564214133807D+03

 The electronic state is 1-A.
 Alpha  occ. eigenvalues --  -19.74543 -10.63031  -1.12244  -0.79380  -0.55494
 Alpha  occ. eigenvalues --   -0.52061  -0.49552  -0.40062  -0.35082
 Alpha virt. eigenvalues --    0.01494   0.07463   0.12690   0.13017   0.14919
 Alpha virt. eigenvalues --    0.17649   0.18337   0.25001   0.29613   0.33613
 Alpha virt. eigenvalues --    0.34186   0.39132   0.39569   0.42389   0.44229

 Mulliken charges:
               1
     1  C    0.094894
     2  O   -0.497366
     3  H    0.048050
     4  H    0.037505
     5  H    0.061615
     6  H    0.255301
 Sum of Mulliken charges =   0.00000

 Dipole moment (field-independent basis, Debye):
    X=              0.8627    Y=              1.7151    Z=              0.1367  Tot=              1.9247
 Quadrupole moment (field-independent basis, Debye-Ang):
   XX=            -12.4900   YY=            -11.8812   ZZ=            -14.0394
   XY=             -2.6003   XZ=             -0.0405   YZ=              0.1056

 Normal termination of Gaussian 09 at Wed Aug 26 11:34:27 2020.
