 Gaussian 09, Revision D.01,
 Gaussian 09:  ES64L-G09RevD.01 24-Apr-2013

 --------------------
 #p B2PLYPD3/Def2QZVP
 --------------------

 --------
 methanol
 --------
 Symbolic Z-matrix:
 Charge =  0 Multiplicity = 1

                         Standard orientation:
 ---------------------------------------------------------------------
 Center     Atomic      Atomic             Coordinates (Angstroms)
 Number     Number       Type             X           Y           Z
 ---------------------------------------------------------------------
      1          6           0        0.673897    0.029985    0.005034
      2          8           0       -0.732999   -0.146841   -0.011815
      3          1           0        1.011018    0.376224    0.876426
      4          1           0        0.983143    0.713948   -0.751479
      5          1           0        1.065281   -0.947318   -0.135417
      6          1           0       -1.238833    0.851960    0.074788
 ---------------------------------------------------------------------

 SCF Done:  E(RB2PLYPD3) =  -115.524432085     A.U. after   11 cycles
 E2(B2PLYPD3) =    -0.1496815594D+00 E(B2PLYPD3) =    -0.11567411364468D+03

 The electronic state is 1-A.
 Alpha  occ. eigenvalues --  -19.73335 -10.63677  -1.13353  -0.78857  -0.57122
 Alpha  occ. eigenvalues --   -0.52495  -0.49308  -0.40483  -0.34967
 Alpha virt. eigenvalues --    0.03557   0.07857   0.12422   0.12863   0.15080
 Alpha virt. eigenvalues --    0.17062   0.18097   0.28770   0.29904   0.33399
 Alpha virt. eigenvalues --    0.34212   0.39197   0.39276   0.42468   0.44837

 Mulliken charges:
               1
     1  C    0.086462
     2  O   -0.497393
     3  H    0.050133
     4  H    0.041574
     5  H    0.069000
     6  H    0.250223
 Sum of Mulliken charges =   0.00000

 Dipole moment (field-independent basis, Debye):
    X=              0.8225    Y=              1.6321    Z=              0.1982  Tot=              1.8384
 Quadrupole moment (field-independent basis, Debye-Ang):
   XX=            -12.7222   YY=            -11.9510   ZZ=            -13.8873
   XY=             -2.4324   XZ=             -0.1045   YZ=              0.1122

 Normal termination of Gaussian 09 at Wed Aug 26 11:34:12 2020.
