 Gaussian 09, Revision D.01,
 Gaussian 09:  ES64L-G09RevD.01 24-Apr-2013

 --------------------
 #p B2PLYPD3/Def2QZVP
 --------------------

 --------
 methanol
 --------
 Symbolic Z-matrix:
 Charge =  0 Multiplicity = 1

                         Standard orientation:
 ---------------------------------------------------------------------
 Center     Atomic      Atomic             Coordinates (Angstroms)
 Number     Number       Type             X           Y           Z
 ---------------------------------------------------------------------
      1          6           0        0.662662   -0.017402    0.020912
      2          8           0       -0.735159    0.103651   -0.019208
      3          1           0        1.063784   -0.658119   -0.855499
      4          1           0        0.922897   -0.457705    0.926849
      5          1           0        1.035922    1.039462   -0.088080
      6          1           0       -1.117306   -0.648433    0.044923
 ---------------------------------------------------------------------

 SCF Done:  E(RB2PLYPD3) =  -115.532940949     A.U. after   10 cycles
 E2(B2PLYPD3) =    -0.1452239821D+00 E(B2PLYPD3) =    -0.11567816493096D+03

 The electronic state is 1-A.
 Alpha  occ. eigenvalues --  -19.71125 -10.66194  -1.19271  -0.79726  -0.60613
 Alpha  occ. eigenvalues --   -0.52346  -0.49900  -0.40976  -0.35396
 Alpha virt. eigenvalues --    0.05333   0.08846   0.12079   0.12294   0.14929
 Alpha virt. eigenvalues --    0.16955   0.17740   0.29102   0.32816   0.33877
 Alpha virt. eigenvalues --    0.37611   0.38457   0.39718   0.40933   0.44251

 Mulliken charges:
               1
     1  C    0.068182
     2  O   -0.395519
     3  H    0.037669
     4  H    0.055499
     5  H    0.073347
     6  H    0.160823
 Sum of Mulliken charges =   0.00000

 Dipole moment (field-independent basis, Debye):
    X=              0.8022    Y=             -1.3873    Z=              0.2258  Tot=              1.6184
 Quadrupole moment (field-independent basis, Debye-Ang):
   XX=            -13.1606   YY=            -12.2863   ZZ=            -13.6525
   XY=              2.0797   XZ=             -0.1692   YZ=             -0.1772

 Normal termination of Gaussian 09 at Wed Aug 26 11:36:14 2020.
