 Gaussian 09, Revision D.01,
 Gaussian 09:  ES64L-G09RevD.01 24-Apr-2013

 --------------------
 #p B2PLYPD3/Def2QZVP
 --------------------

 --------
 methanol
 --------
 Symbolic Z-matrix:
 Charge =  0 Multiplicity = 1

                         Standard orientation:
 ---------------------------------------------------------------------
 Center     Atomic      Atomic             Coordinates (Angstroms)
 Number     Number       Type             X           Y           Z
 ---------------------------------------------------------------------
      1          6           0        0.695677   -0.009322    0.025212
      2          8           0       -0.766476    0.051061   -0.027665
      3          1           0        1.054294   -0.984009   -0.689169
      4          1           0        0.980418   -0.163701    1.037397
      5          1           0        1.048913    1.124329   -0.403979
      6          1           0       -1.125881   -0.329175    0.125796
 ---------------------------------------------------------------------

 SCF Done:  E(RB2PLYPD3) =  -114.992159323     A.U. after   12 cycles
 E2(B2PLYPD3) =    -0.1437403427D+00 E(B2PLYPD3) =    -0.11513589966529D+03

 The electronic state is 1-A.
 Alpha  occ. eigenvalues --  -19.67541 -10.70654  -1.29689  -0.83901  -0.62414
 Alpha  occ. eigenvalues --   -0.51007  -0.49048  -0.39868  -0.36496
 Alpha virt. eigenvalues --    0.04742   0.09697   0.10715   0.11499   0.14155
 Alpha virt. eigenvalues --    0.16377   0.17296   0.28429   0.29937   0.31843
 Alpha virt. eigenvalues --    0.33540   0.35276   0.40526   0.41651   0.41860

 Mulliken charges:
               1
     1  C    0.061362
     2  O   -0.125366
     3  H    0.050760
     4  H    0.078345
     5  H    0.087104
     6  H   -0.152204
 Sum of Mulliken charges =   0.00000

 Dipole moment (field-independent basis, Debye):
    X=              1.1127    Y=             -0.9170    Z=              0.5596  Tot=              1.5467
 Quadrupole moment (field-independent basis, Debye-Ang):
   XX=            -12.9666   YY=            -12.5174   ZZ=            -13.2929
   XY=              1.5804   XZ=             -0.4564   YZ=             -0.2757

 Normal termination of Gaussian 09 at Wed Aug 26 23:49:49 2020.
