 Gaussian 09, Revision D.01,
 Gaussian 09:  ES64L-G09RevD.01 24-Apr-2013

 --------------------
 #p B2PLYPD3/Def2QZVP
 --------------------

 --------
 methanol
 --------
 Symbolic Z-matrix:
 Charge =  0 Multiplicity = 1

                         Standard orientation:
 ---------------------------------------------------------------------
 Center     Atomic      Atomic             Coordinates (Angstroms)
 Number     Number       Type             X           Y           Z
 ---------------------------------------------------------------------
      1          6           0        0.667104   -0.017624   -0.009340
      2          8           0       -0.758568    0.048056    0.010431
      3          1           0        1.076923   -0.690900   -0.865450
      4          1           0        1.127338   -0.435408    1.005768
      5          1           0        0.927593    1.254337   -0.140415
      6          1           0       -1.065937   -0.406736   -0.027315
 ---------------------------------------------------------------------

 SCF Done:  E(RB2PLYPD3) =  -115.018630646     A.U. after   12 cycles
 E2(B2PLYPD3) =    -0.1438132118D+00 E(B2PLYPD3) =    -0.11516244385727D+03

 The electronic state is 1-A.
 Alpha  occ. eigenvalues --  -19.68645 -10.70725  -1.31254  -0.83509  -0.62846
 Alpha  occ. eigenvalues --   -0.51048  -0.48841  -0.40400  -0.36580
 Alpha virt. eigenvalues --    0.04729   0.09341   0.10671   0.11728   0.14726
 Alpha virt. eigenvalues --    0.16313   0.17616   0.28357   0.31043   0.32760
 Alpha virt. eigenvalues --    0.34033   0.36406   0.37811   0.41218   0.41777

 Mulliken charges:
               1
     1  C    0.034443
     2  O   -0.089732
     3  H    0.059994
     4  H    0.060401
     5  H    0.073875
     6  H   -0.138980
 Sum of Mulliken charges =   0.00000

 Dipole moment (field-independent basis, Debye):
    X=              0.9305    Y=             -1.1637    Z=             -0.1184  Tot=              1.4947
 Quadrupole moment (field-independent basis, Debye-Ang):
   XX=            -13.2244   YY=            -12.3961   ZZ=            -13.5798
   XY=              1.3275   XZ=              0.1531   YZ=              0.0937

 Normal termination of Gaussian 09 at Thu Aug 27 00:28:18 2020.
