 Gaussian 09, Revision D.01,
 Gaussian 09:  ES64L-G09RevD.01 24-Apr-2013

 --------------------
 #p B2PLYPD3/Def2QZVP
 --------------------

 --------
 methanol
 --------
 Symbolic Z-matrix:
 Charge =  0 Multiplicity = 1

                         Standard orientation:
 ---------------------------------------------------------------------
 Center     Atomic      Atomic             Coordinates (Angstroms)
 Number     Number       Type             X           Y           Z
 ---------------------------------------------------------------------
      1          6           0       -0.671851   -0.021188   -0.018527
      2          8           0        0.741467   -0.016859    0.077181
      3          1           0       -1.005115   -0.750351   -0.825947
      4          1           0       -1.059302    1.176572   -0.224051
      5          1           0       -1.105392   -0.301180    0.964418
      6          1           0        1.269179    0.136961   -0.420707
 ---------------------------------------------------------------------

 SCF Done:  E(RB2PLYPD3) =  -115.450161076     A.U. after   11 cycles
 E2(B2PLYPD3) =    -0.1448255929D+00 E(B2PLYPD3) =    -0.11559498666943D+03

 The electronic state is 1-A.
 Alpha  occ. eigenvalues --  -19.69666 -10.69380  -1.21220  -0.81955  -0.60897
 Alpha  occ. eigenvalues --   -0.51750  -0.49981  -0.38633  -0.35160
 Alpha virt. eigenvalues --    0.05282   0.08796   0.11388   0.12396   0.13997
 Alpha virt. eigenvalues --    0.16815   0.18029   0.28878   0.31272   0.32406
 Alpha virt. eigenvalues --    0.35459   0.38304   0.39111   0.41238   0.41928

 Mulliken charges:
               1
     1  C    0.059221
     2  O   -0.298386
     3  H    0.061230
     4  H    0.032897
     5  H    0.092575
     6  H    0.052462
 Sum of Mulliken charges =   0.00000

 Dipole moment (field-independent basis, Debye):
    X=             -0.6143    Y=              0.1342    Z=             -0.9923  Tot=              1.1747
 Quadrupole moment (field-independent basis, Debye-Ang):
   XX=            -12.3100   YY=            -13.6242   ZZ=            -13.0440
   XY=              0.7829   XZ=             -1.9977   YZ=             -0.0394

 Normal termination of Gaussian 09 at Wed Aug 26 21:34:34 2020.
