 Gaussian 09, Revision D.01,
 Gaussian 09:  ES64L-G09RevD.01 24-Apr-2013

 --------------------
 #p B2PLYPD3/Def2QZVP
 --------------------

 --------
 methanol
 --------
 Symbolic Z-matrix:
 Charge =  0 Multiplicity = 1

                         Standard orientation:
 ---------------------------------------------------------------------
 Center     Atomic      Atomic             Coordinates (Angstroms)
 Number     Number       Type             X           Y           Z
 ---------------------------------------------------------------------
      1          6           0       -0.696051   -0.039830    0.038708
      2          8           0        0.762154    0.041206   -0.039314
      3          1           0       -0.969267   -0.020898    1.051735
      4          1           0       -1.087049   -0.953666   -0.687457
      5          1           0       -0.977056    1.176268   -0.472457
      6          1           0        1.112447   -0.292366    0.190444
 ---------------------------------------------------------------------

 SCF Done:  E(RB2PLYPD3) =  -114.936704030     A.U. after   12 cycles
 E2(B2PLYPD3) =    -0.1441447989D+00 E(B2PLYPD3) =    -0.11508084882923D+03

 The electronic state is 1-A.
 Alpha  occ. eigenvalues --  -19.67652 -10.70836  -1.30467  -0.83909  -0.62562
 Alpha  occ. eigenvalues --   -0.52349  -0.47599  -0.39047  -0.36971
 Alpha virt. eigenvalues --    0.04461   0.09498   0.10381   0.11335   0.13987
 Alpha virt. eigenvalues --    0.16228   0.17929   0.28189   0.29892   0.31663
 Alpha virt. eigenvalues --    0.32742   0.35365   0.41073   0.41332   0.42288

 Mulliken charges:
               1
     1  C    0.038871
     2  O   -0.094193
     3  H    0.084631
     4  H    0.073856
     5  H    0.065970
     6  H   -0.169135
 Sum of Mulliken charges =   0.00000

 Dipole moment (field-independent basis, Debye):
    X=             -1.0407    Y=             -0.9299    Z=              0.7689  Tot=              1.5934
 Quadrupole moment (field-independent basis, Debye-Ang):
   XX=            -13.1122   YY=            -12.7632   ZZ=            -13.0185
   XY=             -1.1277   XZ=              0.7441   YZ=             -0.0826

 Normal termination of Gaussian 09 at Wed Aug 26 23:21:12 2020.
