 Gaussian 09, Revision D.01,
 Gaussian 09:  ES64L-G09RevD.01 24-Apr-2013

 --------------------
 #p B2PLYPD3/Def2QZVP
 --------------------

 --------
 methanol
 --------
 Symbolic Z-matrix:
 Charge =  0 Multiplicity = 1

                         Standard orientation:
 ---------------------------------------------------------------------
 Center     Atomic      Atomic             Coordinates (Angstroms)
 Number     Number       Type             X           Y           Z
 ---------------------------------------------------------------------
      1          6           0       -0.675033    0.010598    0.014438
      2          8           0        0.738526   -0.134119   -0.023681
      3          1           0       -1.077398    0.621598   -0.867163
      4          1           0       -0.982445    0.469716    0.888096
      5          1           0       -1.031066   -0.913239   -0.015752
      6          1           0        1.232901    0.831289    0.097635
 ---------------------------------------------------------------------

 SCF Done:  E(RB2PLYPD3) =  -115.527434589     A.U. after   11 cycles
 E2(B2PLYPD3) =    -0.1493224536D+00 E(B2PLYPD3) =    -0.11567675704310D+03

 The electronic state is 1-A.
 Alpha  occ. eigenvalues --  -19.73252 -10.64292  -1.13664  -0.78921  -0.57244
 Alpha  occ. eigenvalues --   -0.51143  -0.50544  -0.40753  -0.34790
 Alpha virt. eigenvalues --    0.03903   0.07836   0.12466   0.12777   0.14928
 Alpha virt. eigenvalues --    0.17055   0.18198   0.29046   0.30594   0.33118
 Alpha virt. eigenvalues --    0.33959   0.38466   0.40294   0.41060   0.44200

 Mulliken charges:
               1
     1  C    0.077543
     2  O   -0.493450
     3  H    0.039251
     4  H    0.047802
     5  H    0.077495
     6  H    0.251359
 Sum of Mulliken charges =   0.00000

 Dipole moment (field-independent basis, Debye):
    X=             -0.7908    Y=              1.5084    Z=              0.3144  Tot=              1.7319
 Quadrupole moment (field-independent basis, Debye-Ang):
   XX=            -12.7401   YY=            -12.0893   ZZ=            -13.8478
   XY=              2.4970   XZ=              0.2091   YZ=              0.1949

 Normal termination of Gaussian 09 at Wed Aug 26 16:25:47 2020.
