 Gaussian 09, Revision D.01,
 Gaussian 09:  ES64L-G09RevD.01 24-Apr-2013

 --------------------
 #p B2PLYPD3/Def2QZVP
 --------------------

 --------
 methanol
 --------
 Symbolic Z-matrix:
 Charge =  0 Multiplicity = 1

                         Standard orientation:
 ---------------------------------------------------------------------
 Center     Atomic      Atomic             Coordinates (Angstroms)
 Number     Number       Type             X           Y           Z
 ---------------------------------------------------------------------
      1          6           0        0.684945    0.021884    0.012056
      2          8           0       -0.718491   -0.171564   -0.010125
      3          1           0        1.035717    0.298472    0.931790
      4          1           0        0.907813    0.749360   -0.759687
      5          1           0        1.041204   -0.756009   -0.252642
      6          1           0       -1.346475    0.949387    0.089201
 ---------------------------------------------------------------------

 SCF Done:  E(RB2PLYPD3) =  -115.456101059     A.U. after   11 cycles
 E2(B2PLYPD3) =    -0.1526820671D+00 E(B2PLYPD3) =    -0.11560878312620D+03

 The electronic state is 1-A.
 Alpha  occ. eigenvalues --  -19.73912 -10.62171  -1.11931  -0.79745  -0.55662
 Alpha  occ. eigenvalues --   -0.52598  -0.50314  -0.39200  -0.34584
 Alpha virt. eigenvalues --    0.00896   0.07704   0.12583   0.13187   0.14562
 Alpha virt. eigenvalues --    0.17124   0.18327   0.24397   0.29425   0.33147
 Alpha virt. eigenvalues --    0.34144   0.37929   0.42323   0.42766   0.43813

 Mulliken charges:
               1
     1  C    0.063951
     2  O   -0.506680
     3  H    0.055442
     4  H    0.038780
     5  H    0.094399
     6  H    0.254108
 Sum of Mulliken charges =   0.00000

 Dipole moment (field-independent basis, Debye):
    X=              0.7823    Y=              1.5803    Z=              0.1336  Tot=              1.7684
 Quadrupole moment (field-independent basis, Debye-Ang):
   XX=            -12.3875   YY=            -12.0202   ZZ=            -13.7078
   XY=             -2.8408   XZ=             -0.1648   YZ=              0.1989

 Normal termination of Gaussian 09 at Wed Aug 26 22:51:09 2020.
