 Gaussian 09, Revision D.01,
 Gaussian 09:  ES64L-G09RevD.01 24-Apr-2013

 --------------------
 #p B2PLYPD3/Def2QZVP
 --------------------

 --------
 methanol
 --------
 Symbolic Z-matrix:
 Charge =  0 Multiplicity = 1

                         Standard orientation:
 ---------------------------------------------------------------------
 Center     Atomic      Atomic             Coordinates (Angstroms)
 Number     Number       Type             X           Y           Z
 ---------------------------------------------------------------------
      1          6           0        0.658942    0.003268    0.014278
      2          8           0       -0.739568   -0.177391   -0.007514
      3          1           0        1.073772    0.486318    0.782166
      4          1           0        1.173235    0.537589   -0.776257
      5          1           0        0.939478   -0.811705   -0.031689
      6          1           0       -1.223595    1.187317    0.000220
 ---------------------------------------------------------------------

 SCF Done:  E(RB2PLYPD3) =  -115.392677749     A.U. after   11 cycles
 E2(B2PLYPD3) =    -0.1571617772D+00 E(B2PLYPD3) =    -0.11554983952611D+03

 The electronic state is 1-A.
 Alpha  occ. eigenvalues --  -19.76010 -10.61527  -1.12387  -0.80855  -0.57314
 Alpha  occ. eigenvalues --   -0.50605  -0.49380  -0.39948  -0.34878
 Alpha virt. eigenvalues --   -0.02384   0.07296   0.12710   0.13159   0.15037
 Alpha virt. eigenvalues --    0.17136   0.18589   0.21667   0.29519   0.33659
 Alpha virt. eigenvalues --    0.34640   0.37019   0.39710   0.41613   0.44649

 Mulliken charges:
               1
     1  C    0.034509
     2  O   -0.464622
     3  H    0.043786
     4  H    0.033662
     5  H    0.121045
     6  H    0.231619
 Sum of Mulliken charges =   0.00000

 Dipole moment (field-independent basis, Debye):
    X=              1.0436    Y=              1.6685    Z=              0.0847  Tot=              1.9698
 Quadrupole moment (field-independent basis, Debye-Ang):
   XX=            -12.9780   YY=            -11.1823   ZZ=            -14.2586
   XY=             -2.3736   XZ=              0.0280   YZ=              0.0998

 Normal termination of Gaussian 09 at Wed Aug 26 22:24:58 2020.
