 Gaussian 09, Revision D.01,
 Gaussian 09:  ES64L-G09RevD.01 24-Apr-2013

 --------------------
 #p B2PLYPD3/Def2QZVP
 --------------------

 --------
 methanol
 --------
 Symbolic Z-matrix:
 Charge =  0 Multiplicity = 1

                         Standard orientation:
 ---------------------------------------------------------------------
 Center     Atomic      Atomic             Coordinates (Angstroms)
 Number     Number       Type             X           Y           Z
 ---------------------------------------------------------------------
      1          6           0        0.677414    0.006081    0.012134
      2          8           0       -0.757363   -0.142622   -0.013691
      3          1           0        1.061015    0.386889    0.908444
      4          1           0        1.035782    0.706479   -0.803037
      5          1           0        1.114424   -0.865456   -0.149254
      6          1           0       -1.216802    0.876573    0.080570
 ---------------------------------------------------------------------

 SCF Done:  E(RB2PLYPD3) =  -115.521355544     A.U. after   11 cycles
 E2(B2PLYPD3) =    -0.1503143242D+00 E(B2PLYPD3) =    -0.11567166986813D+03

 The electronic state is 1-A.
 Alpha  occ. eigenvalues --  -19.73836 -10.64468  -1.12757  -0.79132  -0.56192
 Alpha  occ. eigenvalues --   -0.50880  -0.50428  -0.40854  -0.35010
 Alpha virt. eigenvalues --    0.03482   0.07593   0.12486   0.12843   0.14717
 Alpha virt. eigenvalues --    0.17595   0.18266   0.28479   0.29771   0.32916
 Alpha virt. eigenvalues --    0.33503   0.38022   0.40981   0.41190   0.43336

 Mulliken charges:
               1
     1  C    0.082599
     2  O   -0.498089
     3  H    0.050353
     4  H    0.034059
     5  H    0.074704
     6  H    0.256375
 Sum of Mulliken charges =   0.00000

 Dipole moment (field-independent basis, Debye):
    X=              0.9159    Y=              1.5541    Z=              0.2079  Tot=              1.8158
 Quadrupole moment (field-independent basis, Debye-Ang):
   XX=            -12.6996   YY=            -12.0630   ZZ=            -13.9540
   XY=             -2.5879   XZ=             -0.1382   YZ=              0.2004

 Normal termination of Gaussian 09 at Wed Aug 26 16:09:50 2020.
