 Gaussian 09, Revision D.01,
 Gaussian 09:  ES64L-G09RevD.01 24-Apr-2013

 --------------------
 #p B2PLYPD3/Def2QZVP
 --------------------

 --------
 methanol
 --------
 Symbolic Z-matrix:
 Charge =  0 Multiplicity = 1

                         Standard orientation:
 ---------------------------------------------------------------------
 Center     Atomic      Atomic             Coordinates (Angstroms)
 Number     Number       Type             X           Y           Z
 ---------------------------------------------------------------------
      1          6           0       -0.668213   -0.003919    0.000373
      2          8           0        0.758613   -0.074486   -0.037829
      3          1           0       -0.968254    1.089454   -0.460627
      4          1           0       -1.001726   -0.133220    1.057591
      5          1           0       -1.034032   -0.847065   -0.568414
      6          1           0        0.944388    0.510237    0.271847
 ---------------------------------------------------------------------

 SCF Done:  E(RB2PLYPD3) =  -115.400652981     A.U. after   11 cycles
 E2(B2PLYPD3) =    -0.1439199129D+00 E(B2PLYPD3) =    -0.11554457289398D+03

 The electronic state is 1-A.
 Alpha  occ. eigenvalues --  -19.69628 -10.67771  -1.25459  -0.80642  -0.61103
 Alpha  occ. eigenvalues --   -0.51791  -0.50927  -0.42659  -0.35962
 Alpha virt. eigenvalues --    0.05274   0.09328   0.11322   0.12306   0.14329
 Alpha virt. eigenvalues --    0.16843   0.17738   0.28249   0.31712   0.32531
 Alpha virt. eigenvalues --    0.35566   0.39060   0.40089   0.41402   0.43947

 Mulliken charges:
               1
     1  C    0.057390
     2  O   -0.247033
     3  H    0.036042
     4  H    0.054184
     5  H    0.085866
     6  H    0.013550
 Sum of Mulliken charges =   0.00000

 Dipole moment (field-independent basis, Debye):
    X=             -1.1764    Y=              0.9956    Z=              0.6165  Tot=              1.6598
 Quadrupole moment (field-independent basis, Debye-Ang):
   XX=            -13.8176   YY=            -12.3837   ZZ=            -13.2645
   XY=              1.7307   XZ=              0.7814   YZ=              0.4499

 Normal termination of Gaussian 09 at Wed Aug 26 22:37:03 2020.
