 Gaussian 09, Revision D.01,
 Gaussian 09:  ES64L-G09RevD.01 24-Apr-2013

 --------------------
 #p B2PLYPD3/Def2QZVP
 --------------------

 --------
 methanol
 --------
 Symbolic Z-matrix:
 Charge =  0 Multiplicity = 1

                         Standard orientation:
 ---------------------------------------------------------------------
 Center     Atomic      Atomic             Coordinates (Angstroms)
 Number     Number       Type             X           Y           Z
 ---------------------------------------------------------------------
      1          6           0        0.675969   -0.020653   -0.006008
      2          8           0       -0.749683    0.130583   -0.001444
      3          1           0        1.048248   -0.524140   -0.844480
      4          1           0        0.981095   -0.563801    0.864954
      5          1           0        1.058513    0.980235    0.037839
      6          1           0       -1.146207   -0.813042   -0.010712
 ---------------------------------------------------------------------

 SCF Done:  E(RB2PLYPD3) =  -115.546208186     A.U. after   10 cycles
 E2(B2PLYPD3) =    -0.1483473429D+00 E(B2PLYPD3) =    -0.11569455552891D+03

 The electronic state is 1-A.
 Alpha  occ. eigenvalues --  -19.72888 -10.64685  -1.14476  -0.78842  -0.57946
 Alpha  occ. eigenvalues --   -0.52027  -0.49270  -0.41388  -0.35269
 Alpha virt. eigenvalues --    0.04541   0.08111   0.12366   0.12569   0.14951
 Alpha virt. eigenvalues --    0.17190   0.18002   0.29202   0.32585   0.33231
 Alpha virt. eigenvalues --    0.33949   0.39064   0.39681   0.41676   0.44423

 Mulliken charges:
               1
     1  C    0.078967
     2  O   -0.482183
     3  H    0.049864
     4  H    0.045797
     5  H    0.070673
     6  H    0.236881
 Sum of Mulliken charges =   0.00000

 Dipole moment (field-independent basis, Debye):
    X=              0.9600    Y=             -1.5859    Z=             -0.0272  Tot=              1.8540
 Quadrupole moment (field-independent basis, Debye-Ang):
   XX=            -13.0730   YY=            -11.9800   ZZ=            -13.8272
   XY=              2.2557   XZ=             -0.0533   YZ=              0.0500

 Normal termination of Gaussian 09 at Thu Aug 27 00:03:08 2020.
