 Gaussian 09, Revision D.01,
 Gaussian 09:  ES64L-G09RevD.01 24-Apr-2013

 --------------------
 #p B2PLYPD3/Def2QZVP
 --------------------

 --------
 methanol
 --------
 Symbolic Z-matrix:
 Charge =  0 Multiplicity = 1

                         Standard orientation:
 ---------------------------------------------------------------------
 Center     Atomic      Atomic             Coordinates (Angstroms)
 Number     Number       Type             X           Y           Z
 ---------------------------------------------------------------------
      1          6           0       -0.669193   -0.020979    0.013408
      2          8           0        0.756014    0.082602   -0.023217
      3          1           0       -0.949957   -0.465995    1.004812
      4          1           0       -1.091635   -0.598030   -0.943088
      5          1           0       -1.048975    1.062807   -0.034749
      6          1           0        1.057613   -0.533718    0.078312
 ---------------------------------------------------------------------

 SCF Done:  E(RB2PLYPD3) =  -115.412529683     A.U. after   11 cycles
 E2(B2PLYPD3) =    -0.1440419278D+00 E(B2PLYPD3) =    -0.11555657161076D+03

 The electronic state is 1-A.
 Alpha  occ. eigenvalues --  -19.69649 -10.68297  -1.24419  -0.80914  -0.61173
 Alpha  occ. eigenvalues --   -0.51842  -0.49959  -0.41144  -0.36235
 Alpha virt. eigenvalues --    0.05363   0.09175   0.11663   0.11996   0.14207
 Alpha virt. eigenvalues --    0.16915   0.17960   0.28524   0.32196   0.32913
 Alpha virt. eigenvalues --    0.36069   0.38037   0.39576   0.40745   0.43118

 Mulliken charges:
               1
     1  C    0.051040
     2  O   -0.249764
     3  H    0.057908
     4  H    0.050542
     5  H    0.076859
     6  H    0.013415
 Sum of Mulliken charges =   0.00000

 Dipole moment (field-independent basis, Debye):
    X=             -0.9935    Y=             -1.1942    Z=              0.2809  Tot=              1.5786
 Quadrupole moment (field-independent basis, Debye-Ang):
   XX=            -13.3237   YY=            -12.5804   ZZ=            -13.3601
   XY=             -1.9029   XZ=              0.3285   YZ=             -0.1573

 Normal termination of Gaussian 09 at Wed Aug 26 14:05:12 2020.
