 Gaussian 09, Revision D.01,
 Gaussian 09:  ES64L-G09RevD.01 24-Apr-2013

 --------------------
 #p B2PLYPD3/Def2QZVP
 --------------------

 --------
 methanol
 --------
 Symbolic Z-matrix:
 Charge =  0 Multiplicity = 1

                         Standard orientation:
 ---------------------------------------------------------------------
 Center     Atomic      Atomic             Coordinates (Angstroms)
 Number     Number       Type             X           Y           Z
 ---------------------------------------------------------------------
      1          6           0       -0.660459    0.021847    0.007412
      2          8           0        0.734681   -0.147997   -0.010285
      3          1           0       -0.996025    0.592293   -0.856055
      4          1           0       -1.010983    0.479823    0.859413
      5          1           0       -1.092472   -0.902063   -0.028633
      6          1           0        1.184787    0.882836    0.063083
 ---------------------------------------------------------------------

 SCF Done:  E(RB2PLYPD3) =  -115.525492863     A.U. after   11 cycles
 E2(B2PLYPD3) =    -0.1497152689D+00 E(B2PLYPD3) =    -0.11567520813193D+03

 The electronic state is 1-A.
 Alpha  occ. eigenvalues --  -19.73663 -10.63708  -1.13969  -0.78720  -0.56902
 Alpha  occ. eigenvalues --   -0.52206  -0.50208  -0.40627  -0.34944
 Alpha virt. eigenvalues --    0.03409   0.07864   0.12597   0.12799   0.14900
 Alpha virt. eigenvalues --    0.17489   0.18233   0.28411   0.29778   0.33265
 Alpha virt. eigenvalues --    0.34638   0.39219   0.40589   0.41841   0.44046

 Mulliken charges:
               1
     1  C    0.081563
     2  O   -0.486743
     3  H    0.040506
     4  H    0.044183
     5  H    0.067102
     6  H    0.253389
 Sum of Mulliken charges =   0.00000

 Dipole moment (field-independent basis, Debye):
    X=             -0.8449    Y=              1.6043    Z=              0.1711  Tot=              1.8212
 Quadrupole moment (field-independent basis, Debye-Ang):
   XX=            -12.9136   YY=            -11.9893   ZZ=            -13.8443
   XY=              2.4890   XZ=              0.0732   YZ=              0.1163

 Normal termination of Gaussian 09 at Wed Aug 26 19:29:31 2020.
