 Gaussian 09, Revision D.01,
 Gaussian 09:  ES64L-G09RevD.01 24-Apr-2013

 --------------------
 #p B2PLYPD3/Def2QZVP
 --------------------

 --------
 methanol
 --------
 Symbolic Z-matrix:
 Charge =  0 Multiplicity = 1

                         Standard orientation:
 ---------------------------------------------------------------------
 Center     Atomic      Atomic             Coordinates (Angstroms)
 Number     Number       Type             X           Y           Z
 ---------------------------------------------------------------------
      1          6           0       -0.662963   -0.031240    0.039051
      2          8           0        0.745804    0.067295   -0.041125
      3          1           0       -0.984996    0.009140    1.009098
      4          1           0       -1.141824   -0.998218   -0.597864
      5          1           0       -1.076429    1.061390   -0.478595
      6          1           0        1.214595   -0.423229    0.162054
 ---------------------------------------------------------------------

 SCF Done:  E(RB2PLYPD3) =  -115.403386242     A.U. after   11 cycles
 E2(B2PLYPD3) =    -0.1446850582D+00 E(B2PLYPD3) =    -0.11554807130035D+03

 The electronic state is 1-A.
 Alpha  occ. eigenvalues --  -19.69773 -10.69301  -1.23197  -0.82253  -0.62381
 Alpha  occ. eigenvalues --   -0.51780  -0.48819  -0.38370  -0.36426
 Alpha virt. eigenvalues --    0.05090   0.08906   0.10919   0.12098   0.14646
 Alpha virt. eigenvalues --    0.16566   0.18308   0.28728   0.32080   0.32707
 Alpha virt. eigenvalues --    0.33808   0.35940   0.40135   0.41453   0.43742

 Mulliken charges:
               1
     1  C    0.043491
     2  O   -0.246033
     3  H    0.078933
     4  H    0.045095
     5  H    0.061911
     6  H    0.016603
 Sum of Mulliken charges =   0.00000

 Dipole moment (field-independent basis, Debye):
    X=             -0.6445    Y=             -1.0488    Z=              0.6630  Tot=              1.3982
 Quadrupole moment (field-independent basis, Debye-Ang):
   XX=            -12.5585   YY=            -12.9714   ZZ=            -13.5465
   XY=             -1.6568   XZ=              0.5410   YZ=             -0.1246

 Normal termination of Gaussian 09 at Wed Aug 26 21:56:00 2020.
