 Gaussian 09, Revision D.01,
 Gaussian 09:  ES64L-G09RevD.01 24-Apr-2013

 --------------------
 #p B2PLYPD3/Def2QZVP
 --------------------

 --------
 methanol
 --------
 Symbolic Z-matrix:
 Charge =  0 Multiplicity = 1

                         Standard orientation:
 ---------------------------------------------------------------------
 Center     Atomic      Atomic             Coordinates (Angstroms)
 Number     Number       Type             X           Y           Z
 ---------------------------------------------------------------------
      1          6           0        0.671550    0.034271    0.011501
      2          8           0       -0.737263   -0.142719   -0.017328
      3          1           0        1.024058    0.317785    0.888478
      4          1           0        1.012205    0.685813   -0.779433
      5          1           0        1.009682   -0.950649   -0.144437
      6          1           0       -1.177138    0.883175    0.105011
 ---------------------------------------------------------------------

 SCF Done:  E(RB2PLYPD3) =  -115.522126370     A.U. after   11 cycles
 E2(B2PLYPD3) =    -0.1499920128D+00 E(B2PLYPD3) =    -0.11567211838319D+03

 The electronic state is 1-A.
 Alpha  occ. eigenvalues --  -19.73579 -10.63595  -1.13559  -0.78900  -0.57034
 Alpha  occ. eigenvalues --   -0.53007  -0.48793  -0.40659  -0.35327
 Alpha virt. eigenvalues --    0.03575   0.07930   0.12400   0.12704   0.15024
 Alpha virt. eigenvalues --    0.16937   0.18438   0.28501   0.29952   0.33542
 Alpha virt. eigenvalues --    0.34312   0.38644   0.39436   0.42568   0.45020

 Mulliken charges:
               1
     1  C    0.078606
     2  O   -0.487657
     3  H    0.052847
     4  H    0.045075
     5  H    0.064629
     6  H    0.246500
 Sum of Mulliken charges =   0.00000

 Dipole moment (field-independent basis, Debye):
    X=              0.9132    Y=              1.6078    Z=              0.2615  Tot=              1.8675
 Quadrupole moment (field-independent basis, Debye-Ang):
   XX=            -13.0530   YY=            -11.9324   ZZ=            -13.7499
   XY=             -2.2966   XZ=             -0.1555   YZ=              0.1479

 Normal termination of Gaussian 09 at Wed Aug 26 15:42:28 2020.
