 Gaussian 09, Revision D.01,
 Gaussian 09:  ES64L-G09RevD.01 24-Apr-2013

 --------------------
 #p B2PLYPD3/Def2QZVP
 --------------------

 --------
 methanol
 --------
 Symbolic Z-matrix:
 Charge =  0 Multiplicity = 1

                         Standard orientation:
 ---------------------------------------------------------------------
 Center     Atomic      Atomic             Coordinates (Angstroms)
 Number     Number       Type             X           Y           Z
 ---------------------------------------------------------------------
      1          6           0       -0.653090   -0.013489    0.024071
      2          8           0        0.739239    0.078364   -0.028963
      3          1           0       -0.861319   -0.542705    0.988811
      4          1           0       -1.079613   -0.611197   -0.968249
      5          1           0       -1.068703    1.085082   -0.002060
      6          1           0        1.014262   -0.477160    0.068777
 ---------------------------------------------------------------------

 SCF Done:  E(RB2PLYPD3) =  -115.284139763     A.U. after   11 cycles
 E2(B2PLYPD3) =    -0.1432194058D+00 E(B2PLYPD3) =    -0.11542735916869D+03

 The electronic state is 1-A.
 Alpha  occ. eigenvalues --  -19.68995 -10.68838  -1.28510  -0.82210  -0.62084
 Alpha  occ. eigenvalues --   -0.52257  -0.50666  -0.41243  -0.35834
 Alpha virt. eigenvalues --    0.05208   0.09524   0.11564   0.11766   0.14266
 Alpha virt. eigenvalues --    0.16913   0.17426   0.28141   0.32063   0.33112
 Alpha virt. eigenvalues --    0.35966   0.37061   0.39427   0.41331   0.43518

 Mulliken charges:
               1
     1  C    0.050511
     2  O   -0.180559
     3  H    0.053840
     4  H    0.036806
     5  H    0.078911
     6  H   -0.039509
 Sum of Mulliken charges =   0.00000

 Dipole moment (field-independent basis, Debye):
    X=             -0.8904    Y=             -1.1099    Z=              0.3376  Tot=              1.4624
 Quadrupole moment (field-independent basis, Debye-Ang):
   XX=            -13.5393   YY=            -12.5053   ZZ=            -13.3912
   XY=             -1.8801   XZ=              0.3345   YZ=             -0.2220

 Normal termination of Gaussian 09 at Wed Aug 26 23:47:54 2020.
