 Gaussian 09, Revision D.01,
 Gaussian 09:  ES64L-G09RevD.01 24-Apr-2013

 --------------------
 #p B2PLYPD3/Def2QZVP
 --------------------

 --------
 methanol
 --------
 Symbolic Z-matrix:
 Charge =  0 Multiplicity = 1

                         Standard orientation:
 ---------------------------------------------------------------------
 Center     Atomic      Atomic             Coordinates (Angstroms)
 Number     Number       Type             X           Y           Z
 ---------------------------------------------------------------------
      1          6           0       -0.662413   -0.012702    0.036172
      2          8           0        0.757662    0.071020   -0.024411
      3          1           0       -1.165112   -0.288492    0.955447
      4          1           0       -1.027110   -0.812510   -0.866778
      5          1           0       -1.023408    1.086847   -0.297037
      6          1           0        1.128813   -0.477786    0.186624
 ---------------------------------------------------------------------

 SCF Done:  E(RB2PLYPD3) =  -115.400071963     A.U. after   11 cycles
 E2(B2PLYPD3) =    -0.1445970692D+00 E(B2PLYPD3) =    -0.11554466903233D+03

 The electronic state is 1-A.
 Alpha  occ. eigenvalues --  -19.70142 -10.69243  -1.24323  -0.81353  -0.62522
 Alpha  occ. eigenvalues --   -0.50479  -0.49489  -0.40910  -0.35675
 Alpha virt. eigenvalues --    0.05183   0.08902   0.11433   0.11734   0.14755
 Alpha virt. eigenvalues --    0.16652   0.18273   0.28814   0.31195   0.33576
 Alpha virt. eigenvalues --    0.35650   0.36440   0.39510   0.40541   0.42340

 Mulliken charges:
               1
     1  C    0.036373
     2  O   -0.229771
     3  H    0.072077
     4  H    0.034638
     5  H    0.073824
     6  H    0.012858
 Sum of Mulliken charges =   0.00000

 Dipole moment (field-independent basis, Debye):
    X=             -0.8038    Y=             -1.0718    Z=              0.6191  Tot=              1.4758
 Quadrupole moment (field-independent basis, Debye-Ang):
   XX=            -12.9154   YY=            -12.8517   ZZ=            -13.5457
   XY=             -1.7896   XZ=              0.2800   YZ=             -0.4237

 Normal termination of Gaussian 09 at Wed Aug 26 23:13:41 2020.
