 Gaussian 09, Revision D.01,
 Gaussian 09:  ES64L-G09RevD.01 24-Apr-2013

 --------------------
 #p B2PLYPD3/Def2QZVP
 --------------------

 --------
 methanol
 --------
 Symbolic Z-matrix:
 Charge =  0 Multiplicity = 1

                         Standard orientation:
 ---------------------------------------------------------------------
 Center     Atomic      Atomic             Coordinates (Angstroms)
 Number     Number       Type             X           Y           Z
 ---------------------------------------------------------------------
      1          6           0       -0.659125   -0.023848   -0.006385
      2          8           0        0.740958    0.100641   -0.002135
      3          1           0       -0.989323   -0.566946    0.921292
      4          1           0       -1.016886   -0.552440   -0.903240
      5          1           0       -1.070478    1.066272    0.027984
      6          1           0        1.103774   -0.608928    0.009356
 ---------------------------------------------------------------------

 SCF Done:  E(RB2PLYPD3) =  -115.513685910     A.U. after   10 cycles
 E2(B2PLYPD3) =    -0.1447421048D+00 E(B2PLYPD3) =    -0.11565842801439D+03

 The electronic state is 1-A.
 Alpha  occ. eigenvalues --  -19.70792 -10.67078  -1.20848  -0.79892  -0.61040
 Alpha  occ. eigenvalues --   -0.52167  -0.49813  -0.40794  -0.35727
 Alpha virt. eigenvalues --    0.05365   0.08979   0.11960   0.12179   0.14774
 Alpha virt. eigenvalues --    0.17028   0.17781   0.28955   0.33060   0.33619
 Alpha virt. eigenvalues --    0.37012   0.38761   0.40146   0.40548   0.42857

 Mulliken charges:
               1
     1  C    0.061050
     2  O   -0.346678
     3  H    0.046872
     4  H    0.053356
     5  H    0.069435
     6  H    0.115965
 Sum of Mulliken charges =   0.00000

 Dipole moment (field-independent basis, Debye):
    X=             -0.8262    Y=             -1.3774    Z=              0.0048  Tot=              1.6062
 Quadrupole moment (field-independent basis, Debye-Ang):
   XX=            -13.1578   YY=            -12.3972   ZZ=            -13.6417
   XY=             -2.0099   XZ=              0.0737   YZ=              0.0323

 Normal termination of Gaussian 09 at Thu Aug 27 00:10:42 2020.
