 Gaussian 09, Revision D.01,
 Gaussian 09:  ES64L-G09RevD.01 24-Apr-2013

 --------------------
 #p B2PLYPD3/Def2QZVP
 --------------------

 --------
 methanol
 --------
 Symbolic Z-matrix:
 Charge =  0 Multiplicity = 1

                         Standard orientation:
 ---------------------------------------------------------------------
 Center     Atomic      Atomic             Coordinates (Angstroms)
 Number     Number       Type             X           Y           Z
 ---------------------------------------------------------------------
      1          6           0       -0.674663   -0.042351   -0.007666
      2          8           0        0.748837    0.118298    0.000231
      3          1           0       -0.958747   -0.540258    0.916213
      4          1           0       -0.961855   -0.542750   -0.889265
      5          1           0       -1.145133    1.040029    0.012632
      6          1           0        1.123016   -0.649297    0.004561
 ---------------------------------------------------------------------

 SCF Done:  E(RB2PLYPD3) =  -115.534404694     A.U. after   10 cycles
 E2(B2PLYPD3) =    -0.1457161874D+00 E(B2PLYPD3) =    -0.11568012088102D+03

 The electronic state is 1-A.
 Alpha  occ. eigenvalues --  -19.71144 -10.66407  -1.18245  -0.79403  -0.59675
 Alpha  occ. eigenvalues --   -0.53238  -0.48960  -0.40538  -0.35876
 Alpha virt. eigenvalues --    0.05316   0.08701   0.12038   0.12190   0.14439
 Alpha virt. eigenvalues --    0.17323   0.17835   0.29032   0.32507   0.33261
 Alpha virt. eigenvalues --    0.36229   0.38059   0.40362   0.41825   0.44014

 Mulliken charges:
               1
     1  C    0.071963
     2  O   -0.415131
     3  H    0.055556
     4  H    0.060200
     5  H    0.062487
     6  H    0.164924
 Sum of Mulliken charges =   0.00000

 Dipole moment (field-independent basis, Debye):
    X=             -0.9404    Y=             -1.4925    Z=             -0.0119  Tot=              1.7641
 Quadrupole moment (field-independent basis, Debye-Ang):
   XX=            -13.1083   YY=            -12.4297   ZZ=            -13.5266
   XY=             -2.1405   XZ=              0.0382   YZ=              0.0412

 Normal termination of Gaussian 09 at Wed Aug 26 15:01:14 2020.
