 Gaussian 09, Revision D.01,
 Gaussian 09:  ES64L-G09RevD.01 24-Apr-2013

 --------------------
 #p B2PLYPD3/Def2QZVP
 --------------------

 --------
 methanol
 --------
 Symbolic Z-matrix:
 Charge =  0 Multiplicity = 1

                         Standard orientation:
 ---------------------------------------------------------------------
 Center     Atomic      Atomic             Coordinates (Angstroms)
 Number     Number       Type             X           Y           Z
 ---------------------------------------------------------------------
      1          6           0        0.664199    0.023187    0.007322
      2          8           0       -0.730466   -0.151338   -0.001036
      3          1           0        1.003230    0.460582    0.867383
      4          1           0        0.909209    0.581469   -0.861091
      5          1           0        1.078213   -0.875027   -0.076902
      6          1           0       -1.132120    0.904556    0.034969
 ---------------------------------------------------------------------

 SCF Done:  E(RB2PLYPD3) =  -115.518921249     A.U. after   11 cycles
 E2(B2PLYPD3) =    -0.1496379346D+00 E(B2PLYPD3) =    -0.11566855918390D+03

 The electronic state is 1-A.
 Alpha  occ. eigenvalues --  -19.73420 -10.62964  -1.14001  -0.79044  -0.56831
 Alpha  occ. eigenvalues --   -0.53274  -0.50169  -0.40709  -0.34927
 Alpha virt. eigenvalues --    0.03376   0.08069   0.12468   0.12886   0.14677
 Alpha virt. eigenvalues --    0.17577   0.18125   0.28378   0.29712   0.33093
 Alpha virt. eigenvalues --    0.34492   0.39378   0.41394   0.42702   0.43936

 Mulliken charges:
               1
     1  C    0.085669
     2  O   -0.486934
     3  H    0.044472
     4  H    0.040895
     5  H    0.065491
     6  H    0.250407
 Sum of Mulliken charges =   0.00000

 Dipole moment (field-independent basis, Debye):
    X=              0.9495    Y=              1.6097    Z=              0.0725  Tot=              1.8702
 Quadrupole moment (field-independent basis, Debye-Ang):
   XX=            -13.1946   YY=            -11.8791   ZZ=            -13.6738
   XY=             -2.4606   XZ=              0.0269   YZ=              0.0899

 Normal termination of Gaussian 09 at Wed Aug 26 15:21:32 2020.
