 Gaussian 09, Revision D.01,
 Gaussian 09:  ES64L-G09RevD.01 24-Apr-2013

 --------------------
 #p B2PLYPD3/Def2QZVP
 --------------------

 --------
 methanol
 --------
 Symbolic Z-matrix:
 Charge =  0 Multiplicity = 1

                         Standard orientation:
 ---------------------------------------------------------------------
 Center     Atomic      Atomic             Coordinates (Angstroms)
 Number     Number       Type             X           Y           Z
 ---------------------------------------------------------------------
      1          6           0       -0.652904   -0.034923   -0.001881
      2          8           0        0.744714    0.088769   -0.014441
      3          1           0       -0.956833   -0.437042    1.010651
      4          1           0       -1.060148   -0.686979   -0.838654
      5          1           0       -1.140632    1.111043   -0.091709
      6          1           0        1.117326   -0.487640    0.046525
 ---------------------------------------------------------------------

 SCF Done:  E(RB2PLYPD3) =  -115.399729333     A.U. after   11 cycles
 E2(B2PLYPD3) =    -0.1438656490D+00 E(B2PLYPD3) =    -0.11554359498235D+03

 The electronic state is 1-A.
 Alpha  occ. eigenvalues --  -19.69707 -10.68723  -1.24938  -0.81596  -0.62207
 Alpha  occ. eigenvalues --   -0.52238  -0.49585  -0.39810  -0.36220
 Alpha virt. eigenvalues --    0.05239   0.09215   0.11519   0.12032   0.14497
 Alpha virt. eigenvalues --    0.16980   0.17840   0.28676   0.32811   0.33433
 Alpha virt. eigenvalues --    0.34447   0.38727   0.39576   0.40465   0.42631

 Mulliken charges:
               1
     1  C    0.050030
     2  O   -0.232297
     3  H    0.053894
     4  H    0.056351
     5  H    0.064600
     6  H    0.007422
 Sum of Mulliken charges =   0.00000

 Dipole moment (field-independent basis, Debye):
    X=             -0.7902    Y=             -1.2798    Z=              0.1448  Tot=              1.5111
 Quadrupole moment (field-independent basis, Debye-Ang):
   XX=            -12.9614   YY=            -12.6876   ZZ=            -13.5732
   XY=             -1.8502   XZ=              0.2763   YZ=             -0.0052

 Normal termination of Gaussian 09 at Wed Aug 26 13:06:23 2020.
