 Gaussian 09, Revision D.01,
 Gaussian 09:  ES64L-G09RevD.01 24-Apr-2013

 --------------------
 #p B2PLYPD3/Def2QZVP
 --------------------

 --------
 methanol
 --------
 Symbolic Z-matrix:
 Charge =  0 Multiplicity = 1

                         Standard orientation:
 ---------------------------------------------------------------------
 Center     Atomic      Atomic             Coordinates (Angstroms)
 Number     Number       Type             X           Y           Z
 ---------------------------------------------------------------------
      1          6           0       -0.664538    0.012473   -0.013965
      2          8           0        0.753507   -0.197487    0.004026
      3          1           0       -0.953245    0.528100   -0.775690
      4          1           0       -1.078930    0.499312    0.777937
      5          1           0       -1.174389   -0.737361    0.016045
      6          1           0        1.165737    1.215005    0.033289
 ---------------------------------------------------------------------

 SCF Done:  E(RB2PLYPD3) =  -115.396944993     A.U. after   11 cycles
 E2(B2PLYPD3) =    -0.1574403406D+00 E(B2PLYPD3) =    -0.11555438533372D+03

 The electronic state is 1-A.
 Alpha  occ. eigenvalues --  -19.75940 -10.60969  -1.11164  -0.81932  -0.55096
 Alpha  occ. eigenvalues --   -0.52044  -0.49506  -0.39307  -0.35324
 Alpha virt. eigenvalues --   -0.03009   0.07307   0.12816   0.12980   0.14390
 Alpha virt. eigenvalues --    0.18247   0.18710   0.21761   0.29688   0.32990
 Alpha virt. eigenvalues --    0.33768   0.38528   0.40550   0.42326   0.44561

 Mulliken charges:
               1
     1  C    0.108349
     2  O   -0.477858
     3  H    0.037899
     4  H    0.032117
     5  H    0.065202
     6  H    0.234291
 Sum of Mulliken charges =   0.00000

 Dipole moment (field-independent basis, Debye):
    X=             -1.2402    Y=              1.7649    Z=              0.0129  Tot=              2.1571
 Quadrupole moment (field-independent basis, Debye-Ang):
   XX=            -13.0405   YY=            -11.2356   ZZ=            -14.0464
   XY=              2.5160   XZ=             -0.0341   YZ=             -0.0473

 Normal termination of Gaussian 09 at Wed Aug 26 21:21:11 2020.
