 Gaussian 09, Revision D.01,
 Gaussian 09:  ES64L-G09RevD.01 24-Apr-2013

 --------------------
 #p B2PLYPD3/Def2QZVP
 --------------------

 --------
 methanol
 --------
 Symbolic Z-matrix:
 Charge =  0 Multiplicity = 1

                         Standard orientation:
 ---------------------------------------------------------------------
 Center     Atomic      Atomic             Coordinates (Angstroms)
 Number     Number       Type             X           Y           Z
 ---------------------------------------------------------------------
      1          6           0        0.662994    0.018465    0.001365
      2          8           0       -0.747089   -0.137321   -0.009523
      3          1           0        0.986950    0.470410    0.904319
      4          1           0        1.037724    0.601916   -0.836483
      5          1           0        1.116824   -0.920390   -0.038347
      6          1           0       -1.142748    0.835843    0.038505
 ---------------------------------------------------------------------

 SCF Done:  E(RB2PLYPD3) =  -115.542462289     A.U. after   11 cycles
 E2(B2PLYPD3) =    -0.1486687890D+00 E(B2PLYPD3) =    -0.11569113107790D+03

 The electronic state is 1-A.
 Alpha  occ. eigenvalues --  -19.73300 -10.64547  -1.14620  -0.78712  -0.57400
 Alpha  occ. eigenvalues --   -0.51964  -0.50183  -0.41006  -0.35195
 Alpha virt. eigenvalues --    0.04262   0.07970   0.12452   0.12735   0.14778
 Alpha virt. eigenvalues --    0.17616   0.18187   0.29129   0.31496   0.33313
 Alpha virt. eigenvalues --    0.33947   0.39285   0.40546   0.41335   0.43793

 Mulliken charges:
               1
     1  C    0.077429
     2  O   -0.479946
     3  H    0.045630
     4  H    0.042620
     5  H    0.068323
     6  H    0.245944
 Sum of Mulliken charges =   0.00000

 Dipole moment (field-independent basis, Debye):
    X=              0.9181    Y=              1.5685    Z=              0.1059  Tot=              1.8205
 Quadrupole moment (field-independent basis, Debye-Ang):
   XX=            -13.0152   YY=            -12.0838   ZZ=            -13.8250
   XY=             -2.3999   XZ=             -0.1222   YZ=              0.0549

 Normal termination of Gaussian 09 at Wed Aug 26 23:02:28 2020.
