 Gaussian 09, Revision D.01,
 Gaussian 09:  ES64L-G09RevD.01 24-Apr-2013

 --------------------
 #p B2PLYPD3/Def2QZVP
 --------------------

 --------
 methanol
 --------
 Symbolic Z-matrix:
 Charge =  0 Multiplicity = 1

                         Standard orientation:
 ---------------------------------------------------------------------
 Center     Atomic      Atomic             Coordinates (Angstroms)
 Number     Number       Type             X           Y           Z
 ---------------------------------------------------------------------
      1          6           0        0.652840    0.027925    0.001208
      2          8           0       -0.739949   -0.142933   -0.008251
      3          1           0        1.025394    0.464238    0.865577
      4          1           0        1.031732    0.598348   -0.817779
      5          1           0        1.100381   -0.952833   -0.037575
      6          1           0       -1.154953    0.866156    0.048539
 ---------------------------------------------------------------------

 SCF Done:  E(RB2PLYPD3) =  -115.534824561     A.U. after   11 cycles
 E2(B2PLYPD3) =    -0.1493050915D+00 E(B2PLYPD3) =    -0.11568412965229D+03

 The electronic state is 1-A.
 Alpha  occ. eigenvalues --  -19.73744 -10.64251  -1.14652  -0.78475  -0.57525
 Alpha  occ. eigenvalues --   -0.52215  -0.49674  -0.40725  -0.35228
 Alpha virt. eigenvalues --    0.03809   0.07856   0.12516   0.12720   0.15053
 Alpha virt. eigenvalues --    0.17483   0.18304   0.28870   0.30302   0.33525
 Alpha virt. eigenvalues --    0.34791   0.38821   0.39816   0.42000   0.44226

 Mulliken charges:
               1
     1  C    0.077285
     2  O   -0.476601
     3  H    0.045133
     4  H    0.042571
     5  H    0.061563
     6  H    0.250048
 Sum of Mulliken charges =   0.00000

 Dipole moment (field-independent basis, Debye):
    X=              0.8484    Y=              1.6386    Z=              0.1245  Tot=              1.8494
 Quadrupole moment (field-independent basis, Debye-Ang):
   XX=            -12.9908   YY=            -12.0121   ZZ=            -13.9136
   XY=             -2.3301   XZ=             -0.0853   YZ=              0.0614

 Normal termination of Gaussian 09 at Thu Aug 27 00:15:10 2020.
