 Gaussian 09, Revision D.01,
 Gaussian 09:  ES64L-G09RevD.01 24-Apr-2013

 --------------------
 #p B2PLYPD3/Def2QZVP
 --------------------

 --------
 methanol
 --------
 Symbolic Z-matrix:
 Charge =  0 Multiplicity = 1

                         Standard orientation:
 ---------------------------------------------------------------------
 Center     Atomic      Atomic             Coordinates (Angstroms)
 Number     Number       Type             X           Y           Z
 ---------------------------------------------------------------------
      1          6           0        0.662576    0.028145   -0.001671
      2          8           0       -0.739506   -0.152184    0.000514
      3          1           0        1.036004    0.516105    0.835921
      4          1           0        1.070151    0.558354   -0.790882
      5          1           0        1.075216   -0.939775   -0.025265
      6          1           0       -1.240779    0.913914   -0.013859
 ---------------------------------------------------------------------

 SCF Done:  E(RB2PLYPD3) =  -115.514109621     A.U. after   11 cycles
 E2(B2PLYPD3) =    -0.1509361701D+00 E(B2PLYPD3) =    -0.11566504579081D+03

 The electronic state is 1-A.
 Alpha  occ. eigenvalues --  -19.74198 -10.63623  -1.13157  -0.78825  -0.56702
 Alpha  occ. eigenvalues --   -0.51719  -0.49392  -0.40554  -0.35060
 Alpha virt. eigenvalues --    0.02736   0.07605   0.12512   0.12974   0.15193
 Alpha virt. eigenvalues --    0.17261   0.18338   0.27044   0.29617   0.33670
 Alpha virt. eigenvalues --    0.34618   0.38922   0.39188   0.42184   0.44442

 Mulliken charges:
               1
     1  C    0.082957
     2  O   -0.489526
     3  H    0.044519
     4  H    0.042976
     5  H    0.065047
     6  H    0.254027
 Sum of Mulliken charges =   0.00000

 Dipole moment (field-independent basis, Debye):
    X=              0.8230    Y=              1.6775    Z=             -0.0277  Tot=              1.8687
 Quadrupole moment (field-independent basis, Debye-Ang):
   XX=            -12.6477   YY=            -11.8984   ZZ=            -14.0499
   XY=             -2.4264   XZ=             -0.0050   YZ=             -0.0181

 Normal termination of Gaussian 09 at Wed Aug 26 11:47:18 2020.
