 Gaussian 09, Revision D.01,
 Gaussian 09:  ES64L-G09RevD.01 24-Apr-2013

 --------------------
 #p B2PLYPD3/Def2QZVP
 --------------------

 --------
 methanol
 --------
 Symbolic Z-matrix:
 Charge =  0 Multiplicity = 1

                         Standard orientation:
 ---------------------------------------------------------------------
 Center     Atomic      Atomic             Coordinates (Angstroms)
 Number     Number       Type             X           Y           Z
 ---------------------------------------------------------------------
      1          6           0        0.666123   -0.025113    0.003837
      2          8           0       -0.753420    0.098796   -0.000697
      3          1           0        1.024746   -0.623561   -0.884292
      4          1           0        1.063980   -0.473327    0.941030
      5          1           0        1.079862    1.063526   -0.089734
      6          1           0       -1.137967   -0.606335    0.015555
 ---------------------------------------------------------------------

 SCF Done:  E(RB2PLYPD3) =  -115.516051276     A.U. after   10 cycles
 E2(B2PLYPD3) =    -0.1451995500D+00 E(B2PLYPD3) =    -0.11566125082646D+03

 The electronic state is 1-A.
 Alpha  occ. eigenvalues --  -19.71009 -10.67501  -1.20028  -0.79753  -0.60747
 Alpha  occ. eigenvalues --   -0.51598  -0.49458  -0.40687  -0.35927
 Alpha virt. eigenvalues --    0.05377   0.08734   0.11941   0.12182   0.14743
 Alpha virt. eigenvalues --    0.17004   0.18002   0.28951   0.32881   0.33297
 Alpha virt. eigenvalues --    0.36693   0.38768   0.39718   0.40112   0.42359

 Mulliken charges:
               1
     1  C    0.058769
     2  O   -0.359383
     3  H    0.050727
     4  H    0.056661
     5  H    0.070119
     6  H    0.123108
 Sum of Mulliken charges =   0.00000

 Dipole moment (field-independent basis, Debye):
    X=              0.8603    Y=             -1.3695    Z=              0.0426  Tot=              1.6178
 Quadrupole moment (field-independent basis, Debye-Ang):
   XX=            -12.9438   YY=            -12.5021   ZZ=            -13.6870
   XY=              2.0254   XZ=             -0.0038   YZ=             -0.0378

 Normal termination of Gaussian 09 at Wed Aug 26 23:59:07 2020.
