 Gaussian 09, Revision D.01,
 Gaussian 09:  ES64L-G09RevD.01 24-Apr-2013

 --------------------
 #p B2PLYPD3/Def2QZVP
 --------------------

 --------
 methanol
 --------
 Symbolic Z-matrix:
 Charge =  0 Multiplicity = 1

                         Standard orientation:
 ---------------------------------------------------------------------
 Center     Atomic      Atomic             Coordinates (Angstroms)
 Number     Number       Type             X           Y           Z
 ---------------------------------------------------------------------
      1          6           0       -0.665639   -0.027719    0.014147
      2          8           0        0.751717    0.097765   -0.019724
      3          1           0       -0.947512   -0.410124    0.963788
      4          1           0       -1.040730   -0.682212   -0.851452
      5          1           0       -1.082835    1.076916   -0.114166
      6          1           0        1.051169   -0.600391    0.074738
 ---------------------------------------------------------------------

 SCF Done:  E(RB2PLYPD3) =  -115.489244555     A.U. after   10 cycles
 E2(B2PLYPD3) =    -0.1446428680D+00 E(B2PLYPD3) =    -0.11563388742288D+03

 The electronic state is 1-A.
 Alpha  occ. eigenvalues --  -19.70487 -10.67290  -1.21818  -0.79945  -0.61086
 Alpha  occ. eigenvalues --   -0.52523  -0.49272  -0.41237  -0.36120
 Alpha virt. eigenvalues --    0.05336   0.09089   0.11746   0.12063   0.14611
 Alpha virt. eigenvalues --    0.17110   0.17764   0.28805   0.32583   0.33104
 Alpha virt. eigenvalues --    0.36256   0.38303   0.40025   0.41343   0.43351

 Mulliken charges:
               1
     1  C    0.060920
     2  O   -0.317890
     3  H    0.060546
     4  H    0.049009
     5  H    0.066080
     6  H    0.081334
 Sum of Mulliken charges =   0.00000

 Dipole moment (field-independent basis, Debye):
    X=             -0.9791    Y=             -1.3672    Z=              0.2613  Tot=              1.7018
 Quadrupole moment (field-independent basis, Debye-Ang):
   XX=            -13.3902   YY=            -12.3773   ZZ=            -13.5126
   XY=             -1.9064   XZ=              0.2445   YZ=             -0.1473

 Normal termination of Gaussian 09 at Wed Aug 26 12:48:30 2020.
