 Gaussian 09, Revision D.01,
 Gaussian 09:  ES64L-G09RevD.01 24-Apr-2013

 --------------------
 #p B2PLYPD3/Def2QZVP
 --------------------

 --------
 methanol
 --------
 Symbolic Z-matrix:
 Charge =  0 Multiplicity = 1

                         Standard orientation:
 ---------------------------------------------------------------------
 Center     Atomic      Atomic             Coordinates (Angstroms)
 Number     Number       Type             X           Y           Z
 ---------------------------------------------------------------------
      1          6           0       -0.679637    0.031065   -0.016251
      2          8           0        0.726986   -0.188765   -0.002688
      3          1           0       -1.153141    0.430690   -0.718340
      4          1           0       -0.891313    0.641508    0.760869
      5          1           0       -0.971549   -0.876426    0.132720
      6          1           0        1.277936    1.127958   -0.056237
 ---------------------------------------------------------------------

 SCF Done:  E(RB2PLYPD3) =  -115.416508454     A.U. after   12 cycles
 E2(B2PLYPD3) =    -0.1564281925D+00 E(B2PLYPD3) =    -0.11557293664687D+03

 The electronic state is 1-A.
 Alpha  occ. eigenvalues --  -19.75357 -10.61267  -1.11705  -0.80524  -0.56950
 Alpha  occ. eigenvalues --   -0.52894  -0.47955  -0.39479  -0.34970
 Alpha virt. eigenvalues --   -0.01713   0.07546   0.12345   0.13186   0.14798
 Alpha virt. eigenvalues --    0.16882   0.18439   0.22016   0.29533   0.32369
 Alpha virt. eigenvalues --    0.34883   0.37968   0.39304   0.43435   0.46564

 Mulliken charges:
               1
     1  C    0.095548
     2  O   -0.472597
     3  H    0.045323
     4  H    0.037917
     5  H    0.070716
     6  H    0.223092
 Sum of Mulliken charges =   0.00000

 Dipole moment (field-independent basis, Debye):
    X=             -1.0624    Y=              1.7179    Z=             -0.0830  Tot=              2.0216
 Quadrupole moment (field-independent basis, Debye-Ang):
   XX=            -12.8936   YY=            -11.2995   ZZ=            -14.1072
   XY=              2.3668   XZ=              0.1391   YZ=             -0.1345

 Normal termination of Gaussian 09 at Wed Aug 26 21:20:38 2020.
