 Gaussian 09, Revision D.01,
 Gaussian 09:  ES64L-G09RevD.01 24-Apr-2013

 --------------------
 #p B2PLYPD3/Def2QZVP
 --------------------

 --------
 methanol
 --------
 Symbolic Z-matrix:
 Charge =  0 Multiplicity = 1

                         Standard orientation:
 ---------------------------------------------------------------------
 Center     Atomic      Atomic             Coordinates (Angstroms)
 Number     Number       Type             X           Y           Z
 ---------------------------------------------------------------------
      1          6           0        0.642595    0.045942   -0.017531
      2          8           0       -0.746605   -0.189552    0.016070
      3          1           0        1.047782    0.583145    0.738677
      4          1           0        1.012103    0.385516   -0.725268
      5          1           0        1.140449   -0.906573    0.037695
      6          1           0       -1.083065    1.178679   -0.074473
 ---------------------------------------------------------------------

 SCF Done:  E(RB2PLYPD3) =  -115.403429895     A.U. after   11 cycles
 E2(B2PLYPD3) =    -0.1563025851D+00 E(B2PLYPD3) =    -0.11555973248024D+03

 The electronic state is 1-A.
 Alpha  occ. eigenvalues --  -19.76103 -10.61638  -1.12570  -0.81482  -0.54922
 Alpha  occ. eigenvalues --   -0.53543  -0.49229  -0.38978  -0.35900
 Alpha virt. eigenvalues --   -0.01887   0.07334   0.12355   0.13071   0.14812
 Alpha virt. eigenvalues --    0.18003   0.18655   0.21855   0.29431   0.33934
 Alpha virt. eigenvalues --    0.34843   0.37260   0.39374   0.42754   0.45383

 Mulliken charges:
               1
     1  C    0.075396
     2  O   -0.461110
     3  H    0.038130
     4  H    0.077181
     5  H    0.038625
     6  H    0.231778
 Sum of Mulliken charges =   0.00000

 Dipole moment (field-independent basis, Debye):
    X=              1.1969    Y=              1.8471    Z=             -0.2246  Tot=              2.2125
 Quadrupole moment (field-independent basis, Debye-Ang):
   XX=            -13.4621   YY=            -11.2764   ZZ=            -14.0526
   XY=             -2.0663   XZ=              0.0075   YZ=             -0.1394

 Normal termination of Gaussian 09 at Wed Aug 26 23:54:53 2020.
