 Gaussian 09, Revision D.01,
 Gaussian 09:  ES64L-G09RevD.01 24-Apr-2013

 --------------------
 #p B2PLYPD3/Def2QZVP
 --------------------

 --------
 methanol
 --------
 Symbolic Z-matrix:
 Charge =  0 Multiplicity = 1

                         Standard orientation:
 ---------------------------------------------------------------------
 Center     Atomic      Atomic             Coordinates (Angstroms)
 Number     Number       Type             X           Y           Z
 ---------------------------------------------------------------------
      1          6           0       -0.676922    0.008849   -0.000271
      2          8           0        0.735656   -0.147947   -0.016541
      3          1           0       -1.046983    0.638583   -0.818044
      4          1           0       -0.998166    0.473036    0.881231
      5          1           0       -1.045664   -0.874925   -0.012848
      6          1           0        1.267098    0.893790    0.083612
 ---------------------------------------------------------------------

 SCF Done:  E(RB2PLYPD3) =  -115.506163502     A.U. after   11 cycles
 E2(B2PLYPD3) =    -0.1507023616D+00 E(B2PLYPD3) =    -0.11565686586398D+03

 The electronic state is 1-A.
 Alpha  occ. eigenvalues --  -19.73703 -10.63445  -1.12714  -0.79153  -0.56506
 Alpha  occ. eigenvalues --   -0.51364  -0.50440  -0.40516  -0.34620
 Alpha virt. eigenvalues --    0.02805   0.07715   0.12640   0.12897   0.14918
 Alpha virt. eigenvalues --    0.17183   0.18190   0.27380   0.29591   0.33307
 Alpha virt. eigenvalues --    0.34122   0.38446   0.40942   0.41411   0.43729

 Mulliken charges:
               1
     1  C    0.082498
     2  O   -0.502481
     3  H    0.042482
     4  H    0.042338
     5  H    0.078540
     6  H    0.256623
 Sum of Mulliken charges =   0.00000

 Dipole moment (field-independent basis, Debye):
    X=             -0.8080    Y=              1.5804    Z=              0.2158  Tot=              1.7881
 Quadrupole moment (field-independent basis, Debye-Ang):
   XX=            -12.6006   YY=            -11.9133   ZZ=            -13.9490
   XY=              2.5989   XZ=              0.1864   YZ=              0.1025

 Normal termination of Gaussian 09 at Wed Aug 26 14:47:50 2020.
