 Gaussian 09, Revision D.01,
 Gaussian 09:  ES64L-G09RevD.01 24-Apr-2013

 --------------------
 #p B2PLYPD3/Def2QZVP
 --------------------

 --------
 methanol
 --------
 Symbolic Z-matrix:
 Charge =  0 Multiplicity = 1

                         Standard orientation:
 ---------------------------------------------------------------------
 Center     Atomic      Atomic             Coordinates (Angstroms)
 Number     Number       Type             X           Y           Z
 ---------------------------------------------------------------------
      1          6           0       -0.664152   -0.018311   -0.004174
      2          8           0        0.753619    0.107635   -0.004106
      3          1           0       -1.028429   -0.530594    0.939517
      4          1           0       -1.015405   -0.571969   -0.918563
      5          1           0       -1.127082    0.995707   -0.000006
      6          1           0        1.126877   -0.644356    0.036942
 ---------------------------------------------------------------------

 SCF Done:  E(RB2PLYPD3) =  -115.534364383     A.U. after   10 cycles
 E2(B2PLYPD3) =    -0.1455983911D+00 E(B2PLYPD3) =    -0.11567996277393D+03

 The electronic state is 1-A.
 Alpha  occ. eigenvalues --  -19.71443 -10.67035  -1.19004  -0.79386  -0.60012
 Alpha  occ. eigenvalues --   -0.51583  -0.50217  -0.40818  -0.35681
 Alpha virt. eigenvalues --    0.05355   0.08603   0.12055   0.12390   0.14515
 Alpha virt. eigenvalues --    0.17362   0.18009   0.28945   0.32931   0.33172
 Alpha virt. eigenvalues --    0.36806   0.39222   0.39492   0.39952   0.43311

 Mulliken charges:
               1
     1  C    0.064220
     2  O   -0.395168
     3  H    0.046483
     4  H    0.050818
     5  H    0.074376
     6  H    0.159271
 Sum of Mulliken charges =   0.00000

 Dipole moment (field-independent basis, Debye):
    X=             -0.8910    Y=             -1.3611    Z=              0.0722  Tot=              1.6284
 Quadrupole moment (field-independent basis, Debye-Ang):
   XX=            -12.9801   YY=            -12.5056   ZZ=            -13.6771
   XY=             -2.2097   XZ=              0.0941   YZ=             -0.0160

 Normal termination of Gaussian 09 at Wed Aug 26 09:16:48 2020.
