 Gaussian 09, Revision D.01,
 Gaussian 09:  ES64L-G09RevD.01 24-Apr-2013

 --------------------
 #p B2PLYPD3/Def2QZVP
 --------------------

 --------
 methanol
 --------
 Symbolic Z-matrix:
 Charge =  0 Multiplicity = 1

                         Standard orientation:
 ---------------------------------------------------------------------
 Center     Atomic      Atomic             Coordinates (Angstroms)
 Number     Number       Type             X           Y           Z
 ---------------------------------------------------------------------
      1          6           0       -0.664220    0.027030    0.003776
      2          8           0        0.738243   -0.140477   -0.002782
      3          1           0       -1.035848    0.528295   -0.840465
      4          1           0       -0.981121    0.525933    0.847690
      5          1           0       -1.046516   -0.962117   -0.000586
      6          1           0        1.142857    0.869520   -0.007036
 ---------------------------------------------------------------------

 SCF Done:  E(RB2PLYPD3) =  -115.534366705     A.U. after   11 cycles
 E2(B2PLYPD3) =    -0.1491754021D+00 E(B2PLYPD3) =    -0.11568354210684D+03

 The electronic state is 1-A.
 Alpha  occ. eigenvalues --  -19.73405 -10.63818  -1.14307  -0.78728  -0.57589
 Alpha  occ. eigenvalues --   -0.52673  -0.49277  -0.41040  -0.35214
 Alpha virt. eigenvalues --    0.03915   0.08033   0.12477   0.12671   0.15053
 Alpha virt. eigenvalues --    0.17236   0.18152   0.28990   0.30634   0.33459
 Alpha virt. eigenvalues --    0.34504   0.39011   0.39852   0.42432   0.44492

 Mulliken charges:
               1
     1  C    0.080857
     2  O   -0.482594
     3  H    0.044254
     4  H    0.046401
     5  H    0.065550
     6  H    0.245532
 Sum of Mulliken charges =   0.00000

 Dipole moment (field-independent basis, Debye):
    X=             -0.9166    Y=              1.6340    Z=              0.0089  Tot=              1.8735
 Quadrupole moment (field-independent basis, Debye-Ang):
   XX=            -13.1290   YY=            -11.8918   ZZ=            -13.8160
   XY=              2.2716   XZ=              0.0199   YZ=              0.0129

 Normal termination of Gaussian 09 at Thu Aug 27 00:12:55 2020.
