 Gaussian 09, Revision D.01,
 Gaussian 09:  ES64L-G09RevD.01 24-Apr-2013

 --------------------
 #p B2PLYPD3/Def2QZVP
 --------------------

 --------
 methanol
 --------
 Symbolic Z-matrix:
 Charge =  0 Multiplicity = 1

                         Standard orientation:
 ---------------------------------------------------------------------
 Center     Atomic      Atomic             Coordinates (Angstroms)
 Number     Number       Type             X           Y           Z
 ---------------------------------------------------------------------
      1          6           0       -0.666625    0.020537   -0.021513
      2          8           0        0.740804   -0.157976    0.005405
      3          1           0       -1.015762    0.513539   -0.812594
      4          1           0       -1.104416    0.501475    0.853777
      5          1           0       -1.006093   -0.881001    0.024539
      6          1           0        1.199591    1.006573    0.020119
 ---------------------------------------------------------------------

 SCF Done:  E(RB2PLYPD3) =  -115.482950345     A.U. after   11 cycles
 E2(B2PLYPD3) =    -0.1525978631D+00 E(B2PLYPD3) =    -0.11563554820835D+03

 The electronic state is 1-A.
 Alpha  occ. eigenvalues --  -19.74660 -10.62742  -1.12597  -0.79421  -0.56599
 Alpha  occ. eigenvalues --   -0.51816  -0.49204  -0.40665  -0.35068
 Alpha virt. eigenvalues --    0.01562   0.07601   0.12675   0.12851   0.15040
 Alpha virt. eigenvalues --    0.17096   0.18570   0.25114   0.29436   0.33524
 Alpha virt. eigenvalues --    0.34479   0.38242   0.40030   0.42047   0.44609

 Mulliken charges:
               1
     1  C    0.082980
     2  O   -0.487784
     3  H    0.047390
     4  H    0.036952
     5  H    0.070992
     6  H    0.249470
 Sum of Mulliken charges =   0.00000

 Dipole moment (field-independent basis, Debye):
    X=             -0.9577    Y=              1.6397    Z=             -0.0489  Tot=              1.8996
 Quadrupole moment (field-independent basis, Debye-Ang):
   XX=            -12.9716   YY=            -11.6747   ZZ=            -13.9551
   XY=              2.4316   XZ=              0.0490   YZ=             -0.0994

 Normal termination of Gaussian 09 at Wed Aug 26 14:59:26 2020.
