 Gaussian 09, Revision D.01,
 Gaussian 09:  ES64L-G09RevD.01 24-Apr-2013

 --------------------
 #p B2PLYPD3/Def2QZVP
 --------------------

 --------
 methanol
 --------
 Symbolic Z-matrix:
 Charge =  0 Multiplicity = 1

                         Standard orientation:
 ---------------------------------------------------------------------
 Center     Atomic      Atomic             Coordinates (Angstroms)
 Number     Number       Type             X           Y           Z
 ---------------------------------------------------------------------
      1          6           0        0.653848   -0.024399    0.016292
      2          8           0       -0.763258    0.081323   -0.003285
      3          1           0        1.063723   -0.701125   -0.869900
      4          1           0        1.067050   -0.395233    0.989023
      5          1           0        1.100012    1.108237   -0.192606
      6          1           0       -1.047809   -0.516070    0.002014
 ---------------------------------------------------------------------

 SCF Done:  E(RB2PLYPD3) =  -115.354998776     A.U. after   11 cycles
 E2(B2PLYPD3) =    -0.1440374825D+00 E(B2PLYPD3) =    -0.11549903625836D+03

 The electronic state is 1-A.
 Alpha  occ. eigenvalues --  -19.69914 -10.69113  -1.26512  -0.81041  -0.62351
 Alpha  occ. eigenvalues --   -0.51677  -0.49571  -0.40738  -0.36662
 Alpha virt. eigenvalues --    0.05196   0.09167   0.11348   0.11906   0.14616
 Alpha virt. eigenvalues --    0.17057   0.17929   0.28464   0.32353   0.33009
 Alpha virt. eigenvalues --    0.34752   0.37192   0.39612   0.40483   0.42673

 Mulliken charges:
               1
     1  C    0.045205
     2  O   -0.213370
     3  H    0.045432
     4  H    0.064994
     5  H    0.065405
     6  H   -0.007667
 Sum of Mulliken charges =   0.00000

 Dipole moment (field-independent basis, Debye):
    X=              0.9687    Y=             -1.2602    Z=              0.0696  Tot=              1.5910
 Quadrupole moment (field-independent basis, Debye-Ang):
   XX=            -13.2098   YY=            -12.6135   ZZ=            -13.5641
   XY=              1.7696   XZ=              0.0303   YZ=             -0.0758

 Normal termination of Gaussian 09 at Wed Aug 26 14:22:55 2020.
