 Gaussian 09, Revision D.01,
 Gaussian 09:  ES64L-G09RevD.01 24-Apr-2013

 --------------------
 #p B2PLYPD3/Def2QZVP
 --------------------

 --------
 methanol
 --------
 Symbolic Z-matrix:
 Charge =  0 Multiplicity = 1

                         Standard orientation:
 ---------------------------------------------------------------------
 Center     Atomic      Atomic             Coordinates (Angstroms)
 Number     Number       Type             X           Y           Z
 ---------------------------------------------------------------------
      1          6           0       -0.671664    0.027442    0.010063
      2          8           0        0.753693   -0.143625   -0.010804
      3          1           0       -1.092546    0.587650   -0.817917
      4          1           0       -1.034645    0.487238    0.835610
      5          1           0       -1.099917   -0.959789   -0.028524
      6          1           0        1.227549    0.869254    0.036882
 ---------------------------------------------------------------------

 SCF Done:  E(RB2PLYPD3) =  -115.526831406     A.U. after   11 cycles
 E2(B2PLYPD3) =    -0.1502487033D+00 E(B2PLYPD3) =    -0.11567708010902D+03

 The electronic state is 1-A.
 Alpha  occ. eigenvalues --  -19.73918 -10.64433  -1.13050  -0.78853  -0.56840
 Alpha  occ. eigenvalues --   -0.51418  -0.49081  -0.40843  -0.35295
 Alpha virt. eigenvalues --    0.03593   0.07570   0.12420   0.12827   0.15059
 Alpha virt. eigenvalues --    0.17309   0.18335   0.28543   0.29907   0.33486
 Alpha virt. eigenvalues --    0.33759   0.38612   0.39310   0.41467   0.44377

 Mulliken charges:
               1
     1  C    0.079906
     2  O   -0.493018
     3  H    0.043796
     4  H    0.051105
     5  H    0.065811
     6  H    0.252400
 Sum of Mulliken charges =   0.00000

 Dipole moment (field-independent basis, Debye):
    X=             -0.8795    Y=              1.6473    Z=              0.1417  Tot=              1.8727
 Quadrupole moment (field-independent basis, Debye-Ang):
   XX=            -12.6456   YY=            -12.0272   ZZ=            -14.0198
   XY=              2.3954   XZ=              0.0682   YZ=              0.1009

 Normal termination of Gaussian 09 at Wed Aug 26 15:10:59 2020.
