 Gaussian 09, Revision D.01,
 Gaussian 09:  ES64L-G09RevD.01 24-Apr-2013

 --------------------
 #p B2PLYPD3/Def2QZVP
 --------------------

 --------
 methanol
 --------
 Symbolic Z-matrix:
 Charge =  0 Multiplicity = 1

                         Standard orientation:
 ---------------------------------------------------------------------
 Center     Atomic      Atomic             Coordinates (Angstroms)
 Number     Number       Type             X           Y           Z
 ---------------------------------------------------------------------
      1          6           0        0.663692    0.038539    0.017066
      2          8           0       -0.748311   -0.146619   -0.008132
      3          1           0        1.056473    0.413393    0.832484
      4          1           0        1.072415    0.596563   -0.802628
      5          1           0        1.051104   -0.982557   -0.096277
      6          1           0       -1.175661    0.914323    0.029084
 ---------------------------------------------------------------------

 SCF Done:  E(RB2PLYPD3) =  -115.515879404     A.U. after   11 cycles
 E2(B2PLYPD3) =    -0.1507824650D+00 E(B2PLYPD3) =    -0.11566666186893D+03

 The electronic state is 1-A.
 Alpha  occ. eigenvalues --  -19.74246 -10.63995  -1.13390  -0.78919  -0.56887
 Alpha  occ. eigenvalues --   -0.52370  -0.48598  -0.40560  -0.35575
 Alpha virt. eigenvalues --    0.03234   0.07665   0.12255   0.12822   0.15173
 Alpha virt. eigenvalues --    0.17153   0.18556   0.27756   0.29619   0.33889
 Alpha virt. eigenvalues --    0.34194   0.37664   0.39335   0.42406   0.45000

 Mulliken charges:
               1
     1  C    0.076922
     2  O   -0.481376
     3  H    0.054545
     4  H    0.043483
     5  H    0.057046
     6  H    0.249380
 Sum of Mulliken charges =   0.00000

 Dipole moment (field-independent basis, Debye):
    X=              0.9184    Y=              1.6878    Z=              0.1232  Tot=              1.9254
 Quadrupole moment (field-independent basis, Debye-Ang):
   XX=            -12.9707   YY=            -11.9266   ZZ=            -13.9384
   XY=             -2.2366   XZ=             -0.0035   YZ=              0.1063

 Normal termination of Gaussian 09 at Wed Aug 26 11:23:54 2020.
