 Gaussian 09, Revision D.01,
 Gaussian 09:  ES64L-G09RevD.01 24-Apr-2013

 --------------------
 #p B2PLYPD3/Def2QZVP
 --------------------

 --------
 methanol
 --------
 Symbolic Z-matrix:
 Charge =  0 Multiplicity = 1

                         Standard orientation:
 ---------------------------------------------------------------------
 Center     Atomic      Atomic             Coordinates (Angstroms)
 Number     Number       Type             X           Y           Z
 ---------------------------------------------------------------------
      1          6           0        0.667041   -0.021123   -0.005204
      2          8           0       -0.742638    0.129538   -0.003076
      3          1           0        0.997807   -0.587727   -0.845075
      4          1           0        1.056083   -0.474817    0.886768
      5          1           0        1.029851    0.973526   -0.034273
      6          1           0       -1.144886   -0.820552    0.048416
 ---------------------------------------------------------------------

 SCF Done:  E(RB2PLYPD3) =  -115.545710747     A.U. after   10 cycles
 E2(B2PLYPD3) =    -0.1483787692D+00 E(B2PLYPD3) =    -0.11569408951583D+03

 The electronic state is 1-A.
 Alpha  occ. eigenvalues --  -19.73042 -10.64615  -1.14888  -0.78619  -0.58055
 Alpha  occ. eigenvalues --   -0.52112  -0.49447  -0.41203  -0.35225
 Alpha virt. eigenvalues --    0.04455   0.08111   0.12437   0.12557   0.15023
 Alpha virt. eigenvalues --    0.17092   0.18178   0.29124   0.32457   0.33424
 Alpha virt. eigenvalues --    0.34252   0.38879   0.39849   0.41666   0.44094

 Mulliken charges:
               1
     1  C    0.073267
     2  O   -0.475897
     3  H    0.047702
     4  H    0.045603
     5  H    0.069976
     6  H    0.239349
 Sum of Mulliken charges =   0.00000

 Dipole moment (field-independent basis, Debye):
    X=              0.8914    Y=             -1.5641    Z=              0.0814  Tot=              1.8021
 Quadrupole moment (field-independent basis, Debye-Ang):
   XX=            -13.0960   YY=            -12.0118   ZZ=            -13.8168
   XY=              2.2554   XZ=             -0.0676   YZ=             -0.0288

 Normal termination of Gaussian 09 at Thu Aug 27 00:02:35 2020.
