 Gaussian 09, Revision D.01,
 Gaussian 09:  ES64L-G09RevD.01 24-Apr-2013

 --------------------
 #p B2PLYPD3/Def2QZVP
 --------------------

 --------
 methanol
 --------
 Symbolic Z-matrix:
 Charge =  0 Multiplicity = 1

                         Standard orientation:
 ---------------------------------------------------------------------
 Center     Atomic      Atomic             Coordinates (Angstroms)
 Number     Number       Type             X           Y           Z
 ---------------------------------------------------------------------
      1          6           0       -0.660396   -0.025231    0.001901
      2          8           0        0.749713    0.116130   -0.017078
      3          1           0       -0.984641   -0.430261    0.947455
      4          1           0       -1.048453   -0.662628   -0.831403
      5          1           0       -1.130191    1.005448   -0.071226
      6          1           0        1.127954   -0.690209    0.080395
 ---------------------------------------------------------------------

 SCF Done:  E(RB2PLYPD3) =  -115.547401700     A.U. after   10 cycles
 E2(B2PLYPD3) =    -0.1463199503D+00 E(B2PLYPD3) =    -0.11569372165007D+03

 The electronic state is 1-A.
 Alpha  occ. eigenvalues --  -19.72044 -10.66362  -1.17750  -0.78887  -0.59649
 Alpha  occ. eigenvalues --   -0.51932  -0.49759  -0.40828  -0.35616
 Alpha virt. eigenvalues --    0.05208   0.08417   0.12197   0.12384   0.14728
 Alpha virt. eigenvalues --    0.17379   0.18076   0.29060   0.33212   0.33445
 Alpha virt. eigenvalues --    0.36388   0.38281   0.39707   0.40744   0.43790

 Mulliken charges:
               1
     1  C    0.067431
     2  O   -0.429480
     3  H    0.051092
     4  H    0.047760
     5  H    0.066877
     6  H    0.196320
 Sum of Mulliken charges =   0.00000

 Dipole moment (field-independent basis, Debye):
    X=             -0.8673    Y=             -1.4584    Z=              0.2216  Tot=              1.7112
 Quadrupole moment (field-independent basis, Debye-Ang):
   XX=            -13.0095   YY=            -12.3887   ZZ=            -13.7420
   XY=             -2.1859   XZ=              0.2482   YZ=             -0.0951

 Normal termination of Gaussian 09 at Wed Aug 26 12:12:33 2020.
