 Gaussian 09, Revision D.01,
 Gaussian 09:  ES64L-G09RevD.01 24-Apr-2013

 --------------------
 #p B2PLYPD3/Def2QZVP
 --------------------

 --------
 methanol
 --------
 Symbolic Z-matrix:
 Charge =  0 Multiplicity = 1

                         Standard orientation:
 ---------------------------------------------------------------------
 Center     Atomic      Atomic             Coordinates (Angstroms)
 Number     Number       Type             X           Y           Z
 ---------------------------------------------------------------------
      1          6           0       -0.660640   -0.012700    0.020689
      2          8           0        0.744851    0.100961   -0.026466
      3          1           0       -0.990085   -0.393474    0.957548
      4          1           0       -1.099533   -0.697602   -0.851668
      5          1           0       -1.050172    1.011492   -0.124038
      6          1           0        1.144821   -0.651905    0.105751
 ---------------------------------------------------------------------

 SCF Done:  E(RB2PLYPD3) =  -115.537579050     A.U. after   10 cycles
 E2(B2PLYPD3) =    -0.1457963531D+00 E(B2PLYPD3) =    -0.11568337540266D+03

 The electronic state is 1-A.
 Alpha  occ. eigenvalues --  -19.71671 -10.66699  -1.18663  -0.79449  -0.60286
 Alpha  occ. eigenvalues --   -0.51383  -0.50179  -0.40934  -0.35415
 Alpha virt. eigenvalues --    0.05306   0.08532   0.12113   0.12324   0.14878
 Alpha virt. eigenvalues --    0.17023   0.18070   0.28991   0.32880   0.33707
 Alpha virt. eigenvalues --    0.36704   0.38941   0.39203   0.40577   0.43500

 Mulliken charges:
               1
     1  C    0.063054
     2  O   -0.406259
     3  H    0.055777
     4  H    0.035907
     5  H    0.075239
     6  H    0.176281
 Sum of Mulliken charges =   0.00000

 Dipole moment (field-independent basis, Debye):
    X=             -0.7790    Y=             -1.3240    Z=              0.3710  Tot=              1.5803
 Quadrupole moment (field-independent basis, Debye-Ang):
   XX=            -12.9757   YY=            -12.4612   ZZ=            -13.7068
   XY=             -2.1455   XZ=              0.2846   YZ=             -0.2574

 Normal termination of Gaussian 09 at Wed Aug 26 13:41:33 2020.
