 Gaussian 09, Revision D.01,
 Gaussian 09:  ES64L-G09RevD.01 24-Apr-2013

 --------------------
 #p B2PLYPD3/Def2QZVP
 --------------------

 --------
 methanol
 --------
 Symbolic Z-matrix:
 Charge =  0 Multiplicity = 1

                         Standard orientation:
 ---------------------------------------------------------------------
 Center     Atomic      Atomic             Coordinates (Angstroms)
 Number     Number       Type             X           Y           Z
 ---------------------------------------------------------------------
      1          6           0        0.660922    0.046184    0.000231
      2          8           0       -0.722961   -0.204559   -0.002698
      3          1           0        1.039814    0.514443    0.749827
      4          1           0        1.142790    0.545271   -0.703717
      5          1           0        1.060194   -0.844085   -0.011633
      6          1           0       -1.424641    1.143734   -0.014274
 ---------------------------------------------------------------------

 SCF Done:  E(RB2PLYPD3) =  -115.400044383     A.U. after   12 cycles
 E2(B2PLYPD3) =    -0.1581951186D+00 E(B2PLYPD3) =    -0.11555823950153D+03

 The electronic state is 1-A.
 Alpha  occ. eigenvalues --  -19.76088 -10.61298  -1.11933  -0.81134  -0.55515
 Alpha  occ. eigenvalues --   -0.51798  -0.49314  -0.38499  -0.35156
 Alpha virt. eigenvalues --   -0.03709   0.07222   0.12465   0.13568   0.15021
 Alpha virt. eigenvalues --    0.17208   0.18620   0.20858   0.29654   0.33947
 Alpha virt. eigenvalues --    0.35090   0.38017   0.38596   0.43176   0.45536

 Mulliken charges:
               1
     1  C    0.098834
     2  O   -0.462126
     3  H    0.043249
     4  H    0.038132
     5  H    0.061016
     6  H    0.220894
 Sum of Mulliken charges =   0.00000

 Dipole moment (field-independent basis, Debye):
    X=              0.9101    Y=              1.7266    Z=              0.0111  Tot=              1.9518
 Quadrupole moment (field-independent basis, Debye-Ang):
   XX=            -12.1091   YY=            -11.5383   ZZ=            -14.3152
   XY=             -2.5776   XZ=             -0.0064   YZ=              0.0152

 Normal termination of Gaussian 09 at Wed Aug 26 23:18:18 2020.
