 Gaussian 09, Revision D.01,
 Gaussian 09:  ES64L-G09RevD.01 24-Apr-2013

 --------------------
 #p B2PLYPD3/Def2QZVP
 --------------------

 --------
 methanol
 --------
 Symbolic Z-matrix:
 Charge =  0 Multiplicity = 1

                         Standard orientation:
 ---------------------------------------------------------------------
 Center     Atomic      Atomic             Coordinates (Angstroms)
 Number     Number       Type             X           Y           Z
 ---------------------------------------------------------------------
      1          6           0        0.660700   -0.012856    0.002511
      2          8           0       -0.743915    0.095952   -0.005142
      3          1           0        0.980676   -0.680935   -0.873239
      4          1           0        1.044715   -0.413803    0.983839
      5          1           0        1.035030    1.022601   -0.143595
      6          1           0       -1.073302   -0.618338    0.059065
 ---------------------------------------------------------------------

 SCF Done:  E(RB2PLYPD3) =  -115.510434078     A.U. after   10 cycles
 E2(B2PLYPD3) =    -0.1446815064D+00 E(B2PLYPD3) =    -0.11565511558431D+03

 The electronic state is 1-A.
 Alpha  occ. eigenvalues --  -19.70758 -10.67050  -1.21169  -0.79973  -0.60724
 Alpha  occ. eigenvalues --   -0.51834  -0.50423  -0.41293  -0.35657
 Alpha virt. eigenvalues --    0.05389   0.09009   0.11973   0.12230   0.14643
 Alpha virt. eigenvalues --    0.17007   0.17846   0.28856   0.32882   0.33491
 Alpha virt. eigenvalues --    0.37343   0.39109   0.39827   0.40491   0.43126

 Mulliken charges:
               1
     1  C    0.058837
     2  O   -0.337572
     3  H    0.044034
     4  H    0.049823
     5  H    0.076533
     6  H    0.108345
 Sum of Mulliken charges =   0.00000

 Dipole moment (field-independent basis, Debye):
    X=              0.8840    Y=             -1.3042    Z=              0.1291  Tot=              1.5808
 Quadrupole moment (field-independent basis, Debye-Ang):
   XX=            -13.3029   YY=            -12.3734   ZZ=            -13.5844
   XY=              2.0339   XZ=             -0.1098   YZ=             -0.1074

 Normal termination of Gaussian 09 at Wed Aug 26 10:14:06 2020.
