 Gaussian 09, Revision D.01,
 Gaussian 09:  ES64L-G09RevD.01 24-Apr-2013

 --------------------
 #p B2PLYPD3/Def2QZVP
 --------------------

 --------
 methanol
 --------
 Symbolic Z-matrix:
 Charge =  0 Multiplicity = 1

                         Standard orientation:
 ---------------------------------------------------------------------
 Center     Atomic      Atomic             Coordinates (Angstroms)
 Number     Number       Type             X           Y           Z
 ---------------------------------------------------------------------
      1          6           0       -0.661850    0.014806   -0.000676
      2          8           0        0.742916   -0.143493   -0.006674
      3          1           0       -1.073910    0.551960   -0.857758
      4          1           0       -1.021238    0.529104    0.873540
      5          1           0       -1.093260   -0.896934    0.018513
      6          1           0        1.216183    0.874977    0.023152
 ---------------------------------------------------------------------

 SCF Done:  E(RB2PLYPD3) =  -115.526833055     A.U. after   11 cycles
 E2(B2PLYPD3) =    -0.1499437110D+00 E(B2PLYPD3) =    -0.11567677676628D+03

 The electronic state is 1-A.
 Alpha  occ. eigenvalues --  -19.73857 -10.64281  -1.13723  -0.78653  -0.56708
 Alpha  occ. eigenvalues --   -0.51233  -0.50485  -0.40650  -0.34938
 Alpha virt. eigenvalues --    0.03448   0.07682   0.12610   0.12826   0.14940
 Alpha virt. eigenvalues --    0.17453   0.18353   0.28433   0.29802   0.33397
 Alpha virt. eigenvalues --    0.34297   0.38827   0.40691   0.41010   0.43400

 Mulliken charges:
               1
     1  C    0.076584
     2  O   -0.487707
     3  H    0.042195
     4  H    0.041374
     5  H    0.071149
     6  H    0.256404
 Sum of Mulliken charges =   0.00000

 Dipole moment (field-independent basis, Debye):
    X=             -0.8059    Y=              1.5766    Z=              0.0729  Tot=              1.7721
 Quadrupole moment (field-independent basis, Debye-Ang):
   XX=            -12.7115   YY=            -12.0664   ZZ=            -13.9702
   XY=              2.5382   XZ=              0.0730   YZ=              0.0223

 Normal termination of Gaussian 09 at Wed Aug 26 11:09:51 2020.
