 Gaussian 09, Revision D.01,
 Gaussian 09:  ES64L-G09RevD.01 24-Apr-2013

 --------------------
 #p B2PLYPD3/Def2QZVP
 --------------------

 --------
 methanol
 --------
 Symbolic Z-matrix:
 Charge =  0 Multiplicity = 1

                         Standard orientation:
 ---------------------------------------------------------------------
 Center     Atomic      Atomic             Coordinates (Angstroms)
 Number     Number       Type             X           Y           Z
 ---------------------------------------------------------------------
      1          6           0       -0.650984    0.007796    0.007375
      2          8           0        0.735652   -0.146477   -0.015430
      3          1           0       -1.044238    0.618265   -0.847378
      4          1           0       -1.002447    0.488698    0.870579
      5          1           0       -1.126402   -0.864774   -0.017509
      6          1           0        1.193772    0.882855    0.073496
 ---------------------------------------------------------------------

 SCF Done:  E(RB2PLYPD3) =  -115.521245028     A.U. after   11 cycles
 E2(B2PLYPD3) =    -0.1497588160D+00 E(B2PLYPD3) =    -0.11567100384353D+03

 The electronic state is 1-A.
 Alpha  occ. eigenvalues --  -19.73918 -10.63964  -1.14352  -0.78767  -0.56952
 Alpha  occ. eigenvalues --   -0.51339  -0.51199  -0.40576  -0.34688
 Alpha virt. eigenvalues --    0.03237   0.07744   0.12605   0.12949   0.14937
 Alpha virt. eigenvalues --    0.17820   0.18238   0.28155   0.29743   0.33109
 Alpha virt. eigenvalues --    0.34828   0.38924   0.40849   0.41512   0.43471

 Mulliken charges:
               1
     1  C    0.080216
     2  O   -0.480958
     3  H    0.032305
     4  H    0.038831
     5  H    0.070331
     6  H    0.259277
 Sum of Mulliken charges =   0.00000

 Dipole moment (field-independent basis, Debye):
    X=             -0.7688    Y=              1.5708    Z=              0.2227  Tot=              1.7630
 Quadrupole moment (field-independent basis, Debye-Ang):
   XX=            -12.7811   YY=            -12.0378   ZZ=            -13.9831
   XY=              2.5915   XZ=              0.1231   YZ=              0.1443

 Normal termination of Gaussian 09 at Wed Aug 26 11:01:43 2020.
