 Gaussian 09, Revision D.01,
 Gaussian 09:  ES64L-G09RevD.01 24-Apr-2013

 --------------------
 #p B2PLYPD3/Def2QZVP
 --------------------

 --------
 methanol
 --------
 Symbolic Z-matrix:
 Charge =  0 Multiplicity = 1

                         Standard orientation:
 ---------------------------------------------------------------------
 Center     Atomic      Atomic             Coordinates (Angstroms)
 Number     Number       Type             X           Y           Z
 ---------------------------------------------------------------------
      1          6           0        0.663323    0.041291   -0.001047
      2          8           0       -0.742257   -0.198320   -0.022811
      3          1           0        0.908505    0.315802    0.828126
      4          1           0        1.009225    0.674090   -0.685788
      5          1           0        1.212742   -0.796665   -0.057480
      6          1           0       -1.172353    1.145590    0.103908
 ---------------------------------------------------------------------

 SCF Done:  E(RB2PLYPD3) =  -115.416059741     A.U. after   11 cycles
 E2(B2PLYPD3) =    -0.1558557712D+00 E(B2PLYPD3) =    -0.11557191551180D+03

 The electronic state is 1-A.
 Alpha  occ. eigenvalues --  -19.75414 -10.61022  -1.11581  -0.81199  -0.54698
 Alpha  occ. eigenvalues --   -0.53667  -0.49201  -0.39161  -0.35479
 Alpha virt. eigenvalues --   -0.01761   0.07430   0.12594   0.13039   0.14380
 Alpha virt. eigenvalues --    0.17910   0.18949   0.22165   0.29531   0.33261
 Alpha virt. eigenvalues --    0.33921   0.39318   0.40665   0.42977   0.44159

 Mulliken charges:
               1
     1  C    0.103381
     2  O   -0.483504
     3  H    0.060870
     4  H    0.039409
     5  H    0.044573
     6  H    0.235271
 Sum of Mulliken charges =   0.00000

 Dipole moment (field-independent basis, Debye):
    X=              1.1965    Y=              1.7924    Z=              0.2607  Tot=              2.1708
 Quadrupole moment (field-independent basis, Debye-Ang):
   XX=            -13.0752   YY=            -11.4200   ZZ=            -13.8777
   XY=             -2.4664   XZ=             -0.1614   YZ=              0.0629

 Normal termination of Gaussian 09 at Wed Aug 26 23:57:01 2020.
