 Gaussian 09, Revision D.01,
 Gaussian 09:  ES64L-G09RevD.01 24-Apr-2013

 --------------------
 #p B2PLYPD3/Def2QZVP
 --------------------

 --------
 methanol
 --------
 Symbolic Z-matrix:
 Charge =  0 Multiplicity = 1

                         Standard orientation:
 ---------------------------------------------------------------------
 Center     Atomic      Atomic             Coordinates (Angstroms)
 Number     Number       Type             X           Y           Z
 ---------------------------------------------------------------------
      1          6           0        0.670581   -0.018795    0.005969
      2          8           0       -0.747864    0.131846   -0.004400
      3          1           0        1.012328   -0.574824   -0.863680
      4          1           0        1.033084   -0.502037    0.864897
      5          1           0        1.055744    0.964278   -0.032590
      6          1           0       -1.141733   -0.829415    0.030761
 ---------------------------------------------------------------------

 SCF Done:  E(RB2PLYPD3) =  -115.544579061     A.U. after   10 cycles
 E2(B2PLYPD3) =    -0.1485900564D+00 E(B2PLYPD3) =    -0.11569316911729D+03

 The electronic state is 1-A.
 Alpha  occ. eigenvalues --  -19.73113 -10.64648  -1.14515  -0.78691  -0.57782
 Alpha  occ. eigenvalues --   -0.51886  -0.49530  -0.41328  -0.35228
 Alpha virt. eigenvalues --    0.04395   0.08059   0.12479   0.12518   0.14940
 Alpha virt. eigenvalues --    0.17239   0.18100   0.29138   0.32149   0.33353
 Alpha virt. eigenvalues --    0.33931   0.39035   0.39916   0.41485   0.44218

 Mulliken charges:
               1
     1  C    0.076692
     2  O   -0.480630
     3  H    0.044270
     4  H    0.048546
     5  H    0.070375
     6  H    0.240748
 Sum of Mulliken charges =   0.00000

 Dipole moment (field-independent basis, Debye):
    X=              0.9374    Y=             -1.5743    Z=              0.0880  Tot=              1.8344
 Quadrupole moment (field-independent basis, Debye-Ang):
   XX=            -13.0989   YY=            -11.9923   ZZ=            -13.8313
   XY=              2.2869   XZ=             -0.0202   YZ=             -0.0737

 Normal termination of Gaussian 09 at Wed Aug 26 20:17:25 2020.
