 Gaussian 09, Revision D.01,
 Gaussian 09:  ES64L-G09RevD.01 24-Apr-2013

 --------------------
 #p B2PLYPD3/Def2QZVP
 --------------------

 --------
 methanol
 --------
 Symbolic Z-matrix:
 Charge =  0 Multiplicity = 1

                         Standard orientation:
 ---------------------------------------------------------------------
 Center     Atomic      Atomic             Coordinates (Angstroms)
 Number     Number       Type             X           Y           Z
 ---------------------------------------------------------------------
      1          6           0        0.671965    0.050652   -0.010526
      2          8           0       -0.762246   -0.167141    0.017054
      3          1           0        1.126827    0.525637    0.810619
      4          1           0        1.096065    0.483157   -0.749700
      5          1           0        1.117441   -0.967638   -0.048611
      6          1           0       -1.274157    0.992055   -0.085585
 ---------------------------------------------------------------------

 SCF Done:  E(RB2PLYPD3) =  -115.475269692     A.U. after   11 cycles
 E2(B2PLYPD3) =    -0.1539684662D+00 E(B2PLYPD3) =    -0.11562923815822D+03

 The electronic state is 1-A.
 Alpha  occ. eigenvalues --  -19.75387 -10.63848  -1.11456  -0.79741  -0.55062
 Alpha  occ. eigenvalues --   -0.51586  -0.48052  -0.40043  -0.35730
 Alpha virt. eigenvalues --    0.01199   0.07129   0.12144   0.13076   0.15067
 Alpha virt. eigenvalues --    0.17249   0.18755   0.24388   0.29059   0.33091
 Alpha virt. eigenvalues --    0.34392   0.36946   0.39457   0.41704   0.44359

 Mulliken charges:
               1
     1  C    0.078441
     2  O   -0.485341
     3  H    0.050388
     4  H    0.056004
     5  H    0.050555
     6  H    0.249952
 Sum of Mulliken charges =   0.00000

 Dipole moment (field-independent basis, Debye):
    X=              0.9396    Y=              1.7728    Z=             -0.2403  Tot=              2.0208
 Quadrupole moment (field-independent basis, Debye-Ang):
   XX=            -12.5205   YY=            -11.9036   ZZ=            -14.1746
   XY=             -2.3606   XZ=              0.1056   YZ=             -0.1385

 Normal termination of Gaussian 09 at Wed Aug 26 19:12:12 2020.
