 Gaussian 09, Revision D.01,
 Gaussian 09:  ES64L-G09RevD.01 24-Apr-2013

 --------------------
 #p B2PLYPD3/Def2QZVP
 --------------------

 --------
 methanol
 --------
 Symbolic Z-matrix:
 Charge =  0 Multiplicity = 1

                         Standard orientation:
 ---------------------------------------------------------------------
 Center     Atomic      Atomic             Coordinates (Angstroms)
 Number     Number       Type             X           Y           Z
 ---------------------------------------------------------------------
      1          6           0        0.649075   -0.000570    0.030936
      2          8           0       -0.738471    0.049152   -0.020623
      3          1           0        1.083407   -0.818425   -0.829511
      4          1           0        0.933540   -0.304737    1.047055
      5          1           0        0.942242    1.142641   -0.289371
      6          1           0       -0.945871   -0.409280    0.051196
 ---------------------------------------------------------------------

 SCF Done:  E(RB2PLYPD3) =  -114.821375746     A.U. after   12 cycles
 E2(B2PLYPD3) =    -0.1426487780D+00 E(B2PLYPD3) =    -0.11496402452356D+03

 The electronic state is 1-A.
 Alpha  occ. eigenvalues --  -19.68824 -10.69470  -1.35088  -0.84345  -0.63129
 Alpha  occ. eigenvalues --   -0.52586  -0.50419  -0.41517  -0.36513
 Alpha virt. eigenvalues --    0.05015   0.09765   0.11138   0.11594   0.14586
 Alpha virt. eigenvalues --    0.16473   0.17304   0.27603   0.31830   0.32473
 Alpha virt. eigenvalues --    0.34689   0.36712   0.40449   0.42136   0.42922

 Mulliken charges:
               1
     1  C    0.045924
     2  O   -0.026867
     3  H    0.029818
     4  H    0.065770
     5  H    0.076717
     6  H   -0.191362
 Sum of Mulliken charges =   0.00000

 Dipole moment (field-independent basis, Debye):
    X=              0.9566    Y=             -1.0089    Z=              0.3211  Tot=              1.4269
 Quadrupole moment (field-independent basis, Debye-Ang):
   XX=            -13.7765   YY=            -12.3162   ZZ=            -13.2195
   XY=              1.4934   XZ=             -0.1933   YZ=             -0.2931

 Normal termination of Gaussian 09 at Wed Aug 26 23:38:08 2020.
