 Gaussian 09, Revision D.01,
 Gaussian 09:  ES64L-G09RevD.01 24-Apr-2013

 --------------------
 #p B2PLYPD3/Def2QZVP
 --------------------

 --------
 methanol
 --------
 Symbolic Z-matrix:
 Charge =  0 Multiplicity = 1

                         Standard orientation:
 ---------------------------------------------------------------------
 Center     Atomic      Atomic             Coordinates (Angstroms)
 Number     Number       Type             X           Y           Z
 ---------------------------------------------------------------------
      1          6           0        0.676242    0.025558    0.034702
      2          8           0       -0.756329   -0.167353   -0.029276
      3          1           0        0.954929    0.340238    0.881936
      4          1           0        1.166336    0.661919   -0.785883
      5          1           0        1.160602   -0.807162   -0.136286
      6          1           0       -1.288688    0.990483    0.066230
 ---------------------------------------------------------------------

 SCF Done:  E(RB2PLYPD3) =  -115.464460727     A.U. after   12 cycles
 E2(B2PLYPD3) =    -0.1535448026D+00 E(B2PLYPD3) =    -0.11561800552988D+03

 The electronic state is 1-A.
 Alpha  occ. eigenvalues --  -19.74918 -10.63216  -1.11328  -0.80088  -0.55083
 Alpha  occ. eigenvalues --   -0.51740  -0.49242  -0.39713  -0.35331
 Alpha virt. eigenvalues --    0.01042   0.07219   0.12577   0.12956   0.14566
 Alpha virt. eigenvalues --    0.17726   0.18829   0.24316   0.29241   0.32606
 Alpha virt. eigenvalues --    0.33784   0.37349   0.40849   0.41667   0.43924

 Mulliken charges:
               1
     1  C    0.085853
     2  O   -0.501448
     3  H    0.059149
     4  H    0.034784
     5  H    0.063265
     6  H    0.258397
 Sum of Mulliken charges =   0.00000

 Dipole moment (field-independent basis, Debye):
    X=              0.9243    Y=              1.6027    Z=              0.2771  Tot=              1.8708
 Quadrupole moment (field-independent basis, Debye-Ang):
   XX=            -12.4096   YY=            -12.0870   ZZ=            -13.9077
   XY=             -2.7808   XZ=             -0.2221   YZ=              0.2414

 Normal termination of Gaussian 09 at Wed Aug 26 20:14:04 2020.
