 Gaussian 09, Revision D.01,
 Gaussian 09:  ES64L-G09RevD.01 24-Apr-2013

 --------------------
 #p B2PLYPD3/Def2QZVP
 --------------------

 --------
 methanol
 --------
 Symbolic Z-matrix:
 Charge =  0 Multiplicity = 1

                         Standard orientation:
 ---------------------------------------------------------------------
 Center     Atomic      Atomic             Coordinates (Angstroms)
 Number     Number       Type             X           Y           Z
 ---------------------------------------------------------------------
      1          6           0        0.696386    0.016683    0.032340
      2          8           0       -0.748456   -0.175902   -0.026474
      3          1           0        0.926102    0.314101    0.833414
      4          1           0        1.053678    0.700410   -0.757336
      5          1           0        1.021144   -0.814912   -0.152291
      6          1           0       -1.191588    1.107514    0.093970
 ---------------------------------------------------------------------

 SCF Done:  E(RB2PLYPD3) =  -115.409682614     A.U. after   11 cycles
 E2(B2PLYPD3) =    -0.1553112512D+00 E(B2PLYPD3) =    -0.11556499386478D+03

 The electronic state is 1-A.
 Alpha  occ. eigenvalues --  -19.74844 -10.61361  -1.10700  -0.81164  -0.57445
 Alpha  occ. eigenvalues --   -0.52379  -0.47860  -0.40162  -0.35253
 Alpha virt. eigenvalues --   -0.00354   0.07556   0.12614   0.12708   0.14505
 Alpha virt. eigenvalues --    0.17201   0.18244   0.23044   0.29337   0.32726
 Alpha virt. eigenvalues --    0.33300   0.37672   0.40798   0.42175   0.46175

 Mulliken charges:
               1
     1  C    0.060994
     2  O   -0.502401
     3  H    0.078458
     4  H    0.042802
     5  H    0.084375
     6  H    0.235772
 Sum of Mulliken charges =   0.00000

 Dipole moment (field-independent basis, Debye):
    X=              1.2217    Y=              1.6457    Z=              0.2746  Tot=              2.0680
 Quadrupole moment (field-independent basis, Debye-Ang):
   XX=            -13.2029   YY=            -11.3813   ZZ=            -13.7597
   XY=             -2.4699   XZ=             -0.1616   YZ=              0.2481

 Normal termination of Gaussian 09 at Wed Aug 26 23:54:57 2020.
