 Gaussian 09, Revision D.01,
 Gaussian 09:  ES64L-G09RevD.01 24-Apr-2013

 --------------------
 #p B2PLYPD3/Def2QZVP
 --------------------

 --------
 methanol
 --------
 Symbolic Z-matrix:
 Charge =  0 Multiplicity = 1

                         Standard orientation:
 ---------------------------------------------------------------------
 Center     Atomic      Atomic             Coordinates (Angstroms)
 Number     Number       Type             X           Y           Z
 ---------------------------------------------------------------------
      1          6           0       -0.664209    0.037382    0.007836
      2          8           0        0.734191   -0.181810   -0.024174
      3          1           0       -1.141575    0.583923   -0.746110
      4          1           0       -0.981810    0.441007    0.762731
      5          1           0       -1.016667   -0.907886    0.040597
      6          1           0        1.251779    1.113138    0.089155
 ---------------------------------------------------------------------

 SCF Done:  E(RB2PLYPD3) =  -115.429668269     A.U. after   11 cycles
 E2(B2PLYPD3) =    -0.1557584593D+00 E(B2PLYPD3) =    -0.11558542672830D+03

 The electronic state is 1-A.
 Alpha  occ. eigenvalues --  -19.75566 -10.61788  -1.12077  -0.80448  -0.55910
 Alpha  occ. eigenvalues --   -0.52397  -0.48687  -0.39532  -0.35369
 Alpha virt. eigenvalues --   -0.01230   0.07412   0.12343   0.13199   0.15177
 Alpha virt. eigenvalues --    0.17009   0.18526   0.22250   0.29516   0.33612
 Alpha virt. eigenvalues --    0.34761   0.38536   0.38850   0.42174   0.45683

 Mulliken charges:
               1
     1  C    0.082971
     2  O   -0.472487
     3  H    0.042597
     4  H    0.056151
     5  H    0.060022
     6  H    0.230747
 Sum of Mulliken charges =   0.00000

 Dipole moment (field-independent basis, Debye):
    X=             -1.0267    Y=              1.7315    Z=              0.2896  Tot=              2.0337
 Quadrupole moment (field-independent basis, Debye-Ang):
   XX=            -12.9005   YY=            -11.4154   ZZ=            -14.1012
   XY=              2.3122   XZ=              0.1180   YZ=              0.1356

 Normal termination of Gaussian 09 at Wed Aug 26 23:01:46 2020.
