 Gaussian 09, Revision D.01,
 Gaussian 09:  ES64L-G09RevD.01 24-Apr-2013

 --------------------
 #p B2PLYPD3/Def2QZVP
 --------------------

 --------
 methanol
 --------
 Symbolic Z-matrix:
 Charge =  0 Multiplicity = 1

                         Standard orientation:
 ---------------------------------------------------------------------
 Center     Atomic      Atomic             Coordinates (Angstroms)
 Number     Number       Type             X           Y           Z
 ---------------------------------------------------------------------
      1          6           0       -0.674299   -0.008570    0.001045
      2          8           0        0.748847    0.103917   -0.019160
      3          1           0       -1.006690   -0.394034    0.999210
      4          1           0       -0.959032   -0.701520   -0.875558
      5          1           0       -1.077718    0.952761   -0.119275
      6          1           0        1.098458   -0.637127    0.142634
 ---------------------------------------------------------------------

 SCF Done:  E(RB2PLYPD3) =  -115.530433225     A.U. after   10 cycles
 E2(B2PLYPD3) =    -0.1453393343D+00 E(B2PLYPD3) =    -0.11567577255961D+03

 The electronic state is 1-A.
 Alpha  occ. eigenvalues --  -19.70998 -10.66490  -1.18933  -0.79859  -0.59530
 Alpha  occ. eigenvalues --   -0.51896  -0.50896  -0.41176  -0.35418
 Alpha virt. eigenvalues --    0.05352   0.08816   0.11845   0.12608   0.14332
 Alpha virt. eigenvalues --    0.17226   0.17829   0.28985   0.32356   0.33165
 Alpha virt. eigenvalues --    0.36839   0.39453   0.39848   0.41085   0.44054

 Mulliken charges:
               1
     1  C    0.068266
     2  O   -0.396166
     3  H    0.046749
     4  H    0.047043
     5  H    0.081226
     6  H    0.152882
 Sum of Mulliken charges =   0.00000

 Dipole moment (field-independent basis, Debye):
    X=             -0.9564    Y=             -1.2818    Z=              0.3217  Tot=              1.6313
 Quadrupole moment (field-independent basis, Debye-Ang):
   XX=            -13.2113   YY=            -12.4182   ZZ=            -13.5009
   XY=             -2.2197   XZ=              0.3470   YZ=             -0.1965

 Normal termination of Gaussian 09 at Wed Aug 26 15:09:04 2020.
