 Gaussian 09, Revision D.01,
 Gaussian 09:  ES64L-G09RevD.01 24-Apr-2013

 --------------------
 #p B2PLYPD3/Def2QZVP
 --------------------

 --------
 methanol
 --------
 Symbolic Z-matrix:
 Charge =  0 Multiplicity = 1

                         Standard orientation:
 ---------------------------------------------------------------------
 Center     Atomic      Atomic             Coordinates (Angstroms)
 Number     Number       Type             X           Y           Z
 ---------------------------------------------------------------------
      1          6           0        0.674309    0.034667    0.005436
      2          8           0       -0.746194   -0.147654   -0.009548
      3          1           0        1.017916    0.415090    0.864627
      4          1           0        1.007815    0.613476   -0.804745
      5          1           0        1.071890   -0.947295   -0.074355
      6          1           0       -1.173923    0.891955    0.058242
 ---------------------------------------------------------------------

 SCF Done:  E(RB2PLYPD3) =  -115.523846071     A.U. after   11 cycles
 E2(B2PLYPD3) =    -0.1501319816D+00 E(B2PLYPD3) =    -0.11567397805257D+03

 The electronic state is 1-A.
 Alpha  occ. eigenvalues --  -19.73672 -10.63644  -1.13118  -0.79057  -0.56602
 Alpha  occ. eigenvalues --   -0.52924  -0.48819  -0.40833  -0.35388
 Alpha virt. eigenvalues --    0.03536   0.07838   0.12474   0.12701   0.14913
 Alpha virt. eigenvalues --    0.17246   0.18310   0.28417   0.29851   0.33524
 Alpha virt. eigenvalues --    0.33831   0.38920   0.39746   0.42721   0.44432

 Mulliken charges:
               1
     1  C    0.085514
     2  O   -0.494392
     3  H    0.050778
     4  H    0.046906
     5  H    0.063116
     6  H    0.248079
 Sum of Mulliken charges =   0.00000

 Dipole moment (field-independent basis, Debye):
    X=              0.9758    Y=              1.6562    Z=              0.1465  Tot=              1.9278
 Quadrupole moment (field-independent basis, Debye-Ang):
   XX=            -12.9970   YY=            -11.9158   ZZ=            -13.7969
   XY=             -2.3366   XZ=             -0.0843   YZ=              0.0791

 Normal termination of Gaussian 09 at Wed Aug 26 10:29:26 2020.
