 Gaussian 09, Revision D.01,
 Gaussian 09:  ES64L-G09RevD.01 24-Apr-2013

 --------------------
 #p B2PLYPD3/Def2QZVP
 --------------------

 --------
 methanol
 --------
 Symbolic Z-matrix:
 Charge =  0 Multiplicity = 1

                         Standard orientation:
 ---------------------------------------------------------------------
 Center     Atomic      Atomic             Coordinates (Angstroms)
 Number     Number       Type             X           Y           Z
 ---------------------------------------------------------------------
      1          6           0        0.671757    0.023231   -0.003283
      2          8           0       -0.745752   -0.146155    0.000714
      3          1           0        1.022671    0.475792    0.847807
      4          1           0        0.884215    0.640746   -0.804619
      5          1           0        1.126783   -0.950090   -0.076474
      6          1           0       -1.098198    0.863402    0.047268
 ---------------------------------------------------------------------

 SCF Done:  E(RB2PLYPD3) =  -115.534269834     A.U. after   11 cycles
 E2(B2PLYPD3) =    -0.1490454792D+00 E(B2PLYPD3) =    -0.11568331531273D+03

 The electronic state is 1-A.
 Alpha  occ. eigenvalues --  -19.73159 -10.63966  -1.14141  -0.78858  -0.57422
 Alpha  occ. eigenvalues --   -0.52956  -0.49150  -0.41415  -0.35088
 Alpha virt. eigenvalues --    0.04027   0.08098   0.12363   0.12634   0.14807
 Alpha virt. eigenvalues --    0.17552   0.17816   0.29214   0.30765   0.32859
 Alpha virt. eigenvalues --    0.33995   0.39332   0.40058   0.42294   0.44311

 Mulliken charges:
               1
     1  C    0.089427
     2  O   -0.486636
     3  H    0.043589
     4  H    0.043981
     5  H    0.066855
     6  H    0.242783
 Sum of Mulliken charges =   0.00000

 Dipole moment (field-independent basis, Debye):
    X=              1.0408    Y=              1.6627    Z=              0.0830  Tot=              1.9633
 Quadrupole moment (field-independent basis, Debye-Ang):
   XX=            -13.3115   YY=            -11.7942   ZZ=            -13.8362
   XY=             -2.3094   XZ=              0.0315   YZ=              0.0466

 Normal termination of Gaussian 09 at Wed Aug 26 12:57:16 2020.
