 Gaussian 09, Revision D.01,
 Gaussian 09:  ES64L-G09RevD.01 24-Apr-2013

 --------------------
 #p B2PLYPD3/Def2QZVP
 --------------------

 --------
 methanol
 --------
 Symbolic Z-matrix:
 Charge =  0 Multiplicity = 1

                         Standard orientation:
 ---------------------------------------------------------------------
 Center     Atomic      Atomic             Coordinates (Angstroms)
 Number     Number       Type             X           Y           Z
 ---------------------------------------------------------------------
      1          6           0        0.645472    0.018129    0.001441
      2          8           0       -0.721945   -0.180948   -0.019048
      3          1           0        0.999231    0.395267    0.886767
      4          1           0        0.957200    0.666630   -0.811312
      5          1           0        1.222321   -0.718478   -0.055219
      6          1           0       -1.276026    0.995385    0.123502
 ---------------------------------------------------------------------

 SCF Done:  E(RB2PLYPD3) =  -115.459056165     A.U. after   11 cycles
 E2(B2PLYPD3) =    -0.1528580019D+00 E(B2PLYPD3) =    -0.11561191416645D+03

 The electronic state is 1-A.
 Alpha  occ. eigenvalues --  -19.74731 -10.62354  -1.13304  -0.79833  -0.54260
 Alpha  occ. eigenvalues --   -0.52798  -0.51561  -0.38767  -0.34642
 Alpha virt. eigenvalues --    0.00073   0.07490   0.12602   0.13365   0.14591
 Alpha virt. eigenvalues --    0.18305   0.18930   0.23564   0.29499   0.32998
 Alpha virt. eigenvalues --    0.34844   0.39297   0.40972   0.42399   0.44369

 Mulliken charges:
               1
     1  C    0.079269
     2  O   -0.482403
     3  H    0.038404
     4  H    0.035271
     5  H    0.065153
     6  H    0.264306
 Sum of Mulliken charges =   0.00000

 Dipole moment (field-independent basis, Debye):
    X=              0.7433    Y=              1.6325    Z=              0.2666  Tot=              1.8135
 Quadrupole moment (field-independent basis, Debye-Ang):
   XX=            -12.4080   YY=            -12.0622   ZZ=            -13.9121
   XY=             -2.9239   XZ=             -0.1944   YZ=              0.1411

 Normal termination of Gaussian 09 at Wed Aug 26 23:12:34 2020.
