 Gaussian 09, Revision D.01,
 Gaussian 09:  ES64L-G09RevD.01 24-Apr-2013

 --------------------
 #p B2PLYPD3/Def2QZVP
 --------------------

 --------
 methanol
 --------
 Symbolic Z-matrix:
 Charge =  0 Multiplicity = 1

                         Standard orientation:
 ---------------------------------------------------------------------
 Center     Atomic      Atomic             Coordinates (Angstroms)
 Number     Number       Type             X           Y           Z
 ---------------------------------------------------------------------
      1          6           0        0.669501   -0.001854   -0.011212
      2          8           0       -0.765220    0.101773   -0.004248
      3          1           0        1.049928   -0.671911   -0.843304
      4          1           0        1.094428   -0.430152    0.982902
      5          1           0        1.055830    0.992090   -0.099140
      6          1           0       -1.095429   -0.693087    0.060798
 ---------------------------------------------------------------------

 SCF Done:  E(RB2PLYPD3) =  -115.538676789     A.U. after   10 cycles
 E2(B2PLYPD3) =    -0.1463248943D+00 E(B2PLYPD3) =    -0.11568500168354D+03

 The electronic state is 1-A.
 Alpha  occ. eigenvalues --  -19.71940 -10.67024  -1.18189  -0.79137  -0.59592
 Alpha  occ. eigenvalues --   -0.50834  -0.50002  -0.41902  -0.35512
 Alpha virt. eigenvalues --    0.05253   0.08418   0.12003   0.12359   0.14788
 Alpha virt. eigenvalues --    0.17162   0.18040   0.28954   0.32473   0.33079
 Alpha virt. eigenvalues --    0.36638   0.38655   0.39163   0.40249   0.43088

 Mulliken charges:
               1
     1  C    0.064461
     2  O   -0.410320
     3  H    0.047425
     4  H    0.041693
     5  H    0.080830
     6  H    0.175911
 Sum of Mulliken charges =   0.00000

 Dipole moment (field-independent basis, Debye):
    X=              0.9769    Y=             -1.3598    Z=              0.0765  Tot=              1.6761
 Quadrupole moment (field-independent basis, Debye-Ang):
   XX=            -13.1695   YY=            -12.2584   ZZ=            -13.8442
   XY=              2.1335   XZ=             -0.1785   YZ=             -0.0403

 Normal termination of Gaussian 09 at Wed Aug 26 11:47:04 2020.
