 Gaussian 09, Revision D.01,
 Gaussian 09:  ES64L-G09RevD.01 24-Apr-2013

 --------------------
 #p B2PLYPD3/Def2QZVP
 --------------------

 --------
 methanol
 --------
 Symbolic Z-matrix:
 Charge =  0 Multiplicity = 1

                         Standard orientation:
 ---------------------------------------------------------------------
 Center     Atomic      Atomic             Coordinates (Angstroms)
 Number     Number       Type             X           Y           Z
 ---------------------------------------------------------------------
      1          6           0       -0.671051   -0.002060    0.000998
      2          8           0        0.754306    0.095456   -0.021971
      3          1           0       -1.017045   -0.403683    1.019293
      4          1           0       -1.024834   -0.747425   -0.847875
      5          1           0       -1.128271    0.971698   -0.133713
      6          1           0        1.162009   -0.571879    0.132078
 ---------------------------------------------------------------------

 SCF Done:  E(RB2PLYPD3) =  -115.509710043     A.U. after   10 cycles
 E2(B2PLYPD3) =    -0.1451040573D+00 E(B2PLYPD3) =    -0.11565481410009D+03

 The electronic state is 1-A.
 Alpha  occ. eigenvalues --  -19.70769 -10.67792  -1.19875  -0.80196  -0.60325
 Alpha  occ. eigenvalues --   -0.51244  -0.50612  -0.40557  -0.35410
 Alpha virt. eigenvalues --    0.05374   0.08711   0.11821   0.12462   0.14388
 Alpha virt. eigenvalues --    0.17264   0.17772   0.28985   0.32303   0.32812
 Alpha virt. eigenvalues --    0.36705   0.38470   0.39146   0.40790   0.42877

 Mulliken charges:
               1
     1  C    0.065620
     2  O   -0.360397
     3  H    0.044603
     4  H    0.042987
     5  H    0.087357
     6  H    0.119830
 Sum of Mulliken charges =   0.00000

 Dipole moment (field-independent basis, Debye):
    X=             -0.8616    Y=             -1.1990    Z=              0.3278  Tot=              1.5124
 Quadrupole moment (field-independent basis, Debye-Ang):
   XX=            -12.8181   YY=            -12.6107   ZZ=            -13.6861
   XY=             -2.2258   XZ=              0.4243   YZ=             -0.1932

 Normal termination of Gaussian 09 at Wed Aug 26 11:07:37 2020.
