 Gaussian 09, Revision D.01,
 Gaussian 09:  ES64L-G09RevD.01 24-Apr-2013

 --------------------
 #p B2PLYPD3/Def2QZVP
 --------------------

 --------
 methanol
 --------
 Symbolic Z-matrix:
 Charge =  0 Multiplicity = 1

                         Standard orientation:
 ---------------------------------------------------------------------
 Center     Atomic      Atomic             Coordinates (Angstroms)
 Number     Number       Type             X           Y           Z
 ---------------------------------------------------------------------
      1          6           0       -0.683774    0.026233    0.010759
      2          8           0        0.751421   -0.138421   -0.008596
      3          1           0       -0.976163    0.614609   -0.872459
      4          1           0       -1.075858    0.411714    0.891206
      5          1           0       -1.062933   -0.914315   -0.097168
      6          1           0        1.206227    0.837961    0.082635
 ---------------------------------------------------------------------

 SCF Done:  E(RB2PLYPD3) =  -115.533585316     A.U. after   11 cycles
 E2(B2PLYPD3) =    -0.1494946381D+00 E(B2PLYPD3) =    -0.11568307995444D+03

 The electronic state is 1-A.
 Alpha  occ. eigenvalues --  -19.73259 -10.64361  -1.13117  -0.79055  -0.56569
 Alpha  occ. eigenvalues --   -0.52106  -0.49518  -0.40773  -0.35255
 Alpha virt. eigenvalues --    0.04101   0.07824   0.12386   0.12750   0.14648
 Alpha virt. eigenvalues --    0.17125   0.18464   0.28895   0.30999   0.32636
 Alpha virt. eigenvalues --    0.33897   0.38668   0.40248   0.41842   0.43953

 Mulliken charges:
               1
     1  C    0.076273
     2  O   -0.497096
     3  H    0.047831
     4  H    0.054673
     5  H    0.070666
     6  H    0.247653
 Sum of Mulliken charges =   0.00000

 Dipole moment (field-independent basis, Debye):
    X=             -0.9413    Y=              1.5419    Z=              0.1861  Tot=              1.8161
 Quadrupole moment (field-independent basis, Debye-Ang):
   XX=            -12.8120   YY=            -12.1607   ZZ=            -13.7171
   XY=              2.4673   XZ=              0.0702   YZ=              0.1493

 Normal termination of Gaussian 09 at Wed Aug 26 14:19:43 2020.
