 Gaussian 09, Revision D.01,
 Gaussian 09:  ES64L-G09RevD.01 24-Apr-2013

 --------------------
 #p B2PLYPD3/Def2QZVP
 --------------------

 --------
 methanol
 --------
 Symbolic Z-matrix:
 Charge =  0 Multiplicity = 1

                         Standard orientation:
 ---------------------------------------------------------------------
 Center     Atomic      Atomic             Coordinates (Angstroms)
 Number     Number       Type             X           Y           Z
 ---------------------------------------------------------------------
      1          6           0       -0.658874    0.001912    0.031765
      2          8           0        0.756126   -0.058990   -0.047967
      3          1           0       -0.897865    1.248868   -0.288513
      4          1           0       -1.111423   -0.345746    0.967559
      5          1           0       -1.120904   -0.723483   -0.804833
      6          1           0        1.034422    0.280813    0.318933
 ---------------------------------------------------------------------

 SCF Done:  E(RB2PLYPD3) =  -115.108114017     A.U. after   11 cycles
 E2(B2PLYPD3) =    -0.1435784895D+00 E(B2PLYPD3) =    -0.11525169250619D+03

 The electronic state is 1-A.
 Alpha  occ. eigenvalues --  -19.68928 -10.70028  -1.30805  -0.83020  -0.62932
 Alpha  occ. eigenvalues --   -0.51696  -0.50279  -0.40723  -0.36170
 Alpha virt. eigenvalues --    0.04896   0.09416   0.10726   0.11896   0.13969
 Alpha virt. eigenvalues --    0.16999   0.17997   0.27772   0.30497   0.33289
 Alpha virt. eigenvalues --    0.34224   0.36002   0.39103   0.41529   0.43320

 Mulliken charges:
               1
     1  C    0.041591
     2  O   -0.119214
     3  H    0.032815
     4  H    0.072320
     5  H    0.076811
     6  H   -0.104324
 Sum of Mulliken charges =   0.00000

 Dipole moment (field-independent basis, Debye):
    X=             -0.9844    Y=              0.5551    Z=              0.9115  Tot=              1.4519
 Quadrupole moment (field-independent basis, Debye-Ang):
   XX=            -13.2431   YY=            -13.0743   ZZ=            -13.0634
   XY=              1.6702   XZ=              1.0631   YZ=              0.2802

 Normal termination of Gaussian 09 at Wed Aug 26 21:24:12 2020.
