 Gaussian 09, Revision D.01,
 Gaussian 09:  ES64L-G09RevD.01 24-Apr-2013

 --------------------
 #p B2PLYPD3/Def2QZVP
 --------------------

 --------
 methanol
 --------
 Symbolic Z-matrix:
 Charge =  0 Multiplicity = 1

                         Standard orientation:
 ---------------------------------------------------------------------
 Center     Atomic      Atomic             Coordinates (Angstroms)
 Number     Number       Type             X           Y           Z
 ---------------------------------------------------------------------
      1          6           0       -0.676577    0.009631   -0.000380
      2          8           0        0.751991   -0.141037   -0.009553
      3          1           0       -1.057868    0.568562   -0.842688
      4          1           0       -1.007388    0.512704    0.863808
      5          1           0       -1.052881   -0.911247    0.014553
      6          1           0        1.161674    0.900498    0.043029
 ---------------------------------------------------------------------

 SCF Done:  E(RB2PLYPD3) =  -115.524926754     A.U. after   11 cycles
 E2(B2PLYPD3) =    -0.1501399177D+00 E(B2PLYPD3) =    -0.11567506667224D+03

 The electronic state is 1-A.
 Alpha  occ. eigenvalues --  -19.73697 -10.63918  -1.13066  -0.79064  -0.56791
 Alpha  occ. eigenvalues --   -0.51453  -0.49765  -0.41380  -0.35046
 Alpha virt. eigenvalues --    0.03539   0.07814   0.12570   0.12687   0.14886
 Alpha virt. eigenvalues --    0.17309   0.18152   0.28571   0.29996   0.33351
 Alpha virt. eigenvalues --    0.33542   0.38873   0.40739   0.41132   0.43830

 Mulliken charges:
               1
     1  C    0.083671
     2  O   -0.495143
     3  H    0.044399
     4  H    0.043188
     5  H    0.073359
     6  H    0.250524
 Sum of Mulliken charges =   0.00000

 Dipole moment (field-independent basis, Debye):
    X=             -0.9925    Y=              1.6023    Z=              0.1187  Tot=              1.8885
 Quadrupole moment (field-independent basis, Debye-Ang):
   XX=            -13.0393   YY=            -11.8231   ZZ=            -13.9077
   XY=              2.3929   XZ=              0.1021   YZ=              0.0490

 Normal termination of Gaussian 09 at Thu Aug 27 00:14:42 2020.
