 Gaussian 09, Revision D.01,
 Gaussian 09:  ES64L-G09RevD.01 24-Apr-2013

 --------------------
 #p B2PLYPD3/Def2QZVP
 --------------------

 --------
 methanol
 --------
 Symbolic Z-matrix:
 Charge =  0 Multiplicity = 1

                         Standard orientation:
 ---------------------------------------------------------------------
 Center     Atomic      Atomic             Coordinates (Angstroms)
 Number     Number       Type             X           Y           Z
 ---------------------------------------------------------------------
      1          6           0        0.672890    0.008858   -0.010818
      2          8           0       -0.731952   -0.160470    0.013019
      3          1           0        1.051321    0.553563    0.852296
      4          1           0        1.010131    0.537149   -0.801021
      5          1           0        1.009378   -0.850926   -0.035533
      6          1           0       -1.252556    0.990826   -0.054985
 ---------------------------------------------------------------------

 SCF Done:  E(RB2PLYPD3) =  -115.471999043     A.U. after   11 cycles
 E2(B2PLYPD3) =    -0.1524659061D+00 E(B2PLYPD3) =    -0.11562446494864D+03

 The electronic state is 1-A.
 Alpha  occ. eigenvalues --  -19.74364 -10.62386  -1.12425  -0.79650  -0.56825
 Alpha  occ. eigenvalues --   -0.51413  -0.49880  -0.40612  -0.34629
 Alpha virt. eigenvalues --    0.01297   0.07661   0.12818   0.12874   0.14999
 Alpha virt. eigenvalues --    0.17190   0.18208   0.24935   0.29579   0.33303
 Alpha virt. eigenvalues --    0.34601   0.38216   0.41096   0.41301   0.44523

 Mulliken charges:
               1
     1  C    0.079725
     2  O   -0.495881
     3  H    0.040304
     4  H    0.041024
     5  H    0.083610
     6  H    0.251218
 Sum of Mulliken charges =   0.00000

 Dipole moment (field-independent basis, Debye):
    X=              0.8830    Y=              1.6399    Z=             -0.1867  Tot=              1.8718
 Quadrupole moment (field-independent basis, Debye-Ang):
   XX=            -12.7639   YY=            -11.6336   ZZ=            -13.9894
   XY=             -2.5545   XZ=              0.0491   YZ=             -0.1092

 Normal termination of Gaussian 09 at Wed Aug 26 14:21:13 2020.
