 Gaussian 09, Revision D.01,
 Gaussian 09:  ES64L-G09RevD.01 24-Apr-2013

 --------------------
 #p B2PLYPD3/Def2QZVP
 --------------------

 --------
 methanol
 --------
 Symbolic Z-matrix:
 Charge =  0 Multiplicity = 1

                         Standard orientation:
 ---------------------------------------------------------------------
 Center     Atomic      Atomic             Coordinates (Angstroms)
 Number     Number       Type             X           Y           Z
 ---------------------------------------------------------------------
      1          6           0        0.666821    0.013290    0.009264
      2          8           0       -0.742891   -0.138924   -0.008647
      3          1           0        1.055965    0.455350    0.877068
      4          1           0        1.019135    0.608107   -0.858092
      5          1           0        1.048173   -0.904774   -0.065696
      6          1           0       -1.181067    0.872966    0.060312
 ---------------------------------------------------------------------

 SCF Done:  E(RB2PLYPD3) =  -115.528271468     A.U. after   11 cycles
 E2(B2PLYPD3) =    -0.1496067539D+00 E(B2PLYPD3) =    -0.11567787822200D+03

 The electronic state is 1-A.
 Alpha  occ. eigenvalues --  -19.73620 -10.64054  -1.13833  -0.78887  -0.57073
 Alpha  occ. eigenvalues --   -0.51524  -0.50231  -0.41024  -0.34988
 Alpha virt. eigenvalues --    0.03711   0.07851   0.12533   0.12778   0.14944
 Alpha virt. eigenvalues --    0.17264   0.18319   0.28793   0.30220   0.33293
 Alpha virt. eigenvalues --    0.34248   0.38547   0.40670   0.41330   0.43880

 Mulliken charges:
               1
     1  C    0.076814
     2  O   -0.486659
     3  H    0.046872
     4  H    0.038959
     5  H    0.072359
     6  H    0.251654
 Sum of Mulliken charges =   0.00000

 Dipole moment (field-independent basis, Debye):
    X=              0.8739    Y=              1.5576    Z=              0.1585  Tot=              1.7930
 Quadrupole moment (field-independent basis, Debye-Ang):
   XX=            -12.9226   YY=            -11.9883   ZZ=            -13.8697
   XY=             -2.4484   XZ=             -0.0589   YZ=              0.1356

 Normal termination of Gaussian 09 at Thu Aug 27 00:10:27 2020.
