 Gaussian 09, Revision D.01,
 Gaussian 09:  ES64L-G09RevD.01 24-Apr-2013

 --------------------
 #p B2PLYPD3/Def2QZVP
 --------------------

 --------
 methanol
 --------
 Symbolic Z-matrix:
 Charge =  0 Multiplicity = 1

                         Standard orientation:
 ---------------------------------------------------------------------
 Center     Atomic      Atomic             Coordinates (Angstroms)
 Number     Number       Type             X           Y           Z
 ---------------------------------------------------------------------
      1          6           0        0.664086   -0.008164    0.009845
      2          8           0       -0.755770    0.101034   -0.009346
      3          1           0        1.035333   -0.665867   -0.883770
      4          1           0        1.027980   -0.464688    0.960577
      5          1           0        1.113275    0.998294   -0.106061
      6          1           0       -1.114944   -0.627027    0.044955
 ---------------------------------------------------------------------

 SCF Done:  E(RB2PLYPD3) =  -115.522256305     A.U. after   10 cycles
 E2(B2PLYPD3) =    -0.1452728565D+00 E(B2PLYPD3) =    -0.11566752916194D+03

 The electronic state is 1-A.
 Alpha  occ. eigenvalues --  -19.71213 -10.67337  -1.19859  -0.79684  -0.60427
 Alpha  occ. eigenvalues --   -0.51167  -0.50483  -0.41136  -0.35609
 Alpha virt. eigenvalues --    0.05362   0.08704   0.11998   0.12319   0.14612
 Alpha virt. eigenvalues --    0.17320   0.17855   0.28945   0.32825   0.33005
 Alpha virt. eigenvalues --    0.36839   0.38989   0.39591   0.39913   0.43023

 Mulliken charges:
               1
     1  C    0.064148
     2  O   -0.369884
     3  H    0.039562
     4  H    0.051491
     5  H    0.079012
     6  H    0.135670
 Sum of Mulliken charges =   0.00000

 Dipole moment (field-independent basis, Debye):
    X=              0.9063    Y=             -1.3125    Z=              0.1490  Tot=              1.6020
 Quadrupole moment (field-independent basis, Debye-Ang):
   XX=            -13.0241   YY=            -12.4629   ZZ=            -13.7214
   XY=              2.1708   XZ=             -0.1092   YZ=             -0.1340

 Normal termination of Gaussian 09 at Wed Aug 26 22:22:46 2020.
