 Gaussian 09, Revision D.01,
 Gaussian 09:  ES64L-G09RevD.01 24-Apr-2013

 --------------------
 #p B2PLYPD3/Def2QZVP
 --------------------

 --------
 methanol
 --------
 Symbolic Z-matrix:
 Charge =  0 Multiplicity = 1

                         Standard orientation:
 ---------------------------------------------------------------------
 Center     Atomic      Atomic             Coordinates (Angstroms)
 Number     Number       Type             X           Y           Z
 ---------------------------------------------------------------------
      1          6           0       -0.666093    0.008311    0.000815
      2          8           0        0.749215   -0.130022   -0.016787
      3          1           0       -1.063167    0.693829   -0.807501
      4          1           0       -1.028199    0.420932    0.933467
      5          1           0       -1.118452   -0.915402   -0.086221
      6          1           0        1.212656    0.790950    0.089655
 ---------------------------------------------------------------------

 SCF Done:  E(RB2PLYPD3) =  -115.542684324     A.U. after   10 cycles
 E2(B2PLYPD3) =    -0.1485570338D+00 E(B2PLYPD3) =    -0.11569124135728D+03

 The electronic state is 1-A.
 Alpha  occ. eigenvalues --  -19.73220 -10.65297  -1.14533  -0.78668  -0.57597
 Alpha  occ. eigenvalues --   -0.50883  -0.50630  -0.40756  -0.34956
 Alpha virt. eigenvalues --    0.04398   0.07794   0.12419   0.12773   0.14854
 Alpha virt. eigenvalues --    0.17468   0.18206   0.29232   0.31978   0.33240
 Alpha virt. eigenvalues --    0.33693   0.38711   0.40272   0.40670   0.43605

 Mulliken charges:
               1
     1  C    0.075708
     2  O   -0.481769
     3  H    0.038082
     4  H    0.044383
     5  H    0.075973
     6  H    0.247624
 Sum of Mulliken charges =   0.00000

 Dipole moment (field-independent basis, Debye):
    X=             -0.7964    Y=              1.4930    Z=              0.2282  Tot=              1.7075
 Quadrupole moment (field-independent basis, Debye-Ang):
   XX=            -12.6552   YY=            -12.2345   ZZ=            -13.9675
   XY=              2.4962   XZ=              0.2327   YZ=              0.1379

 Normal termination of Gaussian 09 at Wed Aug 26 16:10:07 2020.
