 Gaussian 09, Revision D.01,
 Gaussian 09:  ES64L-G09RevD.01 24-Apr-2013

 --------------------
 #p B2PLYPD3/Def2QZVP
 --------------------

 --------
 methanol
 --------
 Symbolic Z-matrix:
 Charge =  0 Multiplicity = 1

                         Standard orientation:
 ---------------------------------------------------------------------
 Center     Atomic      Atomic             Coordinates (Angstroms)
 Number     Number       Type             X           Y           Z
 ---------------------------------------------------------------------
      1          6           0       -0.662558    0.007129    0.004304
      2          8           0        0.757198   -0.070538   -0.022733
      3          1           0       -1.070913    0.925471   -0.677772
      4          1           0       -1.138618    0.079168    1.108104
      5          1           0       -1.034509   -0.955303   -0.459571
      6          1           0        1.161803    0.472196    0.185282
 ---------------------------------------------------------------------

 SCF Done:  E(RB2PLYPD3) =  -115.423097057     A.U. after   11 cycles
 E2(B2PLYPD3) =    -0.1445872351D+00 E(B2PLYPD3) =    -0.11556768429254D+03

 The electronic state is 1-A.
 Alpha  occ. eigenvalues --  -19.70122 -10.69375  -1.23468  -0.81438  -0.61216
 Alpha  occ. eigenvalues --   -0.50549  -0.50323  -0.40173  -0.35887
 Alpha virt. eigenvalues --    0.05298   0.08836   0.11580   0.12069   0.14446
 Alpha virt. eigenvalues --    0.16718   0.18168   0.28623   0.32427   0.32878
 Alpha virt. eigenvalues --    0.35048   0.37703   0.38685   0.40590   0.42012

 Mulliken charges:
               1
     1  C    0.045075
     2  O   -0.250769
     3  H    0.043623
     4  H    0.050441
     5  H    0.087384
     6  H    0.024246
 Sum of Mulliken charges =   0.00000

 Dipole moment (field-independent basis, Debye):
    X=             -0.7829    Y=              1.0261    Z=              0.3906  Tot=              1.3485
 Quadrupole moment (field-independent basis, Debye-Ang):
   XX=            -12.7779   YY=            -12.9027   ZZ=            -13.5477
   XY=              1.8722   XZ=              0.6623   YZ=              0.3021

 Normal termination of Gaussian 09 at Wed Aug 26 13:05:51 2020.
