 Gaussian 09, Revision D.01,
 Gaussian 09:  ES64L-G09RevD.01 24-Apr-2013

 --------------------
 #p B2PLYPD3/Def2QZVP
 --------------------

 --------
 methanol
 --------
 Symbolic Z-matrix:
 Charge =  0 Multiplicity = 1

                         Standard orientation:
 ---------------------------------------------------------------------
 Center     Atomic      Atomic             Coordinates (Angstroms)
 Number     Number       Type             X           Y           Z
 ---------------------------------------------------------------------
      1          6           0        0.660655    0.004331    0.019195
      2          8           0       -0.755877    0.092402   -0.018710
      3          1           0        1.056611   -0.780177   -0.834357
      4          1           0        1.016605   -0.377634    1.003658
      5          1           0        1.114972    0.983619   -0.214819
      6          1           0       -1.105107   -0.591011    0.080029
 ---------------------------------------------------------------------

 SCF Done:  E(RB2PLYPD3) =  -115.494216642     A.U. after   10 cycles
 E2(B2PLYPD3) =    -0.1448739470D+00 E(B2PLYPD3) =    -0.11563909058936D+03

 The electronic state is 1-A.
 Alpha  occ. eigenvalues --  -19.70886 -10.67967  -1.21400  -0.80187  -0.60983
 Alpha  occ. eigenvalues --   -0.51463  -0.50346  -0.41155  -0.35481
 Alpha virt. eigenvalues --    0.05324   0.08830   0.11764   0.12273   0.14585
 Alpha virt. eigenvalues --    0.17321   0.17734   0.28843   0.32396   0.32905
 Alpha virt. eigenvalues --    0.36086   0.38628   0.39797   0.40250   0.42709

 Mulliken charges:
               1
     1  C    0.061177
     2  O   -0.324506
     3  H    0.027746
     4  H    0.054035
     5  H    0.084858
     6  H    0.096689
 Sum of Mulliken charges =   0.00000

 Dipole moment (field-independent basis, Debye):
    X=              0.8860    Y=             -1.2038    Z=              0.2870  Tot=              1.5219
 Quadrupole moment (field-independent basis, Debye-Ang):
   XX=            -13.0658   YY=            -12.5424   ZZ=            -13.7166
   XY=              2.1606   XZ=             -0.2229   YZ=             -0.2850

 Normal termination of Gaussian 09 at Wed Aug 26 12:09:24 2020.
