 Gaussian 09, Revision D.01,
 Gaussian 09:  ES64L-G09RevD.01 24-Apr-2013

 --------------------
 #p B2PLYPD3/Def2QZVP
 --------------------

 --------
 methanol
 --------
 Symbolic Z-matrix:
 Charge =  0 Multiplicity = 1

                         Standard orientation:
 ---------------------------------------------------------------------
 Center     Atomic      Atomic             Coordinates (Angstroms)
 Number     Number       Type             X           Y           Z
 ---------------------------------------------------------------------
      1          6           0        0.648982    0.013922   -0.025376
      2          8           0       -0.752507   -0.174909    0.016595
      3          1           0        0.981352    0.620646    0.845884
      4          1           0        1.086045    0.454938   -0.748851
      5          1           0        1.197417   -0.829118    0.040067
      6          1           0       -1.138651    1.069276   -0.117606
 ---------------------------------------------------------------------

 SCF Done:  E(RB2PLYPD3) =  -115.460114366     A.U. after   11 cycles
 E2(B2PLYPD3) =    -0.1540861745D+00 E(B2PLYPD3) =    -0.11561420054096D+03

 The electronic state is 1-A.
 Alpha  occ. eigenvalues --  -19.75518 -10.63016  -1.12616  -0.80013  -0.55195
 Alpha  occ. eigenvalues --   -0.51612  -0.49767  -0.40297  -0.34924
 Alpha virt. eigenvalues --    0.00106   0.07324   0.12681   0.12841   0.14625
 Alpha virt. eigenvalues --    0.18400   0.18608   0.23543   0.29732   0.32614
 Alpha virt. eigenvalues --    0.34774   0.38287   0.39372   0.41503   0.44693

 Mulliken charges:
               1
     1  C    0.094223
     2  O   -0.474260
     3  H    0.028898
     4  H    0.041608
     5  H    0.054406
     6  H    0.255126
 Sum of Mulliken charges =   0.00000

 Dipole moment (field-independent basis, Debye):
    X=              1.0191    Y=              1.7303    Z=             -0.3267  Tot=              2.0345
 Quadrupole moment (field-independent basis, Debye-Ang):
   XX=            -13.0665   YY=            -11.6405   ZZ=            -14.1394
   XY=             -2.4969   XZ=             -0.0198   YZ=             -0.2665

 Normal termination of Gaussian 09 at Wed Aug 26 20:33:08 2020.
