 Gaussian 09, Revision D.01,
 Gaussian 09:  ES64L-G09RevD.01 24-Apr-2013

 --------------------
 #p B2PLYPD3/Def2QZVP
 --------------------

 --------
 methanol
 --------
 Symbolic Z-matrix:
 Charge =  0 Multiplicity = 1

                         Standard orientation:
 ---------------------------------------------------------------------
 Center     Atomic      Atomic             Coordinates (Angstroms)
 Number     Number       Type             X           Y           Z
 ---------------------------------------------------------------------
      1          6           0        0.666267   -0.019911   -0.002127
      2          8           0       -0.757792    0.114278   -0.002641
      3          1           0        1.052205   -0.588886   -0.869975
      4          1           0        1.082969   -0.464515    0.926378
      5          1           0        1.055613    1.002133   -0.055326
      6          1           0       -1.126052   -0.743489    0.032813
 ---------------------------------------------------------------------

 SCF Done:  E(RB2PLYPD3) =  -115.551559448     A.U. after   10 cycles
 E2(B2PLYPD3) =    -0.1472337686D+00 E(B2PLYPD3) =    -0.11569879321673D+03

 The electronic state is 1-A.
 Alpha  occ. eigenvalues --  -19.72580 -10.66179  -1.16540  -0.78667  -0.58936
 Alpha  occ. eigenvalues --   -0.51334  -0.49527  -0.41318  -0.35628
 Alpha virt. eigenvalues --    0.05084   0.08197   0.12269   0.12362   0.14877
 Alpha virt. eigenvalues --    0.17144   0.18299   0.28968   0.33033   0.33521
 Alpha virt. eigenvalues --    0.36008   0.38174   0.39836   0.40379   0.43330

 Mulliken charges:
               1
     1  C    0.062999
     2  O   -0.446635
     3  H    0.049874
     4  H    0.049949
     5  H    0.070218
     6  H    0.213594
 Sum of Mulliken charges =   0.00000

 Dipole moment (field-independent basis, Debye):
    X=              0.9153    Y=             -1.4701    Z=              0.0561  Tot=              1.7327
 Quadrupole moment (field-independent basis, Debye-Ang):
   XX=            -13.0554   YY=            -12.2749   ZZ=            -13.8057
   XY=              2.1711   XZ=             -0.0674   YZ=             -0.0270

 Normal termination of Gaussian 09 at Thu Aug 27 00:02:20 2020.
