 Gaussian 09, Revision D.01,
 Gaussian 09:  ES64L-G09RevD.01 24-Apr-2013

 --------------------
 #p B2PLYPD3/Def2QZVP
 --------------------

 --------
 methanol
 --------
 Symbolic Z-matrix:
 Charge =  0 Multiplicity = 1

                         Standard orientation:
 ---------------------------------------------------------------------
 Center     Atomic      Atomic             Coordinates (Angstroms)
 Number     Number       Type             X           Y           Z
 ---------------------------------------------------------------------
      1          6           0        0.668298   -0.010354   -0.001333
      2          8           0       -0.746785    0.111624   -0.008747
      3          1           0        1.031981   -0.622357   -0.862052
      4          1           0        1.023283   -0.473997    0.931395
      5          1           0        1.026460    0.994684   -0.046988
      6          1           0       -1.117230   -0.729200    0.055621
 ---------------------------------------------------------------------

 SCF Done:  E(RB2PLYPD3) =  -115.551248645     A.U. after   10 cycles
 E2(B2PLYPD3) =    -0.1466248120D+00 E(B2PLYPD3) =    -0.11569787345725D+03

 The electronic state is 1-A.
 Alpha  occ. eigenvalues --  -19.72084 -10.65812  -1.16962  -0.78958  -0.59214
 Alpha  occ. eigenvalues --   -0.51504  -0.50096  -0.41481  -0.35297
 Alpha virt. eigenvalues --    0.05112   0.08472   0.12255   0.12405   0.14906
 Alpha virt. eigenvalues --    0.17040   0.17966   0.29137   0.33205   0.33464
 Alpha virt. eigenvalues --    0.36413   0.38882   0.40060   0.40421   0.43666

 Mulliken charges:
               1
     1  C    0.068846
     2  O   -0.444068
     3  H    0.045639
     4  H    0.046250
     5  H    0.076166
     6  H    0.207167
 Sum of Mulliken charges =   0.00000

 Dipole moment (field-independent basis, Debye):
    X=              0.8940    Y=             -1.4411    Z=              0.1306  Tot=              1.7010
 Quadrupole moment (field-independent basis, Debye-Ang):
   XX=            -13.1739   YY=            -12.1560   ZZ=            -13.7626
   XY=              2.1720   XZ=             -0.1404   YZ=             -0.0686

 Normal termination of Gaussian 09 at Thu Aug 27 00:12:57 2020.
