 Gaussian 09, Revision D.01,
 Gaussian 09:  ES64L-G09RevD.01 24-Apr-2013

 --------------------
 #p B2PLYPD3/Def2QZVP
 --------------------

 --------
 methanol
 --------
 Symbolic Z-matrix:
 Charge =  0 Multiplicity = 1

                         Standard orientation:
 ---------------------------------------------------------------------
 Center     Atomic      Atomic             Coordinates (Angstroms)
 Number     Number       Type             X           Y           Z
 ---------------------------------------------------------------------
      1          6           0        0.666774    0.035803   -0.020126
      2          8           0       -0.730921   -0.196962    0.006371
      3          1           0        0.944481    0.532791    0.746992
      4          1           0        0.975597    0.462670   -0.674550
      5          1           0        1.014653   -0.880774    0.032078
      6          1           0       -1.088003    1.246187   -0.034732
 ---------------------------------------------------------------------

 SCF Done:  E(RB2PLYPD3) =  -115.354881608     A.U. after   12 cycles
 E2(B2PLYPD3) =    -0.1575898660D+00 E(B2PLYPD3) =    -0.11551247147415D+03

 The electronic state is 1-A.
 Alpha  occ. eigenvalues --  -19.75682 -10.59669  -1.12053  -0.82329  -0.57411
 Alpha  occ. eigenvalues --   -0.54687  -0.48133  -0.39079  -0.35564
 Alpha virt. eigenvalues --   -0.03063   0.07626   0.12276   0.13176   0.14803
 Alpha virt. eigenvalues --    0.17470   0.18021   0.21411   0.29632   0.33368
 Alpha virt. eigenvalues --    0.34669   0.38769   0.38995   0.44267   0.47146

 Mulliken charges:
               1
     1  C    0.067517
     2  O   -0.462711
     3  H    0.038657
     4  H    0.094970
     5  H    0.056072
     6  H    0.205495
 Sum of Mulliken charges =   0.00000

 Dipole moment (field-independent basis, Debye):
    X=              1.3744    Y=              1.7700    Z=             -0.0913  Tot=              2.2428
 Quadrupole moment (field-independent basis, Debye-Ang):
   XX=            -13.6530   YY=            -10.8492   ZZ=            -13.9089
   XY=             -1.9717   XZ=             -0.0379   YZ=             -0.1126

 Normal termination of Gaussian 09 at Wed Aug 26 20:49:14 2020.
