 Gaussian 09, Revision D.01,
 Gaussian 09:  ES64L-G09RevD.01 24-Apr-2013

 --------------------
 #p B2PLYPD3/Def2QZVP
 --------------------

 --------
 methanol
 --------
 Symbolic Z-matrix:
 Charge =  0 Multiplicity = 1

                         Standard orientation:
 ---------------------------------------------------------------------
 Center     Atomic      Atomic             Coordinates (Angstroms)
 Number     Number       Type             X           Y           Z
 ---------------------------------------------------------------------
      1          6           0        0.671635    0.022395   -0.013109
      2          8           0       -0.743811   -0.143978    0.006883
      3          1           0        1.010067    0.563994    0.855574
      4          1           0        0.978835    0.525749   -0.832157
      5          1           0        1.093003   -0.938333    0.019670
      6          1           0       -1.161230    0.866048   -0.019499
 ---------------------------------------------------------------------

 SCF Done:  E(RB2PLYPD3) =  -115.532157141     A.U. after   11 cycles
 E2(B2PLYPD3) =    -0.1493483911D+00 E(B2PLYPD3) =    -0.11568150553253D+03

 The electronic state is 1-A.
 Alpha  occ. eigenvalues --  -19.73364 -10.63922  -1.13717  -0.78899  -0.57239
 Alpha  occ. eigenvalues --   -0.52281  -0.49540  -0.41094  -0.35084
 Alpha virt. eigenvalues --    0.03861   0.07948   0.12538   0.12647   0.14896
 Alpha virt. eigenvalues --    0.17441   0.18005   0.29038   0.30454   0.33350
 Alpha virt. eigenvalues --    0.33807   0.39345   0.40000   0.41930   0.44463

 Mulliken charges:
               1
     1  C    0.086606
     2  O   -0.491798
     3  H    0.041481
     4  H    0.047553
     5  H    0.068487
     6  H    0.247670
 Sum of Mulliken charges =   0.00000

 Dipole moment (field-independent basis, Debye):
    X=              0.9460    Y=              1.6311    Z=             -0.0944  Tot=              1.8879
 Quadrupole moment (field-independent basis, Debye-Ang):
   XX=            -13.0289   YY=            -11.9066   ZZ=            -13.8446
   XY=             -2.3833   XZ=              0.0171   YZ=             -0.0974

 Normal termination of Gaussian 09 at Wed Aug 26 10:39:38 2020.
