 Gaussian 09, Revision D.01,
 Gaussian 09:  ES64L-G09RevD.01 24-Apr-2013

 --------------------
 #p B2PLYPD3/Def2QZVP
 --------------------

 --------
 methanol
 --------
 Symbolic Z-matrix:
 Charge =  0 Multiplicity = 1

                         Standard orientation:
 ---------------------------------------------------------------------
 Center     Atomic      Atomic             Coordinates (Angstroms)
 Number     Number       Type             X           Y           Z
 ---------------------------------------------------------------------
      1          6           0        0.662192    0.023860    0.010077
      2          8           0       -0.759221   -0.161111   -0.008229
      3          1           0        1.156680    0.399473    0.775777
      4          1           0        1.133745    0.638011   -0.730340
      5          1           0        1.025164   -0.949601   -0.092855
      6          1           0       -1.214979    1.057843    0.052786
 ---------------------------------------------------------------------

 SCF Done:  E(RB2PLYPD3) =  -115.469848056     A.U. after   11 cycles
 E2(B2PLYPD3) =    -0.1546595403D+00 E(B2PLYPD3) =    -0.11562450759668D+03

 The electronic state is 1-A.
 Alpha  occ. eigenvalues --  -19.75696 -10.63528  -1.12025  -0.79607  -0.55979
 Alpha  occ. eigenvalues --   -0.50444  -0.48603  -0.40585  -0.35246
 Alpha virt. eigenvalues --    0.00501   0.07217   0.12115   0.13288   0.15250
 Alpha virt. eigenvalues --    0.17132   0.18615   0.23666   0.29362   0.33346
 Alpha virt. eigenvalues --    0.34320   0.37933   0.38120   0.41471   0.45222

 Mulliken charges:
               1
     1  C    0.081018
     2  O   -0.472680
     3  H    0.048550
     4  H    0.035665
     5  H    0.060188
     6  H    0.247259
 Sum of Mulliken charges =   0.00000

 Dipole moment (field-independent basis, Debye):
    X=              0.9823    Y=              1.7369    Z=              0.1620  Tot=              2.0020
 Quadrupole moment (field-independent basis, Debye-Ang):
   XX=            -12.8153   YY=            -11.5338   ZZ=            -14.3904
   XY=             -2.2605   XZ=              0.0156   YZ=              0.1249

 Normal termination of Gaussian 09 at Wed Aug 26 19:52:29 2020.
