 Gaussian 09, Revision D.01,
 Gaussian 09:  ES64L-G09RevD.01 24-Apr-2013

 --------------------
 #p B2PLYPD3/Def2QZVP
 --------------------

 --------
 methanol
 --------
 Symbolic Z-matrix:
 Charge =  0 Multiplicity = 1

                         Standard orientation:
 ---------------------------------------------------------------------
 Center     Atomic      Atomic             Coordinates (Angstroms)
 Number     Number       Type             X           Y           Z
 ---------------------------------------------------------------------
      1          6           0       -0.681224   -0.016108    0.012327
      2          8           0        0.755494    0.083375   -0.026465
      3          1           0       -0.929942   -0.402019    1.044498
      4          1           0       -1.084409   -0.704449   -0.872732
      5          1           0       -1.075308    1.048274   -0.123980
      6          1           0        1.133052   -0.512155    0.089971
 ---------------------------------------------------------------------

 SCF Done:  E(RB2PLYPD3) =  -115.437774755     A.U. after   11 cycles
 E2(B2PLYPD3) =    -0.1443221389D+00 E(B2PLYPD3) =    -0.11558209689368D+03

 The electronic state is 1-A.
 Alpha  occ. eigenvalues --  -19.69488 -10.68527  -1.22570  -0.81024  -0.60637
 Alpha  occ. eigenvalues --   -0.51522  -0.50033  -0.40431  -0.35932
 Alpha virt. eigenvalues --    0.05357   0.09076   0.11692   0.12045   0.14129
 Alpha virt. eigenvalues --    0.16827   0.17759   0.28777   0.31636   0.32857
 Alpha virt. eigenvalues --    0.36470   0.37947   0.39334   0.40388   0.42771

 Mulliken charges:
               1
     1  C    0.057624
     2  O   -0.277858
     3  H    0.057972
     4  H    0.050977
     5  H    0.083675
     6  H    0.027610
 Sum of Mulliken charges =   0.00000

 Dipole moment (field-independent basis, Debye):
    X=             -0.9463    Y=             -1.1682    Z=              0.2989  Tot=              1.5329
 Quadrupole moment (field-independent basis, Debye-Ang):
   XX=            -13.0277   YY=            -12.6292   ZZ=            -13.4367
   XY=             -2.0002   XZ=              0.4482   YZ=             -0.1557

 Normal termination of Gaussian 09 at Wed Aug 26 13:45:36 2020.
