 Gaussian 09, Revision D.01,
 Gaussian 09:  ES64L-G09RevD.01 24-Apr-2013

 --------------------
 #p B2PLYPD3/Def2QZVP
 --------------------

 --------
 methanol
 --------
 Symbolic Z-matrix:
 Charge =  0 Multiplicity = 1

                         Standard orientation:
 ---------------------------------------------------------------------
 Center     Atomic      Atomic             Coordinates (Angstroms)
 Number     Number       Type             X           Y           Z
 ---------------------------------------------------------------------
      1          6           0        0.708351   -0.041140   -0.021811
      2          8           0       -0.761343    0.054798    0.020097
      3          1           0        0.899620   -0.599579   -0.939916
      4          1           0        1.094317   -0.573852    0.963552
      5          1           0        1.048883    1.268903   -0.025823
      6          1           0       -1.202181   -0.287017   -0.027719
 ---------------------------------------------------------------------

 SCF Done:  E(RB2PLYPD3) =  -115.035617085     A.U. after   12 cycles
 E2(B2PLYPD3) =    -0.1444538522D+00 E(B2PLYPD3) =    -0.11518007093737D+03

 The electronic state is 1-A.
 Alpha  occ. eigenvalues --  -19.66782 -10.71515  -1.27727  -0.84087  -0.61653
 Alpha  occ. eigenvalues --   -0.52105  -0.47667  -0.38005  -0.36323
 Alpha virt. eigenvalues --    0.04400   0.09625   0.10048   0.11677   0.13749
 Alpha virt. eigenvalues --    0.16354   0.17179   0.27917   0.29759   0.31167
 Alpha virt. eigenvalues --    0.32618   0.36523   0.39907   0.41007   0.41767

 Mulliken charges:
               1
     1  C    0.059720
     2  O   -0.163102
     3  H    0.082537
     4  H    0.073906
     5  H    0.080238
     6  H   -0.133299
 Sum of Mulliken charges =   0.00000

 Dipole moment (field-independent basis, Debye):
    X=              1.0429    Y=             -1.0535    Z=             -0.1979  Tot=              1.4956
 Quadrupole moment (field-independent basis, Debye-Ang):
   XX=            -12.6771   YY=            -12.6610   ZZ=            -13.2913
   XY=              1.3501   XZ=              0.3260   YZ=              0.1316

 Normal termination of Gaussian 09 at Wed Aug 26 22:00:43 2020.
