 Gaussian 09, Revision D.01,
 Gaussian 09:  ES64L-G09RevD.01 24-Apr-2013

 --------------------
 #p B2PLYPD3/Def2QZVP
 --------------------

 --------
 methanol
 --------
 Symbolic Z-matrix:
 Charge =  0 Multiplicity = 1

                         Standard orientation:
 ---------------------------------------------------------------------
 Center     Atomic      Atomic             Coordinates (Angstroms)
 Number     Number       Type             X           Y           Z
 ---------------------------------------------------------------------
      1          6           0        0.670150   -0.027107    0.015231
      2          8           0       -0.743252    0.136221   -0.013229
      3          1           0        1.025573   -0.616557   -0.838980
      4          1           0        0.977651   -0.458302    0.867837
      5          1           0        1.086929    0.964253   -0.064254
      6          1           0       -1.165039   -0.816518    0.049841
 ---------------------------------------------------------------------

 SCF Done:  E(RB2PLYPD3) =  -115.540613560     A.U. after   10 cycles
 E2(B2PLYPD3) =    -0.1484928237D+00 E(B2PLYPD3) =    -0.11568910638350D+03

 The electronic state is 1-A.
 Alpha  occ. eigenvalues --  -19.73022 -10.64424  -1.14458  -0.78853  -0.57795
 Alpha  occ. eigenvalues --   -0.52415  -0.49417  -0.40942  -0.35258
 Alpha virt. eigenvalues --    0.04382   0.08044   0.12464   0.12565   0.14920
 Alpha virt. eigenvalues --    0.17316   0.18086   0.29172   0.31984   0.33408
 Alpha virt. eigenvalues --    0.33872   0.38955   0.39664   0.41872   0.44787

 Mulliken charges:
               1
     1  C    0.080423
     2  O   -0.484171
     3  H    0.042672
     4  H    0.052007
     5  H    0.067251
     6  H    0.241818
 Sum of Mulliken charges =   0.00000

 Dipole moment (field-independent basis, Debye):
    X=              0.8996    Y=             -1.5911    Z=              0.1793  Tot=              1.8365
 Quadrupole moment (field-independent basis, Debye-Ang):
   XX=            -12.9827   YY=            -12.0660   ZZ=            -13.7815
   XY=              2.3316   XZ=             -0.0936   YZ=             -0.1387

 Normal termination of Gaussian 09 at Wed Aug 26 10:45:49 2020.
