 Gaussian 09, Revision D.01,
 Gaussian 09:  ES64L-G09RevD.01 24-Apr-2013

 --------------------
 #p B2PLYPD3/Def2QZVP
 --------------------

 --------
 methanol
 --------
 Symbolic Z-matrix:
 Charge =  0 Multiplicity = 1

                         Standard orientation:
 ---------------------------------------------------------------------
 Center     Atomic      Atomic             Coordinates (Angstroms)
 Number     Number       Type             X           Y           Z
 ---------------------------------------------------------------------
      1          6           0        0.667771   -0.009924    0.001771
      2          8           0       -0.747763    0.093578   -0.004760
      3          1           0        1.037770   -0.638797   -0.889055
      4          1           0        1.032263   -0.460264    0.981587
      5          1           0        1.023055    1.025751   -0.092926
      6          1           0       -1.117613   -0.615772    0.027849
 ---------------------------------------------------------------------

 SCF Done:  E(RB2PLYPD3) =  -115.516274175     A.U. after   10 cycles
 E2(B2PLYPD3) =    -0.1449633130D+00 E(B2PLYPD3) =    -0.11566123748831D+03

 The electronic state is 1-A.
 Alpha  occ. eigenvalues --  -19.70816 -10.67215  -1.20221  -0.80024  -0.60409
 Alpha  occ. eigenvalues --   -0.51316  -0.50431  -0.41104  -0.35603
 Alpha virt. eigenvalues --    0.05403   0.08860   0.11981   0.12264   0.14673
 Alpha virt. eigenvalues --    0.16880   0.17909   0.28950   0.33008   0.33132
 Alpha virt. eigenvalues --    0.37213   0.39443   0.39539   0.40098   0.42793

 Mulliken charges:
               1
     1  C    0.059763
     2  O   -0.356183
     3  H    0.045650
     4  H    0.049894
     5  H    0.080511
     6  H    0.120364
 Sum of Mulliken charges =   0.00000

 Dipole moment (field-independent basis, Debye):
    X=              0.8620    Y=             -1.2941    Z=              0.0666  Tot=              1.5563
 Quadrupole moment (field-independent basis, Debye-Ang):
   XX=            -13.1115   YY=            -12.4067   ZZ=            -13.6387
   XY=              2.0672   XZ=             -0.0967   YZ=             -0.0592

 Normal termination of Gaussian 09 at Thu Aug 27 00:05:33 2020.
