 Gaussian 09, Revision D.01,
 Gaussian 09:  ES64L-G09RevD.01 24-Apr-2013

 --------------------
 #p B2PLYPD3/Def2QZVP
 --------------------

 --------
 methanol
 --------
 Symbolic Z-matrix:
 Charge =  0 Multiplicity = 1

                         Standard orientation:
 ---------------------------------------------------------------------
 Center     Atomic      Atomic             Coordinates (Angstroms)
 Number     Number       Type             X           Y           Z
 ---------------------------------------------------------------------
      1          6           0        0.652663   -0.016702    0.002745
      2          8           0       -0.744076    0.118221   -0.008213
      3          1           0        1.061465   -0.600309   -0.900364
      4          1           0        1.182807   -0.428889    0.918249
      5          1           0        1.025608    0.947427   -0.067020
      6          1           0       -1.233252   -0.763784    0.098365
 ---------------------------------------------------------------------

 SCF Done:  E(RB2PLYPD3) =  -115.541400205     A.U. after   10 cycles
 E2(B2PLYPD3) =    -0.1484703914D+00 E(B2PLYPD3) =    -0.11568987059612D+03

 The electronic state is 1-A.
 Alpha  occ. eigenvalues --  -19.73456 -10.65955  -1.15681  -0.78386  -0.58324
 Alpha  occ. eigenvalues --   -0.51054  -0.49953  -0.40389  -0.35082
 Alpha virt. eigenvalues --    0.04632   0.07651   0.12359   0.12670   0.15131
 Alpha virt. eigenvalues --    0.16899   0.18758   0.28825   0.32908   0.33122
 Alpha virt. eigenvalues --    0.34932   0.37585   0.39122   0.40524   0.43228

 Mulliken charges:
               1
     1  C    0.055315
     2  O   -0.459806
     3  H    0.041033
     4  H    0.043714
     5  H    0.075152
     6  H    0.244592
 Sum of Mulliken charges =   0.00000

 Dipole moment (field-independent basis, Debye):
    X=              0.6249    Y=             -1.3999    Z=              0.1938  Tot=              1.5453
 Quadrupole moment (field-independent basis, Debye-Ang):
   XX=            -12.5356   YY=            -12.4794   ZZ=            -13.9765
   XY=              2.4199   XZ=             -0.1548   YZ=             -0.1317

 Normal termination of Gaussian 09 at Wed Aug 26 19:40:18 2020.
