 Gaussian 09, Revision D.01,
 Gaussian 09:  ES64L-G09RevD.01 24-Apr-2013

 --------------------
 #p B2PLYPD3/Def2QZVP
 --------------------

 --------
 methanol
 --------
 Symbolic Z-matrix:
 Charge =  0 Multiplicity = 1

                         Standard orientation:
 ---------------------------------------------------------------------
 Center     Atomic      Atomic             Coordinates (Angstroms)
 Number     Number       Type             X           Y           Z
 ---------------------------------------------------------------------
      1          6           0        0.663018    0.030922    0.006214
      2          8           0       -0.742498   -0.146756   -0.006678
      3          1           0        0.986652    0.464458    0.856749
      4          1           0        1.011509    0.598867   -0.808312
      5          1           0        1.102979   -0.956175   -0.057479
      6          1           0       -1.139268    0.881367    0.025182
 ---------------------------------------------------------------------

 SCF Done:  E(RB2PLYPD3) =  -115.529996081     A.U. after   11 cycles
 E2(B2PLYPD3) =    -0.1495264924D+00 E(B2PLYPD3) =    -0.11567952257393D+03

 The electronic state is 1-A.
 Alpha  occ. eigenvalues --  -19.73605 -10.63879  -1.14035  -0.78767  -0.57167
 Alpha  occ. eigenvalues --   -0.52808  -0.49189  -0.40907  -0.35302
 Alpha virt. eigenvalues --    0.03729   0.07924   0.12451   0.12697   0.14948
 Alpha virt. eigenvalues --    0.17514   0.18122   0.28806   0.30108   0.33498
 Alpha virt. eigenvalues --    0.34276   0.38795   0.39934   0.42565   0.44344

 Mulliken charges:
               1
     1  C    0.085370
     2  O   -0.485426
     3  H    0.048027
     4  H    0.042714
     5  H    0.061507
     6  H    0.247807
 Sum of Mulliken charges =   0.00000

 Dipole moment (field-independent basis, Debye):
    X=              0.9456    Y=              1.6727    Z=              0.0863  Tot=              1.9234
 Quadrupole moment (field-independent basis, Debye-Ang):
   XX=            -13.1197   YY=            -11.9020   ZZ=            -13.8412
   XY=             -2.3013   XZ=             -0.0488   YZ=              0.0578

 Normal termination of Gaussian 09 at Wed Aug 26 23:44:16 2020.
