 Gaussian 09, Revision D.01,
 Gaussian 09:  ES64L-G09RevD.01 24-Apr-2013

 --------------------
 #p B2PLYPD3/Def2QZVP
 --------------------

 --------
 methanol
 --------
 Symbolic Z-matrix:
 Charge =  0 Multiplicity = 1

                         Standard orientation:
 ---------------------------------------------------------------------
 Center     Atomic      Atomic             Coordinates (Angstroms)
 Number     Number       Type             X           Y           Z
 ---------------------------------------------------------------------
      1          6           0        0.668480    0.015358   -0.002941
      2          8           0       -0.757785   -0.147276   -0.003141
      3          1           0        1.059997    0.476049    0.879738
      4          1           0        1.135904    0.568918   -0.796179
      5          1           0        1.057430   -0.909941   -0.037357
      6          1           0       -1.201929    0.951033   -0.003428
 ---------------------------------------------------------------------

 SCF Done:  E(RB2PLYPD3) =  -115.510283644     A.U. after   11 cycles
 E2(B2PLYPD3) =    -0.1517526659D+00 E(B2PLYPD3) =    -0.11566203631037D+03

 The electronic state is 1-A.
 Alpha  occ. eigenvalues --  -19.74588 -10.64089  -1.12578  -0.78915  -0.56094
 Alpha  occ. eigenvalues --   -0.50815  -0.49431  -0.41093  -0.35166
 Alpha virt. eigenvalues --    0.02627   0.07453   0.12576   0.12806   0.15016
 Alpha virt. eigenvalues --    0.17279   0.18530   0.26706   0.29505   0.33256
 Alpha virt. eigenvalues --    0.34178   0.38435   0.39731   0.41041   0.43598

 Mulliken charges:
               1
     1  C    0.076942
     2  O   -0.489206
     3  H    0.044827
     4  H    0.042837
     5  H    0.069309
     6  H    0.255290
 Sum of Mulliken charges =   0.00000

 Dipole moment (field-independent basis, Debye):
    X=              0.9381    Y=              1.6306    Z=              0.0030  Tot=              1.8812
 Quadrupole moment (field-independent basis, Debye-Ang):
   XX=            -12.8098   YY=            -11.8503   ZZ=            -14.0953
   XY=             -2.4305   XZ=             -0.0537   YZ=             -0.0019

 Normal termination of Gaussian 09 at Wed Aug 26 11:02:27 2020.
