 Gaussian 09, Revision D.01,
 Gaussian 09:  ES64L-G09RevD.01 24-Apr-2013

 --------------------
 #p B2PLYPD3/Def2QZVP
 --------------------

 --------
 methanol
 --------
 Symbolic Z-matrix:
 Charge =  0 Multiplicity = 1

                         Standard orientation:
 ---------------------------------------------------------------------
 Center     Atomic      Atomic             Coordinates (Angstroms)
 Number     Number       Type             X           Y           Z
 ---------------------------------------------------------------------
      1          6           0       -0.675592   -0.021676   -0.003296
      2          8           0        0.755112    0.100166   -0.002945
      3          1           0       -1.010266   -0.571599    0.913017
      4          1           0       -1.061589   -0.537050   -0.906743
      5          1           0       -1.056671    1.064528    0.035519
      6          1           0        1.141179   -0.627151    0.001542
 ---------------------------------------------------------------------

 SCF Done:  E(RB2PLYPD3) =  -115.526479762     A.U. after   10 cycles
 E2(B2PLYPD3) =    -0.1455078362D+00 E(B2PLYPD3) =    -0.11567198759787D+03

 The electronic state is 1-A.
 Alpha  occ. eigenvalues --  -19.71035 -10.67235  -1.18979  -0.79565  -0.60243
 Alpha  occ. eigenvalues --   -0.51520  -0.49322  -0.40960  -0.35794
 Alpha virt. eigenvalues --    0.05362   0.08691   0.11959   0.12188   0.14752
 Alpha virt. eigenvalues --    0.16917   0.17896   0.29030   0.32478   0.33330
 Alpha virt. eigenvalues --    0.37213   0.38732   0.39723   0.40080   0.42371

 Mulliken charges:
               1
     1  C    0.063078
     2  O   -0.386090
     3  H    0.052031
     4  H    0.056189
     5  H    0.073605
     6  H    0.141187
 Sum of Mulliken charges =   0.00000

 Dipole moment (field-independent basis, Debye):
    X=             -0.9057    Y=             -1.3896    Z=              0.0044  Tot=              1.6588
 Quadrupole moment (field-independent basis, Debye-Ang):
   XX=            -12.9997   YY=            -12.3859   ZZ=            -13.6945
   XY=             -2.0425   XZ=              0.0623   YZ=              0.0222

 Normal termination of Gaussian 09 at Wed Aug 26 15:37:32 2020.
