 Gaussian 09, Revision D.01,
 Gaussian 09:  ES64L-G09RevD.01 24-Apr-2013

 --------------------
 #p B2PLYPD3/Def2QZVP
 --------------------

 --------
 methanol
 --------
 Symbolic Z-matrix:
 Charge =  0 Multiplicity = 1

                         Standard orientation:
 ---------------------------------------------------------------------
 Center     Atomic      Atomic             Coordinates (Angstroms)
 Number     Number       Type             X           Y           Z
 ---------------------------------------------------------------------
      1          6           0        0.660573    0.028132   -0.002256
      2          8           0       -0.735192   -0.166587   -0.002483
      3          1           0        1.114547    0.412437    0.848490
      4          1           0        0.961493    0.657878   -0.775410
      5          1           0        1.116344   -0.863478   -0.107232
      6          1           0       -1.274289    0.957062    0.067556
 ---------------------------------------------------------------------

 SCF Done:  E(RB2PLYPD3) =  -115.493269950     A.U. after   11 cycles
 E2(B2PLYPD3) =    -0.1521624198D+00 E(B2PLYPD3) =    -0.11564543236954D+03

 The electronic state is 1-A.
 Alpha  occ. eigenvalues --  -19.74550 -10.63095  -1.12713  -0.79077  -0.55653
 Alpha  occ. eigenvalues --   -0.52081  -0.49781  -0.40041  -0.34896
 Alpha virt. eigenvalues --    0.01501   0.07504   0.12766   0.12971   0.14971
 Alpha virt. eigenvalues --    0.17478   0.18507   0.25053   0.29543   0.33215
 Alpha virt. eigenvalues --    0.34789   0.39156   0.39927   0.42450   0.43732

 Mulliken charges:
               1
     1  C    0.087990
     2  O   -0.491329
     3  H    0.042354
     4  H    0.039775
     5  H    0.064799
     6  H    0.256411
 Sum of Mulliken charges =   0.00000

 Dipole moment (field-independent basis, Debye):
    X=              0.8101    Y=              1.6710    Z=              0.0980  Tot=              1.8596
 Quadrupole moment (field-independent basis, Debye-Ang):
   XX=            -12.4974   YY=            -11.9068   ZZ=            -14.0551
   XY=             -2.6401   XZ=             -0.0471   YZ=              0.0576

 Normal termination of Gaussian 09 at Wed Aug 26 12:27:17 2020.
