 Gaussian 09, Revision D.01,
 Gaussian 09:  ES64L-G09RevD.01 24-Apr-2013

 --------------------
 #p B2PLYPD3/Def2QZVP
 --------------------

 --------
 methanol
 --------
 Symbolic Z-matrix:
 Charge =  0 Multiplicity = 1

                         Standard orientation:
 ---------------------------------------------------------------------
 Center     Atomic      Atomic             Coordinates (Angstroms)
 Number     Number       Type             X           Y           Z
 ---------------------------------------------------------------------
      1          6           0        0.670672    0.008073    0.003034
      2          8           0       -0.733479   -0.151440   -0.002772
      3          1           0        1.058409    0.464552    0.858719
      4          1           0        0.958144    0.586632   -0.855117
      5          1           0        0.994759   -0.852914   -0.054383
      6          1           0       -1.167511    0.964814    0.054757
 ---------------------------------------------------------------------

 SCF Done:  E(RB2PLYPD3) =  -115.489857599     A.U. after   11 cycles
 E2(B2PLYPD3) =    -0.1511878715D+00 E(B2PLYPD3) =    -0.11564104547048D+03

 The electronic state is 1-A.
 Alpha  occ. eigenvalues --  -19.73962 -10.62590  -1.13102  -0.79495  -0.56899
 Alpha  occ. eigenvalues --   -0.52162  -0.49919  -0.40987  -0.34758
 Alpha virt. eigenvalues --    0.02406   0.07875   0.12576   0.12920   0.14869
 Alpha virt. eigenvalues --    0.17188   0.18257   0.26622   0.29568   0.33109
 Alpha virt. eigenvalues --    0.34582   0.38275   0.41199   0.42286   0.43862

 Mulliken charges:
               1
     1  C    0.072121
     2  O   -0.491052
     3  H    0.043270
     4  H    0.040917
     5  H    0.083706
     6  H    0.251039
 Sum of Mulliken charges =   0.00000

 Dipole moment (field-independent basis, Debye):
    X=              0.9531    Y=              1.6001    Z=              0.1009  Tot=              1.8652
 Quadrupole moment (field-independent basis, Debye-Ang):
   XX=            -13.1240   YY=            -11.6733   ZZ=            -13.8163
   XY=             -2.4650   XZ=             -0.0055   YZ=              0.1001

 Normal termination of Gaussian 09 at Wed Aug 26 15:38:29 2020.
