 Gaussian 09, Revision D.01,
 Gaussian 09:  ES64L-G09RevD.01 24-Apr-2013

 --------------------
 #p B2PLYPD3/Def2QZVP
 --------------------

 --------
 methanol
 --------
 Symbolic Z-matrix:
 Charge =  0 Multiplicity = 1

                         Standard orientation:
 ---------------------------------------------------------------------
 Center     Atomic      Atomic             Coordinates (Angstroms)
 Number     Number       Type             X           Y           Z
 ---------------------------------------------------------------------
      1          6           0       -0.684730   -0.019240    0.015301
      2          8           0        0.755131    0.081712   -0.028688
      3          1           0       -0.938858   -0.297541    1.047863
      4          1           0       -1.097997   -0.788478   -0.785981
      5          1           0       -1.066924    1.054164   -0.224480
      6          1           0        1.171114   -0.506398    0.100295
 ---------------------------------------------------------------------

 SCF Done:  E(RB2PLYPD3) =  -115.455392974     A.U. after   11 cycles
 E2(B2PLYPD3) =    -0.1445033007D+00 E(B2PLYPD3) =    -0.11559989627449D+03

 The electronic state is 1-A.
 Alpha  occ. eigenvalues --  -19.69551 -10.68395  -1.21526  -0.81022  -0.60652
 Alpha  occ. eigenvalues --   -0.51605  -0.49572  -0.40090  -0.35953
 Alpha virt. eigenvalues --    0.05390   0.08984   0.11744   0.12030   0.14308
 Alpha virt. eigenvalues --    0.16707   0.17802   0.28924   0.31568   0.32992
 Alpha virt. eigenvalues --    0.36548   0.37520   0.40118   0.40256   0.42565

 Mulliken charges:
               1
     1  C    0.059299
     2  O   -0.297845
     3  H    0.063753
     4  H    0.051231
     5  H    0.081330
     6  H    0.042231
 Sum of Mulliken charges =   0.00000

 Dipole moment (field-independent basis, Debye):
    X=             -0.9110    Y=             -1.1845    Z=              0.3436  Tot=              1.5333
 Quadrupole moment (field-independent basis, Debye-Ang):
   XX=            -12.8395   YY=            -12.6395   ZZ=            -13.4817
   XY=             -1.9424   XZ=              0.4805   YZ=             -0.1687

 Normal termination of Gaussian 09 at Wed Aug 26 12:14:37 2020.
