 Gaussian 09, Revision D.01,
 Gaussian 09:  ES64L-G09RevD.01 24-Apr-2013

 --------------------
 #p B2PLYPD3/Def2QZVP
 --------------------

 --------
 methanol
 --------
 Symbolic Z-matrix:
 Charge =  0 Multiplicity = 1

                         Standard orientation:
 ---------------------------------------------------------------------
 Center     Atomic      Atomic             Coordinates (Angstroms)
 Number     Number       Type             X           Y           Z
 ---------------------------------------------------------------------
      1          6           0        0.675603   -0.017912    0.006058
      2          8           0       -0.752984    0.102041   -0.011968
      3          1           0        1.036782   -0.686386   -0.841083
      4          1           0        1.005608   -0.414619    0.967766
      5          1           0        1.060282    1.030669   -0.124968
      6          1           0       -1.132416   -0.638519    0.057684
 ---------------------------------------------------------------------

 SCF Done:  E(RB2PLYPD3) =  -115.532346785     A.U. after   10 cycles
 E2(B2PLYPD3) =    -0.1455266016D+00 E(B2PLYPD3) =    -0.11567787338696D+03

 The electronic state is 1-A.
 Alpha  occ. eigenvalues --  -19.71089 -10.66886  -1.18683  -0.79573  -0.59979
 Alpha  occ. eigenvalues --   -0.51620  -0.49712  -0.41073  -0.35682
 Alpha virt. eigenvalues --    0.05364   0.08708   0.12056   0.12229   0.14697
 Alpha virt. eigenvalues --    0.16976   0.17867   0.29058   0.32616   0.33194
 Alpha virt. eigenvalues --    0.37552   0.38738   0.39525   0.40477   0.42908

 Mulliken charges:
               1
     1  C    0.066709
     2  O   -0.397870
     3  H    0.047839
     4  H    0.056025
     5  H    0.075705
     6  H    0.151593
 Sum of Mulliken charges =   0.00000

 Dipole moment (field-independent basis, Debye):
    X=              0.9196    Y=             -1.3731    Z=              0.1703  Tot=              1.6613
 Quadrupole moment (field-independent basis, Debye-Ang):
   XX=            -13.0514   YY=            -12.3605   ZZ=            -13.6563
   XY=              2.0956   XZ=             -0.1746   YZ=             -0.1063

 Normal termination of Gaussian 09 at Wed Aug 26 11:31:15 2020.
