 Gaussian 09, Revision D.01,
 Gaussian 09:  ES64L-G09RevD.01 24-Apr-2013

 --------------------
 #p B2PLYPD3/Def2QZVP
 --------------------

 --------
 methanol
 --------
 Symbolic Z-matrix:
 Charge =  0 Multiplicity = 1

                         Standard orientation:
 ---------------------------------------------------------------------
 Center     Atomic      Atomic             Coordinates (Angstroms)
 Number     Number       Type             X           Y           Z
 ---------------------------------------------------------------------
      1          6           0       -0.675299    0.007543    0.007435
      2          8           0        0.754534   -0.074730   -0.043233
      3          1           0       -0.968086    1.073963   -0.449314
      4          1           0       -0.994562   -0.138010    1.105416
      5          1           0       -1.112676   -0.817911   -0.609299
      6          1           0        1.090843    0.434537    0.254453
 ---------------------------------------------------------------------

 SCF Done:  E(RB2PLYPD3) =  -115.389482501     A.U. after   11 cycles
 E2(B2PLYPD3) =    -0.1437843748D+00 E(B2PLYPD3) =    -0.11553326687539D+03

 The electronic state is 1-A.
 Alpha  occ. eigenvalues --  -19.69172 -10.68585  -1.24521  -0.81531  -0.60997
 Alpha  occ. eigenvalues --   -0.51489  -0.50960  -0.40661  -0.35945
 Alpha virt. eigenvalues --    0.05330   0.09299   0.11498   0.12244   0.13967
 Alpha virt. eigenvalues --    0.17029   0.17601   0.28560   0.31797   0.32633
 Alpha virt. eigenvalues --    0.36255   0.38344   0.39025   0.40690   0.43303

 Mulliken charges:
               1
     1  C    0.059275
     2  O   -0.246189
     3  H    0.044235
     4  H    0.055148
     5  H    0.087842
     6  H   -0.000310
 Sum of Mulliken charges =   0.00000

 Dipole moment (field-independent basis, Debye):
    X=             -0.9988    Y=              0.9742    Z=              0.5980  Tot=              1.5180
 Quadrupole moment (field-independent basis, Debye-Ang):
   XX=            -13.1587   YY=            -12.7689   ZZ=            -13.2376
   XY=              1.8267   XZ=              1.0338   YZ=              0.3458

 Normal termination of Gaussian 09 at Wed Aug 26 14:53:33 2020.
