 Gaussian 09, Revision D.01,
 Gaussian 09:  ES64L-G09RevD.01 24-Apr-2013

 --------------------
 #p B2PLYPD3/Def2QZVP
 --------------------

 --------
 methanol
 --------
 Symbolic Z-matrix:
 Charge =  0 Multiplicity = 1

                         Standard orientation:
 ---------------------------------------------------------------------
 Center     Atomic      Atomic             Coordinates (Angstroms)
 Number     Number       Type             X           Y           Z
 ---------------------------------------------------------------------
      1          6           0        0.692314    0.055171   -0.012625
      2          8           0       -0.753192   -0.168586    0.016723
      3          1           0        1.010893    0.519526    0.857518
      4          1           0        1.072143    0.490145   -0.744388
      5          1           0        1.090196   -0.955477   -0.057844
      6          1           0       -1.301578    0.963468   -0.113320
 ---------------------------------------------------------------------

 SCF Done:  E(RB2PLYPD3) =  -115.474220677     A.U. after   11 cycles
 E2(B2PLYPD3) =    -0.1534206876D+00 E(B2PLYPD3) =    -0.11562764136461D+03

 The electronic state is 1-A.
 Alpha  occ. eigenvalues --  -19.74626 -10.63220  -1.10808  -0.79958  -0.55162
 Alpha  occ. eigenvalues --   -0.52917  -0.47473  -0.40100  -0.35519
 Alpha virt. eigenvalues --    0.01547   0.07360   0.12249   0.12860   0.14877
 Alpha virt. eigenvalues --    0.17027   0.18569   0.24962   0.29058   0.32523
 Alpha virt. eigenvalues --    0.34347   0.37604   0.39621   0.42349   0.45233

 Mulliken charges:
               1
     1  C    0.080620
     2  O   -0.502484
     3  H    0.057190
     4  H    0.060178
     5  H    0.058932
     6  H    0.245564
 Sum of Mulliken charges =   0.00000

 Dipole moment (field-independent basis, Debye):
    X=              0.9871    Y=              1.7310    Z=             -0.2696  Tot=              2.0108
 Quadrupole moment (field-independent basis, Debye-Ang):
   XX=            -12.5487   YY=            -11.9133   ZZ=            -13.9084
   XY=             -2.4233   XZ=              0.1000   YZ=             -0.1594

 Normal termination of Gaussian 09 at Wed Aug 26 22:12:15 2020.
