 Gaussian 09, Revision D.01,
 Gaussian 09:  ES64L-G09RevD.01 24-Apr-2013

 --------------------
 #p B2PLYPD3/Def2QZVP
 --------------------

 --------
 methanol
 --------
 Symbolic Z-matrix:
 Charge =  0 Multiplicity = 1

                         Standard orientation:
 ---------------------------------------------------------------------
 Center     Atomic      Atomic             Coordinates (Angstroms)
 Number     Number       Type             X           Y           Z
 ---------------------------------------------------------------------
      1          6           0        0.662638   -0.018374   -0.015737
      2          8           0       -0.754325    0.087859    0.004517
      3          1           0        1.102631   -0.488451   -0.920672
      4          1           0        0.990000   -0.623782    0.945858
      5          1           0        1.069068    1.073876    0.094427
      6          1           0       -1.102928   -0.554275   -0.061329
 ---------------------------------------------------------------------

 SCF Done:  E(RB2PLYPD3) =  -115.460245445     A.U. after   10 cycles
 E2(B2PLYPD3) =    -0.1444335849D+00 E(B2PLYPD3) =    -0.11560467903038D+03

 The electronic state is 1-A.
 Alpha  occ. eigenvalues --  -19.70318 -10.68196  -1.22821  -0.80589  -0.61562
 Alpha  occ. eigenvalues --   -0.51337  -0.49837  -0.40979  -0.35914
 Alpha virt. eigenvalues --    0.05357   0.08992   0.11879   0.11926   0.14631
 Alpha virt. eigenvalues --    0.16931   0.17978   0.28818   0.32220   0.33579
 Alpha virt. eigenvalues --    0.36460   0.37959   0.39598   0.40360   0.42398

 Mulliken charges:
               1
     1  C    0.050900
     2  O   -0.278936
     3  H    0.059557
     4  H    0.043736
     5  H    0.074060
     6  H    0.050683
 Sum of Mulliken charges =   0.00000

 Dipole moment (field-independent basis, Debye):
    X=              0.8864    Y=             -1.2624    Z=             -0.1996  Tot=              1.5554
 Quadrupole moment (field-independent basis, Debye-Ang):
   XX=            -13.0599   YY=            -12.5553   ZZ=            -13.6222
   XY=              1.9452   XZ=             -0.0036   YZ=              0.1812

 Normal termination of Gaussian 09 at Wed Aug 26 15:06:42 2020.
