 Gaussian 09, Revision D.01,
 Gaussian 09:  ES64L-G09RevD.01 24-Apr-2013

 --------------------
 #p B2PLYPD3/Def2QZVP
 --------------------

 --------
 methanol
 --------
 Symbolic Z-matrix:
 Charge =  0 Multiplicity = 1

                         Standard orientation:
 ---------------------------------------------------------------------
 Center     Atomic      Atomic             Coordinates (Angstroms)
 Number     Number       Type             X           Y           Z
 ---------------------------------------------------------------------
      1          6           0        0.643916    0.004284    0.005337
      2          8           0       -0.750663   -0.031382   -0.062160
      3          1           0        1.085428   -0.471658    1.009867
      4          1           0        0.983907    1.195808   -0.112729
      5          1           0        1.127316   -0.639632   -0.840773
      6          1           0       -1.054839    0.140834    0.408893
 ---------------------------------------------------------------------

 SCF Done:  E(RB2PLYPD3) =  -115.165372168     A.U. after   11 cycles
 E2(B2PLYPD3) =    -0.1433118452D+00 E(B2PLYPD3) =    -0.11530868401329D+03

 The electronic state is 1-A.
 Alpha  occ. eigenvalues --  -19.69188 -10.69963  -1.30371  -0.83428  -0.62587
 Alpha  occ. eigenvalues --   -0.51732  -0.50750  -0.40465  -0.36071
 Alpha virt. eigenvalues --    0.05116   0.09476   0.11264   0.11895   0.14209
 Alpha virt. eigenvalues --    0.17089   0.17689   0.28274   0.31817   0.33759
 Alpha virt. eigenvalues --    0.35076   0.36665   0.37441   0.41447   0.43132

 Mulliken charges:
               1
     1  C    0.046946
     2  O   -0.131725
     3  H    0.042273
     4  H    0.043758
     5  H    0.083786
     6  H   -0.085037
 Sum of Mulliken charges =   0.00000

 Dipole moment (field-independent basis, Debye):
    X=              0.8684    Y=              0.2620    Z=              1.0125  Tot=              1.3594
 Quadrupole moment (field-independent basis, Debye-Ang):
   XX=            -13.1266   YY=            -13.3270   ZZ=            -12.9227
   XY=             -0.9330   XZ=             -1.6340   YZ=              0.2599

 Normal termination of Gaussian 09 at Wed Aug 26 22:30:47 2020.
