 Gaussian 09, Revision D.01,
 Gaussian 09:  ES64L-G09RevD.01 24-Apr-2013

 --------------------
 #p B2PLYPD3/Def2QZVP
 --------------------

 --------
 methanol
 --------
 Symbolic Z-matrix:
 Charge =  0 Multiplicity = 1

                         Standard orientation:
 ---------------------------------------------------------------------
 Center     Atomic      Atomic             Coordinates (Angstroms)
 Number     Number       Type             X           Y           Z
 ---------------------------------------------------------------------
      1          6           0       -0.680535   -0.019796   -0.005373
      2          8           0        0.765542    0.090182   -0.007886
      3          1           0       -1.106420   -0.365597    1.015667
      4          1           0       -1.000110   -0.741384   -0.834548
      5          1           0       -1.105135    1.041192   -0.182758
      6          1           0        1.170541   -0.536890    0.096963
 ---------------------------------------------------------------------

 SCF Done:  E(RB2PLYPD3) =  -115.477812977     A.U. after   11 cycles
 E2(B2PLYPD3) =    -0.1449765599D+00 E(B2PLYPD3) =    -0.11562278953721D+03

 The electronic state is 1-A.
 Alpha  occ. eigenvalues --  -19.70234 -10.68544  -1.20824  -0.80357  -0.60628
 Alpha  occ. eigenvalues --   -0.51102  -0.49447  -0.40463  -0.35984
 Alpha virt. eigenvalues --    0.05381   0.08743   0.11890   0.11993   0.14386
 Alpha virt. eigenvalues --    0.16934   0.17946   0.28838   0.31478   0.33146
 Alpha virt. eigenvalues --    0.36514   0.38257   0.38784   0.40033   0.42199

 Mulliken charges:
               1
     1  C    0.059538
     2  O   -0.319954
     3  H    0.053747
     4  H    0.056345
     5  H    0.080726
     6  H    0.069598
 Sum of Mulliken charges =   0.00000

 Dipole moment (field-independent basis, Debye):
    X=             -0.9417    Y=             -1.2414    Z=              0.1903  Tot=              1.5698
 Quadrupole moment (field-independent basis, Debye-Ang):
   XX=            -12.7543   YY=            -12.6326   ZZ=            -13.6503
   XY=             -2.0544   XZ=              0.2553   YZ=             -0.0814

 Normal termination of Gaussian 09 at Wed Aug 26 13:47:33 2020.
