 Gaussian 09, Revision D.01,
 Gaussian 09:  ES64L-G09RevD.01 24-Apr-2013

 --------------------
 #p B2PLYPD3/Def2QZVP
 --------------------

 --------
 methanol
 --------
 Symbolic Z-matrix:
 Charge =  0 Multiplicity = 1

                         Standard orientation:
 ---------------------------------------------------------------------
 Center     Atomic      Atomic             Coordinates (Angstroms)
 Number     Number       Type             X           Y           Z
 ---------------------------------------------------------------------
      1          6           0        0.668139    0.038496    0.012512
      2          8           0       -0.753961   -0.155859   -0.013087
      3          1           0        1.057900    0.416672    0.813578
      4          1           0        1.058940    0.585488   -0.806231
      5          1           0        1.083989   -0.945651   -0.048538
      6          1           0       -1.177973    0.959388    0.070811
 ---------------------------------------------------------------------

 SCF Done:  E(RB2PLYPD3) =  -115.501158917     A.U. after   11 cycles
 E2(B2PLYPD3) =    -0.1518538744D+00 E(B2PLYPD3) =    -0.11565301279135D+03

 The electronic state is 1-A.
 Alpha  occ. eigenvalues --  -19.74584 -10.63453  -1.12511  -0.79442  -0.55972
 Alpha  occ. eigenvalues --   -0.52463  -0.48581  -0.40644  -0.35595
 Alpha virt. eigenvalues --    0.02499   0.07553   0.12427   0.12826   0.15013
 Alpha virt. eigenvalues --    0.17330   0.18598   0.26353   0.29407   0.33539
 Alpha virt. eigenvalues --    0.34151   0.38239   0.39425   0.42309   0.44761

 Mulliken charges:
               1
     1  C    0.085122
     2  O   -0.488415
     3  H    0.051361
     4  H    0.045319
     5  H    0.056284
     6  H    0.250329
 Sum of Mulliken charges =   0.00000

 Dipole moment (field-independent basis, Debye):
    X=              1.0055    Y=              1.7051    Z=              0.1998  Tot=              1.9896
 Quadrupole moment (field-independent basis, Debye-Ang):
   XX=            -12.9489   YY=            -11.8355   ZZ=            -13.9386
   XY=             -2.3094   XZ=             -0.0665   YZ=              0.1258

 Normal termination of Gaussian 09 at Wed Aug 26 15:56:25 2020.
