 Gaussian 09, Revision D.01,
 Gaussian 09:  ES64L-G09RevD.01 24-Apr-2013

 --------------------
 #p B2PLYPD3/Def2QZVP
 --------------------

 --------
 methanol
 --------
 Symbolic Z-matrix:
 Charge =  0 Multiplicity = 1

                         Standard orientation:
 ---------------------------------------------------------------------
 Center     Atomic      Atomic             Coordinates (Angstroms)
 Number     Number       Type             X           Y           Z
 ---------------------------------------------------------------------
      1          6           0        0.669658    0.036438   -0.001017
      2          8           0       -0.733493   -0.168269   -0.006879
      3          1           0        0.923872    0.437853    0.871198
      4          1           0        0.976712    0.614948   -0.760403
      5          1           0        1.136274   -0.882540   -0.067755
      6          1           0       -1.186858    0.957265    0.018090
 ---------------------------------------------------------------------

 SCF Done:  E(RB2PLYPD3) =  -115.497348409     A.U. after   11 cycles
 E2(B2PLYPD3) =    -0.1512839158D+00 E(B2PLYPD3) =    -0.11564863232431D+03

 The electronic state is 1-A.
 Alpha  occ. eigenvalues --  -19.73945 -10.62453  -1.12707  -0.79309  -0.55832
 Alpha  occ. eigenvalues --   -0.53720  -0.49329  -0.40330  -0.35052
 Alpha virt. eigenvalues --    0.02207   0.07791   0.12626   0.12856   0.14714
 Alpha virt. eigenvalues --    0.17689   0.18086   0.26109   0.29582   0.33268
 Alpha virt. eigenvalues --    0.34203   0.39826   0.40339   0.43313   0.44010

 Mulliken charges:
               1
     1  C    0.099982
     2  O   -0.498296
     3  H    0.046888
     4  H    0.041366
     5  H    0.060076
     6  H    0.249985
 Sum of Mulliken charges =   0.00000

 Dipole moment (field-independent basis, Debye):
    X=              0.9839    Y=              1.7213    Z=              0.0496  Tot=              1.9833
 Quadrupole moment (field-independent basis, Debye-Ang):
   XX=            -12.9869   YY=            -11.7620   ZZ=            -13.7878
   XY=             -2.4947   XZ=             -0.0998   YZ=             -0.0001

 Normal termination of Gaussian 09 at Wed Aug 26 11:25:06 2020.
