 Gaussian 09, Revision D.01,
 Gaussian 09:  ES64L-G09RevD.01 24-Apr-2013

 --------------------
 #p B2PLYPD3/Def2QZVP
 --------------------

 --------
 methanol
 --------
 Symbolic Z-matrix:
 Charge =  0 Multiplicity = 1

                         Standard orientation:
 ---------------------------------------------------------------------
 Center     Atomic      Atomic             Coordinates (Angstroms)
 Number     Number       Type             X           Y           Z
 ---------------------------------------------------------------------
      1          6           0        0.658607    0.030696   -0.009497
      2          8           0       -0.742162   -0.167850    0.004197
      3          1           0        1.041477    0.530567    0.808516
      4          1           0        1.026321    0.552182   -0.761076
      5          1           0        1.129636   -0.916207   -0.011797
      6          1           0       -1.211780    0.992084   -0.012239
 ---------------------------------------------------------------------

 SCF Done:  E(RB2PLYPD3) =  -115.489734678     A.U. after   11 cycles
 E2(B2PLYPD3) =    -0.1524234633D+00 E(B2PLYPD3) =    -0.11564215814134D+03

 The electronic state is 1-A.
 Alpha  occ. eigenvalues --  -19.74774 -10.63008  -1.12679  -0.79333  -0.55968
 Alpha  occ. eigenvalues --   -0.51983  -0.49281  -0.40443  -0.35115
 Alpha virt. eigenvalues --    0.01442   0.07500   0.12513   0.13075   0.15042
 Alpha virt. eigenvalues --    0.17677   0.18270   0.24922   0.29674   0.33664
 Alpha virt. eigenvalues --    0.34544   0.38771   0.39411   0.42447   0.44408

 Mulliken charges:
               1
     1  C    0.096516
     2  O   -0.488017
     3  H    0.039272
     4  H    0.041727
     5  H    0.058690
     6  H    0.251812
 Sum of Mulliken charges =   0.00000

 Dipole moment (field-independent basis, Debye):
    X=              0.9254    Y=              1.7624    Z=             -0.0575  Tot=              1.9914
 Quadrupole moment (field-independent basis, Debye-Ang):
   XX=            -12.8151   YY=            -11.6895   ZZ=            -14.1054
   XY=             -2.4246   XZ=              0.0000   YZ=             -0.0634

 Normal termination of Gaussian 09 at Wed Aug 26 17:08:13 2020.
