 Gaussian 09, Revision D.01,
 Gaussian 09:  ES64L-G09RevD.01 24-Apr-2013

 --------------------
 #p B2PLYPD3/Def2QZVP
 --------------------

 --------
 methanol
 --------
 Symbolic Z-matrix:
 Charge =  0 Multiplicity = 1

                         Standard orientation:
 ---------------------------------------------------------------------
 Center     Atomic      Atomic             Coordinates (Angstroms)
 Number     Number       Type             X           Y           Z
 ---------------------------------------------------------------------
      1          6           0       -0.657775    0.003131   -0.027409
      2          8           0        0.729255    0.007078    0.054305
      3          1           0       -0.873894   -0.906155   -0.795956
      4          1           0       -1.078185    1.142111   -0.290478
      5          1           0       -1.044287   -0.351043    1.086341
      6          1           0        1.108972    0.039677   -0.269897
 ---------------------------------------------------------------------

 SCF Done:  E(RB2PLYPD3) =  -114.754466662     A.U. after   12 cycles
 E2(B2PLYPD3) =    -0.1434589361D+00 E(B2PLYPD3) =    -0.11489792559818D+03

 The electronic state is 1-A.
 Alpha  occ. eigenvalues --  -19.68157 -10.71384  -1.33077  -0.87133  -0.61436
 Alpha  occ. eigenvalues --   -0.52262  -0.50808  -0.37889  -0.36334
 Alpha virt. eigenvalues --    0.04692   0.09896   0.11205   0.11350   0.13396
 Alpha virt. eigenvalues --    0.16389   0.17710   0.28231   0.31839   0.32050
 Alpha virt. eigenvalues --    0.34376   0.35561   0.37636   0.41115   0.43258

 Mulliken charges:
               1
     1  C    0.051716
     2  O   -0.035597
     3  H    0.050920
     4  H    0.059819
     5  H    0.079177
     6  H   -0.206034
 Sum of Mulliken charges =   0.00000

 Dipole moment (field-independent basis, Debye):
    X=             -0.7124    Y=              0.0431    Z=             -0.8525  Tot=              1.1118
 Quadrupole moment (field-independent basis, Debye-Ang):
   XX=            -12.9943   YY=            -13.0253   ZZ=            -13.0085
   XY=              0.0307   XZ=             -1.6274   YZ=             -0.0698

 Normal termination of Gaussian 09 at Wed Aug 26 23:43:09 2020.
