 Gaussian 09, Revision D.01,
 Gaussian 09:  ES64L-G09RevD.01 24-Apr-2013

 --------------------
 #p B2PLYPD3/Def2QZVP
 --------------------

 --------
 methanol
 --------
 Symbolic Z-matrix:
 Charge =  0 Multiplicity = 1

                         Standard orientation:
 ---------------------------------------------------------------------
 Center     Atomic      Atomic             Coordinates (Angstroms)
 Number     Number       Type             X           Y           Z
 ---------------------------------------------------------------------
      1          6           0        0.668556    0.023960   -0.000183
      2          8           0       -0.736057   -0.197255   -0.010737
      3          1           0        1.105382    0.411605    0.794755
      4          1           0        1.020247    0.683349   -0.726718
      5          1           0        1.126037   -0.777174   -0.069389
      6          1           0       -1.374544    1.116498    0.088342
 ---------------------------------------------------------------------

 SCF Done:  E(RB2PLYPD3) =  -115.413312288     A.U. after   12 cycles
 E2(B2PLYPD3) =    -0.1569582576D+00 E(B2PLYPD3) =    -0.11557027054548D+03

 The electronic state is 1-A.
 Alpha  occ. eigenvalues --  -19.75721 -10.61666  -1.11335  -0.81021  -0.54845
 Alpha  occ. eigenvalues --   -0.51506  -0.49567  -0.39168  -0.34896
 Alpha virt. eigenvalues --   -0.02770   0.07257   0.12808   0.13265   0.14778
 Alpha virt. eigenvalues --    0.17661   0.18623   0.21380   0.29722   0.33431
 Alpha virt. eigenvalues --    0.34449   0.38189   0.40047   0.42272   0.44165

 Mulliken charges:
               1
     1  C    0.095630
     2  O   -0.482089
     3  H    0.039645
     4  H    0.036754
     5  H    0.070995
     6  H    0.239066
 Sum of Mulliken charges =   0.00000

 Dipole moment (field-independent basis, Debye):
    X=              0.9108    Y=              1.7170    Z=              0.1832  Tot=              1.9523
 Quadrupole moment (field-independent basis, Debye-Ang):
   XX=            -12.1777   YY=            -11.5697   ZZ=            -14.2520
   XY=             -2.7874   XZ=             -0.0553   YZ=              0.0980

 Normal termination of Gaussian 09 at Wed Aug 26 19:39:59 2020.
