 Gaussian 09, Revision D.01,
 Gaussian 09:  ES64L-G09RevD.01 24-Apr-2013

 --------------------
 #p B2PLYPD3/Def2QZVP
 --------------------

 --------
 methanol
 --------
 Symbolic Z-matrix:
 Charge =  0 Multiplicity = 1

                         Standard orientation:
 ---------------------------------------------------------------------
 Center     Atomic      Atomic             Coordinates (Angstroms)
 Number     Number       Type             X           Y           Z
 ---------------------------------------------------------------------
      1          6           0       -0.650698    0.015556   -0.001289
      2          8           0        0.745732   -0.146927   -0.006716
      3          1           0       -1.019869    0.592582   -0.835763
      4          1           0       -1.095267    0.446364    0.858824
      5          1           0       -1.069189   -0.904305   -0.036587
      6          1           0        1.122659    0.947438    0.074992
 ---------------------------------------------------------------------

 SCF Done:  E(RB2PLYPD3) =  -115.516676969     A.U. after   11 cycles
 E2(B2PLYPD3) =    -0.1508382081D+00 E(B2PLYPD3) =    -0.11566751517754D+03

 The electronic state is 1-A.
 Alpha  occ. eigenvalues --  -19.74423 -10.63855  -1.13988  -0.78661  -0.56684
 Alpha  occ. eigenvalues --   -0.51793  -0.49847  -0.40973  -0.35102
 Alpha virt. eigenvalues --    0.02877   0.07694   0.12607   0.12738   0.15018
 Alpha virt. eigenvalues --    0.17528   0.18485   0.27257   0.29560   0.33392
 Alpha virt. eigenvalues --    0.34884   0.38599   0.40138   0.41653   0.43721

 Mulliken charges:
               1
     1  C    0.077575
     2  O   -0.476433
     3  H    0.039468
     4  H    0.040040
     5  H    0.064659
     6  H    0.254691
 Sum of Mulliken charges =   0.00000

 Dipole moment (field-independent basis, Debye):
    X=             -0.9331    Y=              1.6207    Z=              0.1458  Tot=              1.8758
 Quadrupole moment (field-independent basis, Debye-Ang):
   XX=            -13.1646   YY=            -11.8247   ZZ=            -13.9839
   XY=              2.3607   XZ=              0.0693   YZ=              0.0845

 Normal termination of Gaussian 09 at Wed Aug 26 12:29:28 2020.
