 Gaussian 09, Revision D.01,
 Gaussian 09:  ES64L-G09RevD.01 24-Apr-2013

 --------------------
 #p B2PLYPD3/Def2QZVP
 --------------------

 --------
 methanol
 --------
 Symbolic Z-matrix:
 Charge =  0 Multiplicity = 1

                         Standard orientation:
 ---------------------------------------------------------------------
 Center     Atomic      Atomic             Coordinates (Angstroms)
 Number     Number       Type             X           Y           Z
 ---------------------------------------------------------------------
      1          6           0        0.673874    0.024038   -0.014250
      2          8           0       -0.742867   -0.144486    0.010581
      3          1           0        1.062131    0.546091    0.861130
      4          1           0        0.971087    0.528206   -0.837756
      5          1           0        1.071935   -0.932783   -0.003404
      6          1           0       -1.205461    0.870149   -0.019120
 ---------------------------------------------------------------------

 SCF Done:  E(RB2PLYPD3) =  -115.527414773     A.U. after   11 cycles
 E2(B2PLYPD3) =    -0.1497993213D+00 E(B2PLYPD3) =    -0.11567721409458D+03

 The electronic state is 1-A.
 Alpha  occ. eigenvalues --  -19.73516 -10.63923  -1.13297  -0.78873  -0.56965
 Alpha  occ. eigenvalues --   -0.52045  -0.49513  -0.40842  -0.35065
 Alpha virt. eigenvalues --    0.03644   0.07814   0.12591   0.12675   0.14934
 Alpha virt. eigenvalues --    0.17253   0.18180   0.28751   0.30030   0.33346
 Alpha virt. eigenvalues --    0.33828   0.39141   0.39999   0.41657   0.44408

 Mulliken charges:
               1
     1  C    0.083310
     2  O   -0.495548
     3  H    0.042787
     4  H    0.049165
     5  H    0.069878
     6  H    0.250409
 Sum of Mulliken charges =   0.00000

 Dipole moment (field-independent basis, Debye):
    X=              0.8917    Y=              1.6154    Z=             -0.1165  Tot=              1.8489
 Quadrupole moment (field-independent basis, Debye-Ang):
   XX=            -12.8438   YY=            -11.9664   ZZ=            -13.8676
   XY=             -2.4392   XZ=              0.0525   YZ=             -0.1002

 Normal termination of Gaussian 09 at Wed Aug 26 09:55:59 2020.
