 Gaussian 09, Revision D.01,
 Gaussian 09:  ES64L-G09RevD.01 24-Apr-2013

 --------------------
 #p B2PLYPD3/Def2QZVP
 --------------------

 --------
 methanol
 --------
 Symbolic Z-matrix:
 Charge =  0 Multiplicity = 1

                         Standard orientation:
 ---------------------------------------------------------------------
 Center     Atomic      Atomic             Coordinates (Angstroms)
 Number     Number       Type             X           Y           Z
 ---------------------------------------------------------------------
      1          6           0       -0.627761   -0.036185    0.043204
      2          8           0        0.742274    0.069416   -0.046368
      3          1           0       -0.928487   -0.129341    1.045352
      4          1           0       -1.083387   -0.887463   -0.734859
      5          1           0       -1.145008    1.079038   -0.379471
      6          1           0        0.985256   -0.400452    0.180697
 ---------------------------------------------------------------------

 SCF Done:  E(RB2PLYPD3) =  -115.119522068     A.U. after   11 cycles
 E2(B2PLYPD3) =    -0.1431160988D+00 E(B2PLYPD3) =    -0.11526263816710D+03

 The electronic state is 1-A.
 Alpha  occ. eigenvalues --  -19.69404 -10.69230  -1.32398  -0.83105  -0.63925
 Alpha  occ. eigenvalues --   -0.53201  -0.50475  -0.40061  -0.36730
 Alpha virt. eigenvalues --    0.04984   0.09603   0.10921   0.11726   0.14359
 Alpha virt. eigenvalues --    0.17243   0.18067   0.27632   0.32067   0.32409
 Alpha virt. eigenvalues --    0.34677   0.36254   0.40995   0.42371   0.43609

 Mulliken charges:
               1
     1  C    0.040438
     2  O   -0.109444
     3  H    0.071415
     4  H    0.041731
     5  H    0.048195
     6  H   -0.092335
 Sum of Mulliken charges =   0.00000

 Dipole moment (field-independent basis, Debye):
    X=             -0.8421    Y=             -1.0531    Z=              0.6978  Tot=              1.5183
 Quadrupole moment (field-independent basis, Debye-Ang):
   XX=            -13.4310   YY=            -12.9442   ZZ=            -13.1410
   XY=             -1.5140   XZ=              0.6383   YZ=             -0.2475

 Normal termination of Gaussian 09 at Wed Aug 26 23:56:06 2020.
