 Gaussian 09, Revision D.01,
 Gaussian 09:  ES64L-G09RevD.01 24-Apr-2013

 --------------------
 #p B2PLYPD3/Def2QZVP
 --------------------

 --------
 methanol
 --------
 Symbolic Z-matrix:
 Charge =  0 Multiplicity = 1

                         Standard orientation:
 ---------------------------------------------------------------------
 Center     Atomic      Atomic             Coordinates (Angstroms)
 Number     Number       Type             X           Y           Z
 ---------------------------------------------------------------------
      1          6           0       -0.660203   -0.018574   -0.012394
      2          8           0        0.736707    0.088904   -0.001912
      3          1           0       -0.926528   -0.612933    0.967870
      4          1           0       -1.047924   -0.529139   -0.931065
      5          1           0       -1.066801    1.066933    0.080602
      6          1           0        1.108811   -0.524649   -0.027748
 ---------------------------------------------------------------------

 SCF Done:  E(RB2PLYPD3) =  -115.443347817     A.U. after   11 cycles
 E2(B2PLYPD3) =    -0.1438645458D+00 E(B2PLYPD3) =    -0.11558721236285D+03

 The electronic state is 1-A.
 Alpha  occ. eigenvalues --  -19.69714 -10.68057  -1.23609  -0.81307  -0.61483
 Alpha  occ. eigenvalues --   -0.51962  -0.50456  -0.40421  -0.35620
 Alpha virt. eigenvalues --    0.05358   0.09266   0.11866   0.11972   0.14442
 Alpha virt. eigenvalues --    0.16845   0.17712   0.28789   0.32441   0.33654
 Alpha virt. eigenvalues --    0.36812   0.38321   0.39637   0.40556   0.42872

 Mulliken charges:
               1
     1  C    0.052964
     2  O   -0.259812
     3  H    0.041622
     4  H    0.055359
     5  H    0.077176
     6  H    0.032690
 Sum of Mulliken charges =   0.00000

 Dipole moment (field-independent basis, Debye):
    X=             -0.7891    Y=             -1.2240    Z=             -0.1046  Tot=              1.4601
 Quadrupole moment (field-independent basis, Debye-Ang):
   XX=            -13.1236   YY=            -12.5553   ZZ=            -13.5333
   XY=             -1.9993   XZ=              0.1033   YZ=              0.1378

 Normal termination of Gaussian 09 at Wed Aug 26 18:31:40 2020.
