 Gaussian 09, Revision D.01,
 Gaussian 09:  ES64L-G09RevD.01 24-Apr-2013

 --------------------
 #p B2PLYPD3/Def2QZVP
 --------------------

 --------
 methanol
 --------
 Symbolic Z-matrix:
 Charge =  0 Multiplicity = 1

                         Standard orientation:
 ---------------------------------------------------------------------
 Center     Atomic      Atomic             Coordinates (Angstroms)
 Number     Number       Type             X           Y           Z
 ---------------------------------------------------------------------
      1          6           0        0.650572   -0.007064    0.013921
      2          8           0       -0.736783    0.098184   -0.022707
      3          1           0        1.040950   -0.819170   -0.766733
      4          1           0        0.983693   -0.337065    0.977316
      5          1           0        1.094681    1.015130   -0.215158
      6          1           0       -1.128491   -0.601985    0.102703
 ---------------------------------------------------------------------

 SCF Done:  E(RB2PLYPD3) =  -115.518323866     A.U. after   11 cycles
 E2(B2PLYPD3) =    -0.1448456578D+00 E(B2PLYPD3) =    -0.11566316952381D+03

 The electronic state is 1-A.
 Alpha  occ. eigenvalues --  -19.71111 -10.67116  -1.20706  -0.80019  -0.61304
 Alpha  occ. eigenvalues --   -0.51487  -0.50692  -0.40743  -0.35267
 Alpha virt. eigenvalues --    0.05325   0.08838   0.11983   0.12335   0.14927
 Alpha virt. eigenvalues --    0.17119   0.17716   0.29014   0.32599   0.34219
 Alpha virt. eigenvalues --    0.37004   0.38256   0.39656   0.40869   0.43173

 Mulliken charges:
               1
     1  C    0.064306
     2  O   -0.356710
     3  H    0.028897
     4  H    0.052490
     5  H    0.076022
     6  H    0.134995
 Sum of Mulliken charges =   0.00000

 Dipole moment (field-independent basis, Debye):
    X=              0.7257    Y=             -1.2814    Z=              0.3564  Tot=              1.5151
 Quadrupole moment (field-independent basis, Debye-Ang):
   XX=            -13.0042   YY=            -12.4483   ZZ=            -13.7717
   XY=              2.1197   XZ=             -0.2696   YZ=             -0.2551

 Normal termination of Gaussian 09 at Wed Aug 26 14:16:56 2020.
