 Gaussian 09, Revision D.01,
 Gaussian 09:  ES64L-G09RevD.01 24-Apr-2013

 --------------------
 #p B2PLYPD3/Def2QZVP
 --------------------

 --------
 methanol
 --------
 Symbolic Z-matrix:
 Charge =  0 Multiplicity = 1

                         Standard orientation:
 ---------------------------------------------------------------------
 Center     Atomic      Atomic             Coordinates (Angstroms)
 Number     Number       Type             X           Y           Z
 ---------------------------------------------------------------------
      1          6           0        0.656630    0.020400    0.011198
      2          8           0       -0.744814   -0.158228   -0.001015
      3          1           0        1.059486    0.477006    0.857689
      4          1           0        1.139839    0.521585   -0.823259
      5          1           0        1.028479   -0.870578   -0.059682
      6          1           0       -1.209075    1.015409   -0.033816
 ---------------------------------------------------------------------

 SCF Done:  E(RB2PLYPD3) =  -115.484054285     A.U. after   11 cycles
 E2(B2PLYPD3) =    -0.1530254832D+00 E(B2PLYPD3) =    -0.11563707976782D+03

 The electronic state is 1-A.
 Alpha  occ. eigenvalues --  -19.75062 -10.63229  -1.12831  -0.79170  -0.55792
 Alpha  occ. eigenvalues --   -0.51536  -0.49545  -0.40384  -0.35154
 Alpha virt. eigenvalues --    0.01279   0.07436   0.12778   0.12784   0.15108
 Alpha virt. eigenvalues --    0.17183   0.18766   0.24660   0.29380   0.33713
 Alpha virt. eigenvalues --    0.34796   0.37915   0.39872   0.41877   0.43683

 Mulliken charges:
               1
     1  C    0.073356
     2  O   -0.480186
     3  H    0.047378
     4  H    0.037184
     5  H    0.068961
     6  H    0.253306
 Sum of Mulliken charges =   0.00000

 Dipole moment (field-independent basis, Debye):
    X=              0.9050    Y=              1.6260    Z=             -0.0245  Tot=              1.8611
 Quadrupole moment (field-independent basis, Debye-Ang):
   XX=            -12.8559   YY=            -11.7820   ZZ=            -14.0479
   XY=             -2.4851   XZ=              0.0296   YZ=              0.0413

 Normal termination of Gaussian 09 at Wed Aug 26 17:30:37 2020.
