 Gaussian 09, Revision D.01,
 Gaussian 09:  ES64L-G09RevD.01 24-Apr-2013

 --------------------
 #p B2PLYPD3/Def2QZVP
 --------------------

 --------
 methanol
 --------
 Symbolic Z-matrix:
 Charge =  0 Multiplicity = 1

                         Standard orientation:
 ---------------------------------------------------------------------
 Center     Atomic      Atomic             Coordinates (Angstroms)
 Number     Number       Type             X           Y           Z
 ---------------------------------------------------------------------
      1          6           0       -0.654628   -0.035938    0.025094
      2          8           0        0.747484    0.086487   -0.028163
      3          1           0       -1.012772   -0.314593    1.002323
      4          1           0       -1.098560   -0.756745   -0.828887
      5          1           0       -1.122198    1.090155   -0.211891
      6          1           0        1.181428   -0.495086    0.113196
 ---------------------------------------------------------------------

 SCF Done:  E(RB2PLYPD3) =  -115.455120437     A.U. after   11 cycles
 E2(B2PLYPD3) =    -0.1446979625D+00 E(B2PLYPD3) =    -0.11559981839968D+03

 The electronic state is 1-A.
 Alpha  occ. eigenvalues --  -19.70424 -10.68794  -1.22556  -0.81021  -0.61948
 Alpha  occ. eigenvalues --   -0.51738  -0.49293  -0.39273  -0.36157
 Alpha virt. eigenvalues --    0.05271   0.08831   0.11520   0.12054   0.14586
 Alpha virt. eigenvalues --    0.16928   0.18224   0.28713   0.32956   0.33322
 Alpha virt. eigenvalues --    0.34588   0.37144   0.40046   0.41200   0.41986

 Mulliken charges:
               1
     1  C    0.045785
     2  O   -0.277391
     3  H    0.067857
     4  H    0.047412
     5  H    0.062706
     6  H    0.053631
 Sum of Mulliken charges =   0.00000

 Dipole moment (field-independent basis, Debye):
    X=             -0.6879    Y=             -1.2282    Z=              0.4224  Tot=              1.4697
 Quadrupole moment (field-independent basis, Debye-Ang):
   XX=            -12.6700   YY=            -12.9442   ZZ=            -13.5703
   XY=             -1.8763   XZ=              0.3684   YZ=             -0.1901

 Normal termination of Gaussian 09 at Wed Aug 26 13:36:14 2020.
