 Gaussian 09, Revision D.01,
 Gaussian 09:  ES64L-G09RevD.01 24-Apr-2013

 --------------------
 #p B2PLYPD3/Def2QZVP
 --------------------

 --------
 methanol
 --------
 Symbolic Z-matrix:
 Charge =  0 Multiplicity = 1

                         Standard orientation:
 ---------------------------------------------------------------------
 Center     Atomic      Atomic             Coordinates (Angstroms)
 Number     Number       Type             X           Y           Z
 ---------------------------------------------------------------------
      1          6           0        0.671866   -0.011324   -0.011238
      2          8           0       -0.745970    0.097186    0.004845
      3          1           0        1.023363   -0.540446   -0.925333
      4          1           0        1.010185   -0.560737    0.962465
      5          1           0        1.030665    1.013194    0.018233
      6          1           0       -1.127647   -0.621550   -0.026697
 ---------------------------------------------------------------------

 SCF Done:  E(RB2PLYPD3) =  -115.522541572     A.U. after   10 cycles
 E2(B2PLYPD3) =    -0.1450980968D+00 E(B2PLYPD3) =    -0.11566763966916D+03

 The electronic state is 1-A.
 Alpha  occ. eigenvalues --  -19.70812 -10.66982  -1.19587  -0.79998  -0.60123
 Alpha  occ. eigenvalues --   -0.51454  -0.50548  -0.41017  -0.35472
 Alpha virt. eigenvalues --    0.05395   0.08844   0.11941   0.12357   0.14561
 Alpha virt. eigenvalues --    0.16899   0.17909   0.28990   0.32713   0.33225
 Alpha virt. eigenvalues --    0.37141   0.39657   0.39778   0.40154   0.43065

 Mulliken charges:
               1
     1  C    0.062747
     2  O   -0.373942
     3  H    0.053005
     4  H    0.043446
     5  H    0.081104
     6  H    0.133639
 Sum of Mulliken charges =   0.00000

 Dipole moment (field-independent basis, Debye):
    X=              0.8642    Y=             -1.2988    Z=             -0.1145  Tot=              1.5642
 Quadrupole moment (field-independent basis, Debye-Ang):
   XX=            -13.0954   YY=            -12.4173   ZZ=            -13.5976
   XY=              2.1316   XZ=             -0.0023   YZ=              0.1081

 Normal termination of Gaussian 09 at Wed Aug 26 16:23:37 2020.
