 Gaussian 09, Revision D.01,
 Gaussian 09:  ES64L-G09RevD.01 24-Apr-2013

 --------------------
 #p B2PLYPD3/Def2QZVP
 --------------------

 --------
 methanol
 --------
 Symbolic Z-matrix:
 Charge =  0 Multiplicity = 1

                         Standard orientation:
 ---------------------------------------------------------------------
 Center     Atomic      Atomic             Coordinates (Angstroms)
 Number     Number       Type             X           Y           Z
 ---------------------------------------------------------------------
      1          6           0        0.664847   -0.018782    0.001747
      2          8           0       -0.757427    0.099291    0.009006
      3          1           0        0.951715   -0.612153   -0.937236
      4          1           0        1.099195   -0.496333    0.961063
      5          1           0        1.144246    1.006960   -0.104204
      6          1           0       -1.124824   -0.580109   -0.002152
 ---------------------------------------------------------------------

 SCF Done:  E(RB2PLYPD3) =  -115.495300081     A.U. after   10 cycles
 E2(B2PLYPD3) =    -0.1449179541D+00 E(B2PLYPD3) =    -0.11564021803520D+03

 The electronic state is 1-A.
 Alpha  occ. eigenvalues --  -19.70726 -10.67990  -1.21121  -0.80044  -0.60704
 Alpha  occ. eigenvalues --   -0.51433  -0.50246  -0.40539  -0.35903
 Alpha virt. eigenvalues --    0.05390   0.08760   0.11884   0.12274   0.14287
 Alpha virt. eigenvalues --    0.17301   0.18001   0.28774   0.32331   0.33125
 Alpha virt. eigenvalues --    0.36436   0.38639   0.39086   0.39905   0.43273

 Mulliken charges:
               1
     1  C    0.057739
     2  O   -0.327396
     3  H    0.047700
     4  H    0.052348
     5  H    0.076314
     6  H    0.093296
 Sum of Mulliken charges =   0.00000

 Dipole moment (field-independent basis, Debye):
    X=              0.9072    Y=             -1.2770    Z=             -0.0460  Tot=              1.5671
 Quadrupole moment (field-independent basis, Debye-Ang):
   XX=            -12.9327   YY=            -12.6651   ZZ=            -13.6129
   XY=              2.1607   XZ=              0.1161   YZ=             -0.0198

 Normal termination of Gaussian 09 at Wed Aug 26 13:27:08 2020.
