 Gaussian 09, Revision D.01,
 Gaussian 09:  ES64L-G09RevD.01 24-Apr-2013

 --------------------
 #p B2PLYPD3/Def2QZVP
 --------------------

 --------
 methanol
 --------
 Symbolic Z-matrix:
 Charge =  0 Multiplicity = 1

                         Standard orientation:
 ---------------------------------------------------------------------
 Center     Atomic      Atomic             Coordinates (Angstroms)
 Number     Number       Type             X           Y           Z
 ---------------------------------------------------------------------
      1          6           0       -0.663407   -0.014114    0.002991
      2          8           0        0.764488    0.079659   -0.021763
      3          1           0       -1.079905   -0.361504    0.996989
      4          1           0       -0.994922   -0.803813   -0.824583
      5          1           0       -1.131690    1.084899   -0.190065
      6          1           0        1.071049   -0.472169    0.173817
 ---------------------------------------------------------------------

 SCF Done:  E(RB2PLYPD3) =  -115.354018618     A.U. after   11 cycles
 E2(B2PLYPD3) =    -0.1440049290D+00 E(B2PLYPD3) =    -0.11549802354723D+03

 The electronic state is 1-A.
 Alpha  occ. eigenvalues --  -19.69585 -10.69208  -1.25943  -0.81190  -0.62142
 Alpha  occ. eigenvalues --   -0.51225  -0.49557  -0.41169  -0.36224
 Alpha virt. eigenvalues --    0.05186   0.09203   0.11554   0.11761   0.14559
 Alpha virt. eigenvalues --    0.17059   0.17611   0.28655   0.31710   0.33204
 Alpha virt. eigenvalues --    0.35178   0.37271   0.38675   0.40643   0.42551

 Mulliken charges:
               1
     1  C    0.054300
     2  O   -0.222623
     3  H    0.053533
     4  H    0.049241
     5  H    0.076324
     6  H   -0.010775
 Sum of Mulliken charges =   0.00000

 Dipole moment (field-independent basis, Debye):
    X=             -1.0020    Y=             -1.1445    Z=              0.4789  Tot=              1.5947
 Quadrupole moment (field-independent basis, Debye-Ang):
   XX=            -13.1350   YY=            -12.5749   ZZ=            -13.5782
   XY=             -1.8283   XZ=              0.4140   YZ=             -0.2440

 Normal termination of Gaussian 09 at Wed Aug 26 14:24:48 2020.
