 Gaussian 09, Revision D.01,
 Gaussian 09:  ES64L-G09RevD.01 24-Apr-2013

 --------------------
 #p B2PLYPD3/Def2QZVP
 --------------------

 --------
 methanol
 --------
 Symbolic Z-matrix:
 Charge =  0 Multiplicity = 1

                         Standard orientation:
 ---------------------------------------------------------------------
 Center     Atomic      Atomic             Coordinates (Angstroms)
 Number     Number       Type             X           Y           Z
 ---------------------------------------------------------------------
      1          6           0        0.668890   -0.008237    0.007389
      2          8           0       -0.750586    0.099174   -0.020729
      3          1           0        1.007948   -0.768574   -0.815812
      4          1           0        1.021617   -0.338990    0.997589
      5          1           0        1.069288    0.988727   -0.191908
      6          1           0       -1.107508   -0.625127    0.131627
 ---------------------------------------------------------------------

 SCF Done:  E(RB2PLYPD3) =  -115.526261825     A.U. after   10 cycles
 E2(B2PLYPD3) =    -0.1452522852D+00 E(B2PLYPD3) =    -0.11567151410986D+03

 The electronic state is 1-A.
 Alpha  occ. eigenvalues --  -19.71066 -10.66960  -1.19517  -0.79741  -0.60165
 Alpha  occ. eigenvalues --   -0.51369  -0.50532  -0.41254  -0.35521
 Alpha virt. eigenvalues --    0.05353   0.08796   0.11959   0.12349   0.14616
 Alpha virt. eigenvalues --    0.17108   0.17835   0.28975   0.32658   0.33191
 Alpha virt. eigenvalues --    0.37056   0.39329   0.39611   0.40369   0.43175

 Mulliken charges:
               1
     1  C    0.065419
     2  O   -0.379627
     3  H    0.041184
     4  H    0.051997
     5  H    0.079682
     6  H    0.141345
 Sum of Mulliken charges =   0.00000

 Dipole moment (field-independent basis, Debye):
    X=              0.9112    Y=             -1.2870    Z=              0.3402  Tot=              1.6132
 Quadrupole moment (field-independent basis, Debye-Ang):
   XX=            -13.1444   YY=            -12.4086   ZZ=            -13.6207
   XY=              2.1299   XZ=             -0.3333   YZ=             -0.2323

 Normal termination of Gaussian 09 at Wed Aug 26 10:07:20 2020.
