 Gaussian 09, Revision D.01,
 Gaussian 09:  ES64L-G09RevD.01 24-Apr-2013

 --------------------
 #p B2PLYPD3/Def2QZVP
 --------------------

 --------
 methanol
 --------
 Symbolic Z-matrix:
 Charge =  0 Multiplicity = 1

                         Standard orientation:
 ---------------------------------------------------------------------
 Center     Atomic      Atomic             Coordinates (Angstroms)
 Number     Number       Type             X           Y           Z
 ---------------------------------------------------------------------
      1          6           0        0.664758   -0.013640   -0.002079
      2          8           0       -0.758421    0.096764   -0.005315
      3          1           0        1.016963   -0.644378   -0.884044
      4          1           0        0.996852   -0.467245    0.998077
      5          1           0        1.121347    1.012803   -0.083674
      6          1           0       -1.056338   -0.593453    0.024638
 ---------------------------------------------------------------------

 SCF Done:  E(RB2PLYPD3) =  -115.482651040     A.U. after   10 cycles
 E2(B2PLYPD3) =    -0.1445116331D+00 E(B2PLYPD3) =    -0.11562716267330D+03

 The electronic state is 1-A.
 Alpha  occ. eigenvalues --  -19.70479 -10.67648  -1.22192  -0.80089  -0.60858
 Alpha  occ. eigenvalues --   -0.51639  -0.50417  -0.41430  -0.35945
 Alpha virt. eigenvalues --    0.05396   0.09022   0.11831   0.12227   0.14383
 Alpha virt. eigenvalues --    0.17342   0.17775   0.28690   0.32433   0.33010
 Alpha virt. eigenvalues --    0.36911   0.39009   0.39250   0.40047   0.43490

 Mulliken charges:
               1
     1  C    0.060590
     2  O   -0.306973
     3  H    0.048913
     4  H    0.048552
     5  H    0.077466
     6  H    0.071451
 Sum of Mulliken charges =   0.00000

 Dipole moment (field-independent basis, Debye):
    X=              1.0175    Y=             -1.2846    Z=              0.0448  Tot=              1.6394
 Quadrupole moment (field-independent basis, Debye-Ang):
   XX=            -13.2667   YY=            -12.4537   ZZ=            -13.5657
   XY=              2.0632   XZ=             -0.1348   YZ=             -0.0181

 Normal termination of Gaussian 09 at Wed Aug 26 13:27:50 2020.
