 Gaussian 09, Revision D.01,
 Gaussian 09:  ES64L-G09RevD.01 24-Apr-2013

 --------------------
 #p B2PLYPD3/Def2QZVP
 --------------------

 --------
 methanol
 --------
 Symbolic Z-matrix:
 Charge =  0 Multiplicity = 1

                         Standard orientation:
 ---------------------------------------------------------------------
 Center     Atomic      Atomic             Coordinates (Angstroms)
 Number     Number       Type             X           Y           Z
 ---------------------------------------------------------------------
      1          6           0       -0.648710    0.018602    0.004335
      2          8           0        0.715712   -0.201494   -0.022434
      3          1           0       -1.098418    0.610013   -0.778634
      4          1           0       -0.922890    0.445384    0.842595
      5          1           0       -1.153610   -0.685469    0.020997
      6          1           0        1.341481    1.130411    0.068510
 ---------------------------------------------------------------------

 SCF Done:  E(RB2PLYPD3) =  -115.385338109     A.U. after   11 cycles
 E2(B2PLYPD3) =    -0.1564411142D+00 E(B2PLYPD3) =    -0.11554177922335D+03

 The electronic state is 1-A.
 Alpha  occ. eigenvalues --  -19.75545 -10.60913  -1.12786  -0.81441  -0.54464
 Alpha  occ. eigenvalues --   -0.52189  -0.51363  -0.38386  -0.34743
 Alpha virt. eigenvalues --   -0.03212   0.07377   0.12881   0.13288   0.14703
 Alpha virt. eigenvalues --    0.18219   0.18703   0.21322   0.29644   0.33091
 Alpha virt. eigenvalues --    0.35319   0.38780   0.41089   0.41973   0.45122

 Mulliken charges:
               1
     1  C    0.054364
     2  O   -0.469857
     3  H    0.035619
     4  H    0.040010
     5  H    0.096692
     6  H    0.243173
 Sum of Mulliken charges =   0.00000

 Dipole moment (field-independent basis, Debye):
    X=             -0.8231    Y=              1.6630    Z=              0.2391  Tot=              1.8708
 Quadrupole moment (field-independent basis, Debye-Ang):
   XX=            -12.3157   YY=            -11.6864   ZZ=            -14.0010
   XY=              2.9224   XZ=              0.1351   YZ=              0.1027

 Normal termination of Gaussian 09 at Wed Aug 26 22:53:46 2020.
