 Gaussian 09, Revision D.01,
 Gaussian 09:  ES64L-G09RevD.01 24-Apr-2013

 --------------------
 #p B2PLYPD3/Def2QZVP
 --------------------

 --------
 methanol
 --------
 Symbolic Z-matrix:
 Charge =  0 Multiplicity = 1

                         Standard orientation:
 ---------------------------------------------------------------------
 Center     Atomic      Atomic             Coordinates (Angstroms)
 Number     Number       Type             X           Y           Z
 ---------------------------------------------------------------------
      1          6           0       -0.678515    0.003108    0.004455
      2          8           0        0.770123   -0.179406   -0.016122
      3          1           0       -1.213842    0.595164   -0.749227
      4          1           0       -1.058507    0.379003    0.855670
      5          1           0       -1.033395   -0.757433   -0.052842
      6          1           0        1.215847    1.199870    0.048643
 ---------------------------------------------------------------------

 SCF Done:  E(RB2PLYPD3) =  -115.378729911     A.U. after   12 cycles
 E2(B2PLYPD3) =    -0.1580466331D+00 E(B2PLYPD3) =    -0.11553677654453D+03

 The electronic state is 1-A.
 Alpha  occ. eigenvalues --  -19.76215 -10.61882  -1.10537  -0.82073  -0.55108
 Alpha  occ. eigenvalues --   -0.50470  -0.49059  -0.40050  -0.35423
 Alpha virt. eigenvalues --   -0.02418   0.07074   0.12643   0.13043   0.14592
 Alpha virt. eigenvalues --    0.17509   0.18825   0.21610   0.29122   0.32520
 Alpha virt. eigenvalues --    0.34161   0.37023   0.40104   0.41485   0.43483

 Mulliken charges:
               1
     1  C    0.019929
     2  O   -0.480685
     3  H    0.040177
     4  H    0.047386
     5  H    0.134447
     6  H    0.238747
 Sum of Mulliken charges =   0.00000

 Dipole moment (field-independent basis, Debye):
    X=             -1.1881    Y=              1.6535    Z=              0.1659  Tot=              2.0428
 Quadrupole moment (field-independent basis, Debye-Ang):
   XX=            -12.8660   YY=            -11.2948   ZZ=            -14.1625
   XY=              2.5397   XZ=              0.0956   YZ=              0.1199

 Normal termination of Gaussian 09 at Wed Aug 26 23:55:09 2020.
