 Gaussian 09, Revision D.01,
 Gaussian 09:  ES64L-G09RevD.01 24-Apr-2013

 --------------------
 #p B2PLYPD3/Def2QZVP
 --------------------

 --------
 methanol
 --------
 Symbolic Z-matrix:
 Charge =  0 Multiplicity = 1

                         Standard orientation:
 ---------------------------------------------------------------------
 Center     Atomic      Atomic             Coordinates (Angstroms)
 Number     Number       Type             X           Y           Z
 ---------------------------------------------------------------------
      1          6           0        0.659126    0.040044    0.009778
      2          8           0       -0.735757   -0.160009   -0.006133
      3          1           0        0.973997    0.461841    0.811114
      4          1           0        0.981164    0.577810   -0.792996
      5          1           0        1.108549   -0.944581   -0.052712
      6          1           0       -1.132412    0.944737    0.024987
 ---------------------------------------------------------------------

 SCF Done:  E(RB2PLYPD3) =  -115.503222051     A.U. after   11 cycles
 E2(B2PLYPD3) =    -0.1506690617D+00 E(B2PLYPD3) =    -0.11565389111278D+03

 The electronic state is 1-A.
 Alpha  occ. eigenvalues --  -19.74024 -10.62781  -1.13581  -0.79311  -0.56655
 Alpha  occ. eigenvalues --   -0.53806  -0.48922  -0.40564  -0.35358
 Alpha virt. eigenvalues --    0.02764   0.07857   0.12456   0.12820   0.14984
 Alpha virt. eigenvalues --    0.17631   0.18135   0.27007   0.29553   0.33523
 Alpha virt. eigenvalues --    0.34694   0.38485   0.40029   0.43495   0.44744

 Mulliken charges:
               1
     1  C    0.095952
     2  O   -0.486886
     3  H    0.046359
     4  H    0.040892
     5  H    0.055572
     6  H    0.248112
 Sum of Mulliken charges =   0.00000

 Dipole moment (field-independent basis, Debye):
    X=              0.9872    Y=              1.7478    Z=              0.0879  Tot=              2.0092
 Quadrupole moment (field-independent basis, Debye-Ang):
   XX=            -13.1976   YY=            -11.7300   ZZ=            -13.8191
   XY=             -2.2719   XZ=             -0.0173   YZ=              0.0679

 Normal termination of Gaussian 09 at Wed Aug 26 15:59:45 2020.
