 Gaussian 09, Revision D.01,
 Gaussian 09:  ES64L-G09RevD.01 24-Apr-2013

 --------------------
 #p B2PLYPD3/Def2QZVP
 --------------------

 --------
 methanol
 --------
 Symbolic Z-matrix:
 Charge =  0 Multiplicity = 1

                         Standard orientation:
 ---------------------------------------------------------------------
 Center     Atomic      Atomic             Coordinates (Angstroms)
 Number     Number       Type             X           Y           Z
 ---------------------------------------------------------------------
      1          6           0        0.665218   -0.006189    0.010659
      2          8           0       -0.754716    0.086844   -0.017061
      3          1           0        0.973883   -0.894988   -0.740102
      4          1           0        1.084524   -0.215898    1.035912
      5          1           0        1.094811    0.979506   -0.361271
      6          1           0       -1.106792   -0.526233    0.137990
 ---------------------------------------------------------------------

 SCF Done:  E(RB2PLYPD3) =  -115.449790963     A.U. after   11 cycles
 E2(B2PLYPD3) =    -0.1442848966D+00 E(B2PLYPD3) =    -0.11559407585921D+03

 The electronic state is 1-A.
 Alpha  occ. eigenvalues --  -19.70096 -10.68382  -1.23039  -0.80853  -0.61318
 Alpha  occ. eigenvalues --   -0.51145  -0.50529  -0.40858  -0.35817
 Alpha virt. eigenvalues --    0.05337   0.09034   0.11733   0.12133   0.14455
 Alpha virt. eigenvalues --    0.17052   0.17753   0.28748   0.32092   0.33128
 Alpha virt. eigenvalues --    0.36347   0.38164   0.39412   0.40305   0.42647

 Mulliken charges:
               1
     1  C    0.055674
     2  O   -0.274574
     3  H    0.037146
     4  H    0.056834
     5  H    0.082515
     6  H    0.042406
 Sum of Mulliken charges =   0.00000

 Dipole moment (field-independent basis, Debye):
    X=              0.9084    Y=             -1.1531    Z=              0.3572  Tot=              1.5108
 Quadrupole moment (field-independent basis, Debye-Ang):
   XX=            -13.0434   YY=            -12.6257   ZZ=            -13.5667
   XY=              2.0409   XZ=             -0.3408   YZ=             -0.2809

 Normal termination of Gaussian 09 at Wed Aug 26 13:30:19 2020.
