 Gaussian 09, Revision D.01,
 Gaussian 09:  ES64L-G09RevD.01 24-Apr-2013

 --------------------
 #p B2PLYPD3/Def2QZVP
 --------------------

 --------
 methanol
 --------
 Symbolic Z-matrix:
 Charge =  0 Multiplicity = 1

                         Standard orientation:
 ---------------------------------------------------------------------
 Center     Atomic      Atomic             Coordinates (Angstroms)
 Number     Number       Type             X           Y           Z
 ---------------------------------------------------------------------
      1          6           0       -0.673282    0.007145   -0.023945
      2          8           0        0.770248   -0.152384   -0.000519
      3          1           0       -1.092809    0.572135   -0.776474
      4          1           0       -1.204330    0.416429    0.859885
      5          1           0       -0.977542   -0.881893   -0.009057
      6          1           0        1.152388    1.069533    0.073465
 ---------------------------------------------------------------------

 SCF Done:  E(RB2PLYPD3) =  -115.466255107     A.U. after   11 cycles
 E2(B2PLYPD3) =    -0.1545584525D+00 E(B2PLYPD3) =    -0.11562081355915D+03

 The electronic state is 1-A.
 Alpha  occ. eigenvalues --  -19.75473 -10.63417  -1.11616  -0.79798  -0.56313
 Alpha  occ. eigenvalues --   -0.50442  -0.48347  -0.41322  -0.35219
 Alpha virt. eigenvalues --    0.00961   0.07222   0.12492   0.12854   0.14978
 Alpha virt. eigenvalues --    0.17050   0.18777   0.24191   0.29131   0.32913
 Alpha virt. eigenvalues --    0.33736   0.37616   0.39223   0.41321   0.43825

 Mulliken charges:
               1
     1  C    0.070153
     2  O   -0.483573
     3  H    0.049270
     4  H    0.034985
     5  H    0.079803
     6  H    0.249362
 Sum of Mulliken charges =   0.00000

 Dipole moment (field-independent basis, Debye):
    X=             -1.1142    Y=              1.6408    Z=              0.0404  Tot=              1.9837
 Quadrupole moment (field-independent basis, Debye-Ang):
   XX=            -13.1173   YY=            -11.4852   ZZ=            -14.2158
   XY=              2.2889   XZ=              0.1305   YZ=             -0.0385

 Normal termination of Gaussian 09 at Wed Aug 26 23:52:24 2020.
