 Gaussian 09, Revision D.01,
 Gaussian 09:  ES64L-G09RevD.01 24-Apr-2013

 --------------------
 #p B2PLYPD3/Def2QZVP
 --------------------

 --------
 methanol
 --------
 Symbolic Z-matrix:
 Charge =  0 Multiplicity = 1

                         Standard orientation:
 ---------------------------------------------------------------------
 Center     Atomic      Atomic             Coordinates (Angstroms)
 Number     Number       Type             X           Y           Z
 ---------------------------------------------------------------------
      1          6           0       -0.628733   -0.002088    0.011702
      2          8           0        0.736107   -0.042936   -0.045226
      3          1           0       -1.033819    1.257398   -0.076765
      4          1           0       -0.992265   -0.516886    0.998467
      5          1           0       -1.172859   -0.642125   -0.844191
      6          1           0        1.082484    0.257629    0.214083
 ---------------------------------------------------------------------

 SCF Done:  E(RB2PLYPD3) =  -114.906744083     A.U. after   11 cycles
 E2(B2PLYPD3) =    -0.1432912718D+00 E(B2PLYPD3) =    -0.11505003535508D+03

 The electronic state is 1-A.
 Alpha  occ. eigenvalues --  -19.69234 -10.71037  -1.33500  -0.86645  -0.62802
 Alpha  occ. eigenvalues --   -0.51944  -0.51865  -0.38717  -0.36055
 Alpha virt. eigenvalues --    0.04805   0.09648   0.10685   0.12057   0.13958
 Alpha virt. eigenvalues --    0.16828   0.17871   0.27900   0.30645   0.32951
 Alpha virt. eigenvalues --    0.34852   0.35809   0.38613   0.41604   0.43230

 Mulliken charges:
               1
     1  C    0.046722
     2  O   -0.040102
     3  H    0.021703
     4  H    0.056583
     5  H    0.084634
     6  H   -0.169539
 Sum of Mulliken charges =   0.00000

 Dipole moment (field-independent basis, Debye):
    X=             -0.6731    Y=              0.5269    Z=              0.6326  Tot=              1.0634
 Quadrupole moment (field-independent basis, Debye-Ang):
   XX=            -12.9159   YY=            -13.0857   ZZ=            -13.3821
   XY=              1.5007   XZ=              1.1989   YZ=              0.2435

 Normal termination of Gaussian 09 at Wed Aug 26 21:51:46 2020.
