 Gaussian 09, Revision D.01,
 Gaussian 09:  ES64L-G09RevD.01 24-Apr-2013

 --------------------
 #p B2PLYPD3/Def2QZVP
 --------------------

 --------
 methanol
 --------
 Symbolic Z-matrix:
 Charge =  0 Multiplicity = 1

                         Standard orientation:
 ---------------------------------------------------------------------
 Center     Atomic      Atomic             Coordinates (Angstroms)
 Number     Number       Type             X           Y           Z
 ---------------------------------------------------------------------
      1          6           0        0.669061    0.081640    0.005691
      2          8           0       -0.708875   -0.212276   -0.008110
      3          1           0        0.985705    0.303069    0.807200
      4          1           0        0.988894    0.661568   -0.654301
      5          1           0        1.087133   -0.859488   -0.156134
      6          1           0       -1.405098    1.103220    0.033966
 ---------------------------------------------------------------------

 SCF Done:  E(RB2PLYPD3) =  -115.387609827     A.U. after   12 cycles
 E2(B2PLYPD3) =    -0.1569650201D+00 E(B2PLYPD3) =    -0.11554457484676D+03

 The electronic state is 1-A.
 Alpha  occ. eigenvalues --  -19.75429 -10.60593  -1.11842  -0.81241  -0.55984
 Alpha  occ. eigenvalues --   -0.54240  -0.48537  -0.37993  -0.35581
 Alpha virt. eigenvalues --   -0.02799   0.07401   0.12432   0.13261   0.15014
 Alpha virt. eigenvalues --    0.16974   0.18650   0.21308   0.29319   0.33895
 Alpha virt. eigenvalues --    0.34963   0.37804   0.39803   0.45051   0.45831

 Mulliken charges:
               1
     1  C    0.084673
     2  O   -0.470554
     3  H    0.070836
     4  H    0.049955
     5  H    0.051096
     6  H    0.213994
 Sum of Mulliken charges =   0.00000

 Dipole moment (field-independent basis, Debye):
    X=              0.9838    Y=              1.7314    Z=              0.0835  Tot=              1.9932
 Quadrupole moment (field-independent basis, Debye-Ang):
   XX=            -12.3750   YY=            -11.6809   ZZ=            -13.8929
   XY=             -2.5196   XZ=             -0.0314   YZ=             -0.0301

 Normal termination of Gaussian 09 at Wed Aug 26 18:51:15 2020.
