 Gaussian 09, Revision D.01,
 Gaussian 09:  ES64L-G09RevD.01 24-Apr-2013

 --------------------
 #p B2PLYPD3/Def2QZVP
 --------------------

 --------
 methanol
 --------
 Symbolic Z-matrix:
 Charge =  0 Multiplicity = 1

                         Standard orientation:
 ---------------------------------------------------------------------
 Center     Atomic      Atomic             Coordinates (Angstroms)
 Number     Number       Type             X           Y           Z
 ---------------------------------------------------------------------
      1          6           0       -0.671245   -0.016911    0.004034
      2          8           0        0.755349    0.109560   -0.010114
      3          1           0       -1.044146   -0.452656    0.937323
      4          1           0       -1.022122   -0.669457   -0.854988
      5          1           0       -1.110187    1.008264   -0.093304
      6          1           0        1.161131   -0.661168    0.067674
 ---------------------------------------------------------------------

 SCF Done:  E(RB2PLYPD3) =  -115.543563618     A.U. after   10 cycles
 E2(B2PLYPD3) =    -0.1461430858D+00 E(B2PLYPD3) =    -0.11568970670368D+03

 The electronic state is 1-A.
 Alpha  occ. eigenvalues --  -19.71688 -10.66799  -1.17613  -0.79196  -0.59674
 Alpha  occ. eigenvalues --   -0.51246  -0.49876  -0.40920  -0.35539
 Alpha virt. eigenvalues --    0.05292   0.08420   0.12198   0.12304   0.14738
 Alpha virt. eigenvalues --    0.17219   0.17940   0.29110   0.32730   0.33293
 Alpha virt. eigenvalues --    0.36837   0.38824   0.39271   0.40319   0.42960

 Mulliken charges:
               1
     1  C    0.068979
     2  O   -0.426451
     3  H    0.052348
     4  H    0.046242
     5  H    0.075022
     6  H    0.183860
 Sum of Mulliken charges =   0.00000

 Dipole moment (field-independent basis, Debye):
    X=             -0.8799    Y=             -1.4039    Z=              0.1794  Tot=              1.6665
 Quadrupole moment (field-independent basis, Debye-Ang):
   XX=            -12.8562   YY=            -12.4064   ZZ=            -13.7808
   XY=             -2.2118   XZ=              0.1464   YZ=             -0.1101

 Normal termination of Gaussian 09 at Thu Aug 27 00:10:42 2020.
