 Gaussian 09, Revision D.01,
 Gaussian 09:  ES64L-G09RevD.01 24-Apr-2013

 --------------------
 #p B2PLYPD3/Def2QZVP
 --------------------

 --------
 methanol
 --------
 Symbolic Z-matrix:
 Charge =  0 Multiplicity = 1

                         Standard orientation:
 ---------------------------------------------------------------------
 Center     Atomic      Atomic             Coordinates (Angstroms)
 Number     Number       Type             X           Y           Z
 ---------------------------------------------------------------------
      1          6           0        0.660371    0.040400    0.003356
      2          8           0       -0.726815   -0.160447    0.009402
      3          1           0        1.012537    0.537610    0.804922
      4          1           0        1.069972    0.435705   -0.801739
      5          1           0        0.938159   -0.960943   -0.014681
      6          1           0       -1.168373    1.028800   -0.083851
 ---------------------------------------------------------------------

 SCF Done:  E(RB2PLYPD3) =  -115.478064329     A.U. after   11 cycles
 E2(B2PLYPD3) =    -0.1529745515D+00 E(B2PLYPD3) =    -0.11563103888031D+03

 The electronic state is 1-A.
 Alpha  occ. eigenvalues --  -19.74748 -10.62387  -1.13256  -0.79102  -0.56761
 Alpha  occ. eigenvalues --   -0.53569  -0.48343  -0.39840  -0.35413
 Alpha virt. eigenvalues --    0.01261   0.07745   0.12283   0.12909   0.15310
 Alpha virt. eigenvalues --    0.16770   0.18556   0.24682   0.29388   0.33783
 Alpha virt. eigenvalues --    0.35125   0.38271   0.39145   0.43742   0.45522

 Mulliken charges:
               1
     1  C    0.084068
     2  O   -0.471664
     3  H    0.046073
     4  H    0.043243
     5  H    0.061391
     6  H    0.236890
 Sum of Mulliken charges =   0.00000

 Dipole moment (field-independent basis, Debye):
    X=              0.9806    Y=              1.6944    Z=             -0.1673  Tot=              1.9648
 Quadrupole moment (field-independent basis, Debye-Ang):
   XX=            -13.2705   YY=            -11.5728   ZZ=            -13.8843
   XY=             -2.1206   XZ=              0.0689   YZ=             -0.0574

 Normal termination of Gaussian 09 at Wed Aug 26 21:23:07 2020.
