 Gaussian 09, Revision D.01,
 Gaussian 09:  ES64L-G09RevD.01 24-Apr-2013

 --------------------
 #p B2PLYPD3/Def2QZVP
 --------------------

 --------
 methanol
 --------
 Symbolic Z-matrix:
 Charge =  0 Multiplicity = 1

                         Standard orientation:
 ---------------------------------------------------------------------
 Center     Atomic      Atomic             Coordinates (Angstroms)
 Number     Number       Type             X           Y           Z
 ---------------------------------------------------------------------
      1          6           0       -0.665018   -0.017157    0.010046
      2          8           0        0.758052    0.103155   -0.011062
      3          1           0       -1.049086   -0.463150    0.934250
      4          1           0       -1.038296   -0.644197   -0.887439
      5          1           0       -1.101018    1.028283   -0.084226
      6          1           0        1.114094   -0.643236    0.065632
 ---------------------------------------------------------------------

 SCF Done:  E(RB2PLYPD3) =  -115.529334345     A.U. after   10 cycles
 E2(B2PLYPD3) =    -0.1456324227D+00 E(B2PLYPD3) =    -0.11567496676740D+03

 The electronic state is 1-A.
 Alpha  occ. eigenvalues --  -19.71469 -10.67234  -1.19298  -0.79356  -0.60347
 Alpha  occ. eigenvalues --   -0.51283  -0.49810  -0.41186  -0.35767
 Alpha virt. eigenvalues --    0.05335   0.08615   0.12086   0.12170   0.14715
 Alpha virt. eigenvalues --    0.17234   0.17985   0.28956   0.32692   0.33297
 Alpha virt. eigenvalues --    0.36971   0.38505   0.39346   0.40311   0.42780

 Mulliken charges:
               1
     1  C    0.062485
     2  O   -0.384391
     3  H    0.054955
     4  H    0.044666
     5  H    0.072553
     6  H    0.149731
 Sum of Mulliken charges =   0.00000

 Dipole moment (field-independent basis, Debye):
    X=             -0.9157    Y=             -1.3694    Z=              0.2005  Tot=              1.6595
 Quadrupole moment (field-independent basis, Debye-Ang):
   XX=            -13.0441   YY=            -12.4393   ZZ=            -13.7259
   XY=             -2.1032   XZ=              0.1207   YZ=             -0.1434

 Normal termination of Gaussian 09 at Wed Aug 26 10:19:39 2020.
