 Gaussian 09, Revision D.01,
 Gaussian 09:  ES64L-G09RevD.01 24-Apr-2013

 --------------------
 #p B2PLYPD3/Def2QZVP
 --------------------

 --------
 methanol
 --------
 Symbolic Z-matrix:
 Charge =  0 Multiplicity = 1

                         Standard orientation:
 ---------------------------------------------------------------------
 Center     Atomic      Atomic             Coordinates (Angstroms)
 Number     Number       Type             X           Y           Z
 ---------------------------------------------------------------------
      1          6           0        0.664185    0.016971   -0.016401
      2          8           0       -0.724846   -0.162175    0.013164
      3          1           0        0.984646    0.607573    0.836500
      4          1           0        0.938223    0.492717   -0.834635
      5          1           0        1.100354   -0.845622    0.039182
      6          1           0       -1.209570    0.940906   -0.047948
 ---------------------------------------------------------------------

 SCF Done:  E(RB2PLYPD3) =  -115.494476890     A.U. after   11 cycles
 E2(B2PLYPD3) =    -0.1508461114D+00 E(B2PLYPD3) =    -0.11564532300188D+03

 The electronic state is 1-A.
 Alpha  occ. eigenvalues --  -19.73835 -10.62456  -1.13288  -0.79303  -0.56692
 Alpha  occ. eigenvalues --   -0.52426  -0.50581  -0.40376  -0.34591
 Alpha virt. eigenvalues --    0.02215   0.07853   0.12705   0.12931   0.14837
 Alpha virt. eigenvalues --    0.17698   0.18000   0.26323   0.29630   0.33086
 Alpha virt. eigenvalues --    0.34697   0.39037   0.41697   0.42011   0.44609

 Mulliken charges:
               1
     1  C    0.093824
     2  O   -0.493917
     3  H    0.034700
     4  H    0.042157
     5  H    0.068452
     6  H    0.254783
 Sum of Mulliken charges =   0.00000

 Dipole moment (field-independent basis, Debye):
    X=              0.8617    Y=              1.6422    Z=             -0.1744  Tot=              1.8627
 Quadrupole moment (field-independent basis, Debye-Ang):
   XX=            -12.8671   YY=            -11.7932   ZZ=            -13.8425
   XY=             -2.6227   XZ=              0.0653   YZ=             -0.1525

 Normal termination of Gaussian 09 at Wed Aug 26 11:45:54 2020.
