 Gaussian 09, Revision D.01,
 Gaussian 09:  ES64L-G09RevD.01 24-Apr-2013

 --------------------
 #p B2PLYPD3/Def2QZVP
 --------------------

 --------
 methanol
 --------
 Symbolic Z-matrix:
 Charge =  0 Multiplicity = 1

                         Standard orientation:
 ---------------------------------------------------------------------
 Center     Atomic      Atomic             Coordinates (Angstroms)
 Number     Number       Type             X           Y           Z
 ---------------------------------------------------------------------
      1          6           0        0.667283    0.010682    0.004231
      2          8           0       -0.741559   -0.135920   -0.000483
      3          1           0        1.041744    0.496511    0.873093
      4          1           0        0.992974    0.589363   -0.854412
      5          1           0        1.039694   -0.925853   -0.058114
      6          1           0       -1.145634    0.863248    0.017906
 ---------------------------------------------------------------------

 SCF Done:  E(RB2PLYPD3) =  -115.535683820     A.U. after   11 cycles
 E2(B2PLYPD3) =    -0.1490612586D+00 E(B2PLYPD3) =    -0.11568474507899D+03

 The electronic state is 1-A.
 Alpha  occ. eigenvalues --  -19.73333 -10.64118  -1.14269  -0.78763  -0.57537
 Alpha  occ. eigenvalues --   -0.51725  -0.50118  -0.41298  -0.34956
 Alpha virt. eigenvalues --    0.03985   0.08024   0.12538   0.12656   0.14962
 Alpha virt. eigenvalues --    0.17269   0.18082   0.29082   0.30950   0.33269
 Alpha virt. eigenvalues --    0.34205   0.38888   0.40691   0.41406   0.43922

 Mulliken charges:
               1
     1  C    0.078834
     2  O   -0.483598
     3  H    0.044957
     4  H    0.039662
     5  H    0.073015
     6  H    0.247130
 Sum of Mulliken charges =   0.00000

 Dipole moment (field-independent basis, Debye):
    X=              0.9117    Y=              1.5716    Z=              0.0397  Tot=              1.8173
 Quadrupole moment (field-independent basis, Debye-Ang):
   XX=            -13.1109   YY=            -11.8978   ZZ=            -13.8600
   XY=             -2.3624   XZ=              0.0112   YZ=              0.0592

 Normal termination of Gaussian 09 at Thu Aug 27 00:00:12 2020.
