 Gaussian 09, Revision D.01,
 Gaussian 09:  ES64L-G09RevD.01 24-Apr-2013

 --------------------
 #p B2PLYPD3/Def2QZVP
 --------------------

 --------
 methanol
 --------
 Symbolic Z-matrix:
 Charge =  0 Multiplicity = 1

                         Standard orientation:
 ---------------------------------------------------------------------
 Center     Atomic      Atomic             Coordinates (Angstroms)
 Number     Number       Type             X           Y           Z
 ---------------------------------------------------------------------
      1          6           0        0.663349   -0.026068    0.003792
      2          8           0       -0.751288    0.117779   -0.002998
      3          1           0        1.032233   -0.585986   -0.875843
      4          1           0        0.980531   -0.519274    0.921972
      5          1           0        1.155417    0.998171   -0.036695
      6          1           0       -1.137971   -0.678731   -0.008207
 ---------------------------------------------------------------------

 SCF Done:  E(RB2PLYPD3) =  -115.545997264     A.U. after   10 cycles
 E2(B2PLYPD3) =    -0.1461482879D+00 E(B2PLYPD3) =    -0.11569214555175D+03

 The electronic state is 1-A.
 Alpha  occ. eigenvalues --  -19.71858 -10.66452  -1.17792  -0.79031  -0.59643
 Alpha  occ. eigenvalues --   -0.52027  -0.49774  -0.40718  -0.35645
 Alpha virt. eigenvalues --    0.05260   0.08432   0.12246   0.12356   0.14623
 Alpha virt. eigenvalues --    0.17509   0.17970   0.29077   0.32948   0.33441
 Alpha virt. eigenvalues --    0.36338   0.38474   0.39807   0.40763   0.43765

 Mulliken charges:
               1
     1  C    0.068717
     2  O   -0.427903
     3  H    0.048036
     4  H    0.052492
     5  H    0.068125
     6  H    0.190532
 Sum of Mulliken charges =   0.00000

 Dipole moment (field-independent basis, Debye):
    X=              0.8811    Y=             -1.4619    Z=              0.0032  Tot=              1.7069
 Quadrupole moment (field-independent basis, Debye-Ang):
   XX=            -12.9357   YY=            -12.4374   ZZ=            -13.7216
   XY=              2.2333   XZ=             -0.0316   YZ=             -0.0087

 Normal termination of Gaussian 09 at Wed Aug 26 23:57:52 2020.
