 Gaussian 09, Revision D.01,
 Gaussian 09:  ES64L-G09RevD.01 24-Apr-2013

 --------------------
 #p B2PLYPD3/Def2QZVP
 --------------------

 --------
 methanol
 --------
 Symbolic Z-matrix:
 Charge =  0 Multiplicity = 1

                         Standard orientation:
 ---------------------------------------------------------------------
 Center     Atomic      Atomic             Coordinates (Angstroms)
 Number     Number       Type             X           Y           Z
 ---------------------------------------------------------------------
      1          6           0       -0.666251   -0.017965    0.004149
      2          8           0        0.743867    0.108064   -0.009890
      3          1           0       -1.023551   -0.445074    0.924474
      4          1           0       -0.980463   -0.668835   -0.852227
      5          1           0       -1.056377    1.026940   -0.095249
      6          1           0        1.106955   -0.669755    0.077232
 ---------------------------------------------------------------------

 SCF Done:  E(RB2PLYPD3) =  -115.541707305     A.U. after   10 cycles
 E2(B2PLYPD3) =    -0.1456280543D+00 E(B2PLYPD3) =    -0.11568733535966D+03

 The electronic state is 1-A.
 Alpha  occ. eigenvalues --  -19.71414 -10.66207  -1.18545  -0.79349  -0.60132
 Alpha  occ. eigenvalues --   -0.52022  -0.49818  -0.41276  -0.35486
 Alpha virt. eigenvalues --    0.05284   0.08750   0.12149   0.12288   0.14873
 Alpha virt. eigenvalues --    0.17069   0.17793   0.29122   0.32948   0.33603
 Alpha virt. eigenvalues --    0.37702   0.38395   0.39881   0.40928   0.43427

 Mulliken charges:
               1
     1  C    0.069107
     2  O   -0.411165
     3  H    0.051071
     4  H    0.045374
     5  H    0.072541
     6  H    0.173073
 Sum of Mulliken charges =   0.00000

 Dipole moment (field-independent basis, Debye):
    X=             -0.8861    Y=             -1.4210    Z=              0.2017  Tot=              1.6868
 Quadrupole moment (field-independent basis, Debye-Ang):
   XX=            -13.1801   YY=            -12.2429   ZZ=            -13.6886
   XY=             -2.0980   XZ=              0.1276   YZ=             -0.1257

 Normal termination of Gaussian 09 at Wed Aug 26 10:37:47 2020.
