 Gaussian 09, Revision D.01,
 Gaussian 09:  ES64L-G09RevD.01 24-Apr-2013

 --------------------
 #p B2PLYPD3/Def2QZVP
 --------------------

 --------
 methanol
 --------
 Symbolic Z-matrix:
 Charge =  0 Multiplicity = 1

                         Standard orientation:
 ---------------------------------------------------------------------
 Center     Atomic      Atomic             Coordinates (Angstroms)
 Number     Number       Type             X           Y           Z
 ---------------------------------------------------------------------
      1          6           0        0.696607    0.000676    0.015160
      2          8           0       -0.770357    0.060999   -0.031726
      3          1           0        1.128356   -0.918111   -0.716037
      4          1           0        1.017641   -0.249831    1.015158
      5          1           0        1.033345    1.108673   -0.290206
      6          1           0       -1.196128   -0.432778    0.153934
 ---------------------------------------------------------------------

 SCF Done:  E(RB2PLYPD3) =  -115.369902849     A.U. after   11 cycles
 E2(B2PLYPD3) =    -0.1446605747D+00 E(B2PLYPD3) =    -0.11551456342381D+03

 The electronic state is 1-A.
 Alpha  occ. eigenvalues --  -19.68848 -10.69785  -1.23022  -0.81747  -0.61473
 Alpha  occ. eigenvalues --   -0.49907  -0.49383  -0.40237  -0.35882
 Alpha virt. eigenvalues --    0.05098   0.09000   0.11235   0.11766   0.14490
 Alpha virt. eigenvalues --    0.16489   0.17543   0.28622   0.30550   0.32114
 Alpha virt. eigenvalues --    0.35541   0.35904   0.40105   0.40916   0.41366

 Mulliken charges:
               1
     1  C    0.061656
     2  O   -0.257893
     3  H    0.046213
     4  H    0.068486
     5  H    0.092161
     6  H   -0.010624
 Sum of Mulliken charges =   0.00000

 Dipole moment (field-independent basis, Debye):
    X=              0.9950    Y=             -1.0154    Z=              0.5712  Tot=              1.5321
 Quadrupole moment (field-independent basis, Debye-Ang):
   XX=            -12.7068   YY=            -12.5394   ZZ=            -13.6487
   XY=              1.7367   XZ=             -0.4950   YZ=             -0.3235

 Normal termination of Gaussian 09 at Wed Aug 26 22:35:41 2020.
