 Gaussian 09, Revision D.01,
 Gaussian 09:  ES64L-G09RevD.01 24-Apr-2013

 --------------------
 #p B2PLYPD3/Def2QZVP
 --------------------

 --------
 methanol
 --------
 Symbolic Z-matrix:
 Charge =  0 Multiplicity = 1

                         Standard orientation:
 ---------------------------------------------------------------------
 Center     Atomic      Atomic             Coordinates (Angstroms)
 Number     Number       Type             X           Y           Z
 ---------------------------------------------------------------------
      1          6           0       -0.676257   -0.019295   -0.015194
      2          8           0        0.770512   -0.033509   -0.027166
      3          1           0       -1.081903    1.276342   -0.109289
      4          1           0       -1.080941   -0.453233    1.059672
      5          1           0       -1.096091   -0.678428   -0.832881
      6          1           0        1.152378    0.239161    0.190991
 ---------------------------------------------------------------------

 SCF Done:  E(RB2PLYPD3) =  -114.841528345     A.U. after   12 cycles
 E2(B2PLYPD3) =    -0.1444778919D+00 E(B2PLYPD3) =    -0.11498600623675D+03

 The electronic state is 1-A.
 Alpha  occ. eigenvalues --  -19.68321 -10.72519  -1.31381  -0.85261  -0.62160
 Alpha  occ. eigenvalues --   -0.51497  -0.49361  -0.39131  -0.35851
 Alpha virt. eigenvalues --    0.04434   0.09601   0.10111   0.11766   0.13584
 Alpha virt. eigenvalues --    0.16658   0.17558   0.28375   0.29408   0.30529
 Alpha virt. eigenvalues --    0.33066   0.35837   0.36775   0.41789   0.42370

 Mulliken charges:
               1
     1  C    0.059150
     2  O   -0.092309
     3  H    0.033954
     4  H    0.060222
     5  H    0.113678
     6  H   -0.174696
 Sum of Mulliken charges =   0.00000

 Dipole moment (field-independent basis, Debye):
    X=             -1.0054    Y=              0.4758    Z=              0.5029  Tot=              1.2207
 Quadrupole moment (field-independent basis, Debye-Ang):
   XX=            -12.6983   YY=            -13.0705   ZZ=            -13.2659
   XY=              1.5178   XZ=              1.0768   YZ=              0.4077

 Normal termination of Gaussian 09 at Wed Aug 26 18:38:55 2020.
