 Gaussian 09, Revision D.01,
 Gaussian 09:  ES64L-G09RevD.01 24-Apr-2013

 --------------------
 #p B2PLYPD3/Def2QZVP
 --------------------

 --------
 methanol
 --------
 Symbolic Z-matrix:
 Charge =  0 Multiplicity = 1

                         Standard orientation:
 ---------------------------------------------------------------------
 Center     Atomic      Atomic             Coordinates (Angstroms)
 Number     Number       Type             X           Y           Z
 ---------------------------------------------------------------------
      1          6           0       -0.671402   -0.022656    0.004560
      2          8           0        0.747023    0.117138   -0.008796
      3          1           0       -0.929587   -0.519164    0.931595
      4          1           0       -1.029818   -0.575980   -0.886714
      5          1           0       -1.107349    0.986384   -0.011623
      6          1           0        1.118988   -0.692412    0.009752
 ---------------------------------------------------------------------

 SCF Done:  E(RB2PLYPD3) =  -115.547817213     A.U. after   10 cycles
 E2(B2PLYPD3) =    -0.1461033412D+00 E(B2PLYPD3) =    -0.11569392055429D+03

 The electronic state is 1-A.
 Alpha  occ. eigenvalues --  -19.71604 -10.65979  -1.17462  -0.79160  -0.59187
 Alpha  occ. eigenvalues --   -0.52355  -0.50010  -0.40981  -0.35478
 Alpha virt. eigenvalues --    0.05250   0.08583   0.12175   0.12430   0.14540
 Alpha virt. eigenvalues --    0.17332   0.17864   0.29102   0.32756   0.33337
 Alpha virt. eigenvalues --    0.36739   0.39084   0.39990   0.40790   0.44202

 Mulliken charges:
               1
     1  C    0.071334
     2  O   -0.435561
     3  H    0.051800
     4  H    0.048309
     5  H    0.072364
     6  H    0.191755
 Sum of Mulliken charges =   0.00000

 Dipole moment (field-independent basis, Debye):
    X=             -0.9289    Y=             -1.4438    Z=              0.0591  Tot=              1.7179
 Quadrupole moment (field-independent basis, Debye-Ang):
   XX=            -13.1193   YY=            -12.3195   ZZ=            -13.6208
   XY=             -2.2450   XZ=              0.1169   YZ=             -0.0279

 Normal termination of Gaussian 09 at Wed Aug 26 23:43:34 2020.
