 Gaussian 09, Revision D.01,
 Gaussian 09:  ES64L-G09RevD.01 24-Apr-2013

 --------------------
 #p B2PLYPD3/Def2QZVP
 --------------------

 --------
 methanol
 --------
 Symbolic Z-matrix:
 Charge =  0 Multiplicity = 1

                         Standard orientation:
 ---------------------------------------------------------------------
 Center     Atomic      Atomic             Coordinates (Angstroms)
 Number     Number       Type             X           Y           Z
 ---------------------------------------------------------------------
      1          6           0        0.670329    0.007121    0.001652
      2          8           0       -0.740952   -0.155493    0.003354
      3          1           0        1.069967    0.531511    0.845349
      4          1           0        1.030027    0.558985   -0.837749
      5          1           0        1.057358   -0.847188   -0.036316
      6          1           0       -1.251714    0.957909   -0.008025
 ---------------------------------------------------------------------

 SCF Done:  E(RB2PLYPD3) =  -115.489997298     A.U. after   11 cycles
 E2(B2PLYPD3) =    -0.1518224533D+00 E(B2PLYPD3) =    -0.11564181975128D+03

 The electronic state is 1-A.
 Alpha  occ. eigenvalues --  -19.74333 -10.63110  -1.12482  -0.79450  -0.56109
 Alpha  occ. eigenvalues --   -0.51019  -0.50482  -0.40636  -0.34730
 Alpha virt. eigenvalues --    0.01936   0.07585   0.12779   0.12911   0.14941
 Alpha virt. eigenvalues --    0.17418   0.18317   0.25790   0.29579   0.33426
 Alpha virt. eigenvalues --    0.34242   0.38279   0.41152   0.41250   0.43420

 Mulliken charges:
               1
     1  C    0.080268
     2  O   -0.497044
     3  H    0.041976
     4  H    0.038836
     5  H    0.078650
     6  H    0.257314
 Sum of Mulliken charges =   0.00000

 Dipole moment (field-independent basis, Debye):
    X=              0.8571    Y=              1.6203    Z=             -0.0331  Tot=              1.8333
 Quadrupole moment (field-independent basis, Debye-Ang):
   XX=            -12.6400   YY=            -11.7990   ZZ=            -14.0309
   XY=             -2.6172   XZ=              0.0300   YZ=              0.0092

 Normal termination of Gaussian 09 at Wed Aug 26 15:29:45 2020.
