 Gaussian 09, Revision D.01,
 Gaussian 09:  ES64L-G09RevD.01 24-Apr-2013

 --------------------
 #p B2PLYPD3/Def2QZVP
 --------------------

 --------
 methanol
 --------
 Symbolic Z-matrix:
 Charge =  0 Multiplicity = 1

                         Standard orientation:
 ---------------------------------------------------------------------
 Center     Atomic      Atomic             Coordinates (Angstroms)
 Number     Number       Type             X           Y           Z
 ---------------------------------------------------------------------
      1          6           0       -0.650504    0.004284    0.026362
      2          8           0        0.761489   -0.065706   -0.024439
      3          1           0       -1.060652    1.062025   -0.613072
      4          1           0       -0.956167    0.139597    1.054217
      5          1           0       -1.240232   -1.051128   -0.450899
      6          1           0        1.068162    0.349453    0.047091
 ---------------------------------------------------------------------

 SCF Done:  E(RB2PLYPD3) =  -114.872620960     A.U. after   12 cycles
 E2(B2PLYPD3) =    -0.1437039281D+00 E(B2PLYPD3) =    -0.11501632488788D+03

 The electronic state is 1-A.
 Alpha  occ. eigenvalues --  -19.68998 -10.71095  -1.33105  -0.84694  -0.63393
 Alpha  occ. eigenvalues --   -0.51507  -0.49990  -0.39723  -0.36622
 Alpha virt. eigenvalues --    0.04571   0.09624   0.10405   0.11808   0.14296
 Alpha virt. eigenvalues --    0.16798   0.17570   0.28251   0.30687   0.31616
 Alpha virt. eigenvalues --    0.32490   0.34696   0.40585   0.41357   0.43197

 Mulliken charges:
               1
     1  C    0.058167
     2  O   -0.063155
     3  H    0.025458
     4  H    0.075630
     5  H    0.075929
     6  H   -0.172030
 Sum of Mulliken charges =   0.00000

 Dipole moment (field-independent basis, Debye):
    X=             -0.9741    Y=              0.9479    Z=              0.3889  Tot=              1.4137
 Quadrupole moment (field-independent basis, Debye-Ang):
   XX=            -12.9726   YY=            -12.7244   ZZ=            -13.5208
   XY=              1.8364   XZ=              0.2166   YZ=              0.2330

 Normal termination of Gaussian 09 at Wed Aug 26 22:22:30 2020.
