 Gaussian 09, Revision D.01,
 Gaussian 09:  ES64L-G09RevD.01 24-Apr-2013

 --------------------
 #p B2PLYPD3/Def2QZVP
 --------------------

 --------
 methanol
 --------
 Symbolic Z-matrix:
 Charge =  0 Multiplicity = 1

                         Standard orientation:
 ---------------------------------------------------------------------
 Center     Atomic      Atomic             Coordinates (Angstroms)
 Number     Number       Type             X           Y           Z
 ---------------------------------------------------------------------
      1          6           0       -0.658168   -0.025354    0.003218
      2          8           0        0.742738    0.102283   -0.008741
      3          1           0       -0.983522   -0.490371    0.938527
      4          1           0       -1.014675   -0.628508   -0.873347
      5          1           0       -1.090519    1.062973   -0.053741
      6          1           0        1.095821   -0.610237    0.039184
 ---------------------------------------------------------------------

 SCF Done:  E(RB2PLYPD3) =  -115.513269558     A.U. after   10 cycles
 E2(B2PLYPD3) =    -0.1447493320D+00 E(B2PLYPD3) =    -0.11565801888957D+03

 The electronic state is 1-A.
 Alpha  occ. eigenvalues --  -19.70835 -10.67051  -1.20912  -0.79839  -0.61072
 Alpha  occ. eigenvalues --   -0.52251  -0.49759  -0.40847  -0.35791
 Alpha virt. eigenvalues --    0.05359   0.08972   0.11945   0.12198   0.14759
 Alpha virt. eigenvalues --    0.17122   0.17766   0.28933   0.33087   0.33549
 Alpha virt. eigenvalues --    0.36810   0.38737   0.40132   0.40624   0.43054

 Mulliken charges:
               1
     1  C    0.062164
     2  O   -0.346692
     3  H    0.052292
     4  H    0.048750
     5  H    0.067826
     6  H    0.115660
 Sum of Mulliken charges =   0.00000

 Dipole moment (field-independent basis, Debye):
    X=             -0.8486    Y=             -1.3874    Z=              0.1216  Tot=              1.6309
 Quadrupole moment (field-independent basis, Debye-Ang):
   XX=            -13.1725   YY=            -12.3987   ZZ=            -13.6381
   XY=             -2.0096   XZ=              0.1231   YZ=             -0.0597

 Normal termination of Gaussian 09 at Thu Aug 27 00:14:56 2020.
