 Gaussian 09, Revision D.01,
 Gaussian 09:  ES64L-G09RevD.01 24-Apr-2013

 --------------------
 #p B2PLYPD3/Def2QZVP
 --------------------

 --------
 methanol
 --------
 Symbolic Z-matrix:
 Charge =  0 Multiplicity = 1

                         Standard orientation:
 ---------------------------------------------------------------------
 Center     Atomic      Atomic             Coordinates (Angstroms)
 Number     Number       Type             X           Y           Z
 ---------------------------------------------------------------------
      1          6           0        0.684275   -0.033411   -0.000271
      2          8           0       -0.755928    0.121530   -0.008832
      3          1           0        1.014839   -0.629293   -0.829718
      4          1           0        1.058411   -0.395599    0.917688
      5          1           0        1.027774    1.016396   -0.091332
      6          1           0       -1.159251   -0.763278    0.075644
 ---------------------------------------------------------------------

 SCF Done:  E(RB2PLYPD3) =  -115.549543702     A.U. after   11 cycles
 E2(B2PLYPD3) =    -0.1479023138D+00 E(B2PLYPD3) =    -0.11569744601566D+03

 The electronic state is 1-A.
 Alpha  occ. eigenvalues --  -19.72494 -10.65396  -1.14828  -0.78885  -0.58096
 Alpha  occ. eigenvalues --   -0.52421  -0.48458  -0.41094  -0.35679
 Alpha virt. eigenvalues --    0.04929   0.08157   0.12173   0.12447   0.14836
 Alpha virt. eigenvalues --    0.16898   0.18291   0.28959   0.32502   0.33739
 Alpha virt. eigenvalues --    0.35110   0.37969   0.39814   0.41812   0.43771

 Mulliken charges:
               1
     1  C    0.069651
     2  O   -0.474769
     3  H    0.055899
     4  H    0.057292
     5  H    0.067837
     6  H    0.224091
 Sum of Mulliken charges =   0.00000

 Dipole moment (field-independent basis, Debye):
    X=              0.9683    Y=             -1.5402    Z=              0.1644  Tot=              1.8267
 Quadrupole moment (field-independent basis, Debye-Ang):
   XX=            -13.0215   YY=            -12.1784   ZZ=            -13.7006
   XY=              2.1594   XZ=             -0.1337   YZ=             -0.0643

 Normal termination of Gaussian 09 at Wed Aug 26 11:35:42 2020.
