 Gaussian 09, Revision D.01,
 Gaussian 09:  ES64L-G09RevD.01 24-Apr-2013

 --------------------
 #p B2PLYPD3/Def2QZVP
 --------------------

 --------
 methanol
 --------
 Symbolic Z-matrix:
 Charge =  0 Multiplicity = 1

                         Standard orientation:
 ---------------------------------------------------------------------
 Center     Atomic      Atomic             Coordinates (Angstroms)
 Number     Number       Type             X           Y           Z
 ---------------------------------------------------------------------
      1          6           0       -0.676445    0.038374    0.013388
      2          8           0        0.720173   -0.191089   -0.036163
      3          1           0       -1.137524    0.669327   -0.695492
      4          1           0       -0.888508    0.390381    0.749660
      5          1           0       -1.006293   -0.876517    0.029199
      6          1           0        1.329613    1.115278    0.125607
 ---------------------------------------------------------------------

 SCF Done:  E(RB2PLYPD3) =  -115.378318174     A.U. after   12 cycles
 E2(B2PLYPD3) =    -0.1565382907D+00 E(B2PLYPD3) =    -0.11553485646499D+03

 The electronic state is 1-A.
 Alpha  occ. eigenvalues --  -19.75320 -10.60667  -1.11873  -0.81452  -0.56739
 Alpha  occ. eigenvalues --   -0.53019  -0.48468  -0.39127  -0.35206
 Alpha virt. eigenvalues --   -0.02097   0.07459   0.12381   0.13249   0.15130
 Alpha virt. eigenvalues --    0.16774   0.18456   0.21772   0.29610   0.33090
 Alpha virt. eigenvalues --    0.34897   0.38606   0.39315   0.41684   0.46255

 Mulliken charges:
               1
     1  C    0.026590
     2  O   -0.476864
     3  H    0.046735
     4  H    0.113298
     5  H    0.068613
     6  H    0.221628
 Sum of Mulliken charges =   0.00000

 Dipole moment (field-independent basis, Debye):
    X=             -1.0125    Y=              1.6967    Z=              0.4050  Tot=              2.0169
 Quadrupole moment (field-independent basis, Debye-Ang):
   XX=            -12.6691   YY=            -11.3613   ZZ=            -14.0137
   XY=              2.4192   XZ=              0.1919   YZ=              0.1805

 Normal termination of Gaussian 09 at Wed Aug 26 23:01:44 2020.
