 Gaussian 09, Revision D.01,
 Gaussian 09:  ES64L-G09RevD.01 24-Apr-2013

 --------------------
 #p B2PLYPD3/Def2QZVP
 --------------------

 --------
 methanol
 --------
 Symbolic Z-matrix:
 Charge =  0 Multiplicity = 1

                         Standard orientation:
 ---------------------------------------------------------------------
 Center     Atomic      Atomic             Coordinates (Angstroms)
 Number     Number       Type             X           Y           Z
 ---------------------------------------------------------------------
      1          6           0        0.675954    0.027946    0.003884
      2          8           0       -0.755569   -0.155280   -0.004838
      3          1           0        1.014436    0.469270    0.853074
      4          1           0        1.073553    0.594903   -0.781989
      5          1           0        1.117910   -0.922491   -0.059383
      6          1           0       -1.217071    0.932881    0.003692
 ---------------------------------------------------------------------

 SCF Done:  E(RB2PLYPD3) =  -115.511785480     A.U. after   11 cycles
 E2(B2PLYPD3) =    -0.1514369622D+00 E(B2PLYPD3) =    -0.11566322244265D+03

 The electronic state is 1-A.
 Alpha  occ. eigenvalues --  -19.74262 -10.63734  -1.12175  -0.79171  -0.55829
 Alpha  occ. eigenvalues --   -0.51901  -0.48974  -0.40805  -0.35303
 Alpha virt. eigenvalues --    0.02727   0.07528   0.12526   0.12855   0.14882
 Alpha virt. eigenvalues --    0.17485   0.18305   0.26888   0.29552   0.33171
 Alpha virt. eigenvalues --    0.33887   0.39059   0.39567   0.42119   0.43841

 Mulliken charges:
               1
     1  C    0.088949
     2  O   -0.499741
     3  H    0.049592
     4  H    0.043699
     5  H    0.064194
     6  H    0.253307
 Sum of Mulliken charges =   0.00000

 Dipole moment (field-independent basis, Debye):
    X=              0.9764    Y=              1.6934    Z=              0.0377  Tot=              1.9551
 Quadrupole moment (field-independent basis, Debye-Ang):
   XX=            -12.7496   YY=            -11.8694   ZZ=            -13.9956
   XY=             -2.4462   XZ=             -0.0415   YZ=              0.0301

 Normal termination of Gaussian 09 at Wed Aug 26 16:12:13 2020.
