 Gaussian 09, Revision D.01,
 Gaussian 09:  ES64L-G09RevD.01 24-Apr-2013

 --------------------
 #p B2PLYPD3/Def2QZVP
 --------------------

 --------
 methanol
 --------
 Symbolic Z-matrix:
 Charge =  0 Multiplicity = 1

                         Standard orientation:
 ---------------------------------------------------------------------
 Center     Atomic      Atomic             Coordinates (Angstroms)
 Number     Number       Type             X           Y           Z
 ---------------------------------------------------------------------
      1          6           0        0.647276    0.033778   -0.016672
      2          8           0       -0.757623   -0.156598    0.015207
      3          1           0        0.957478    0.696765    0.775326
      4          1           0        1.100628    0.399909   -0.767657
      5          1           0        1.221207   -0.963721    0.097788
      6          1           0       -1.101985    0.917169   -0.127083
 ---------------------------------------------------------------------

 SCF Done:  E(RB2PLYPD3) =  -115.502216641     A.U. after   11 cycles
 E2(B2PLYPD3) =    -0.1509316471D+00 E(B2PLYPD3) =    -0.11565314828807D+03

 The electronic state is 1-A.
 Alpha  occ. eigenvalues --  -19.74682 -10.64404  -1.14105  -0.79314  -0.56963
 Alpha  occ. eigenvalues --   -0.52399  -0.48771  -0.40644  -0.35455
 Alpha virt. eigenvalues --    0.03074   0.07469   0.12215   0.12846   0.14864
 Alpha virt. eigenvalues --    0.17962   0.18615   0.27484   0.29673   0.32738
 Alpha virt. eigenvalues --    0.34589   0.36565   0.39367   0.41332   0.44836

 Mulliken charges:
               1
     1  C    0.082701
     2  O   -0.468939
     3  H    0.036051
     4  H    0.049887
     5  H    0.046493
     6  H    0.253806
 Sum of Mulliken charges =   0.00000

 Dipole moment (field-independent basis, Debye):
    X=              0.9637    Y=              1.7766    Z=             -0.3464  Tot=              2.0507
 Quadrupole moment (field-independent basis, Debye-Ang):
   XX=            -13.1288   YY=            -11.9138   ZZ=            -14.1141
   XY=             -2.2154   XZ=              0.0113   YZ=             -0.2044

 Normal termination of Gaussian 09 at Wed Aug 26 19:39:21 2020.
