 Gaussian 09, Revision D.01,
 Gaussian 09:  ES64L-G09RevD.01 24-Apr-2013

 --------------------
 #p B2PLYPD3/Def2QZVP
 --------------------

 --------
 methanol
 --------
 Symbolic Z-matrix:
 Charge =  0 Multiplicity = 1

                         Standard orientation:
 ---------------------------------------------------------------------
 Center     Atomic      Atomic             Coordinates (Angstroms)
 Number     Number       Type             X           Y           Z
 ---------------------------------------------------------------------
      1          6           0        0.655220   -0.020811   -0.000356
      2          8           0       -0.743567    0.092438   -0.013631
      3          1           0        0.940015   -0.842991   -0.740751
      4          1           0        1.071403   -0.175547    1.058310
      5          1           0        1.039959    0.978674   -0.352277
      6          1           0       -1.034164   -0.574773    0.145906
 ---------------------------------------------------------------------

 SCF Done:  E(RB2PLYPD3) =  -115.475261116     A.U. after   11 cycles
 E2(B2PLYPD3) =    -0.1442054758D+00 E(B2PLYPD3) =    -0.11561946659130D+03

 The electronic state is 1-A.
 Alpha  occ. eigenvalues --  -19.70365 -10.67403  -1.23206  -0.80302  -0.61121
 Alpha  occ. eigenvalues --   -0.52332  -0.50370  -0.41261  -0.35910
 Alpha virt. eigenvalues --    0.05401   0.09153   0.11818   0.12212   0.14411
 Alpha virt. eigenvalues --    0.17042   0.17966   0.28581   0.32745   0.33505
 Alpha virt. eigenvalues --    0.36802   0.38898   0.39628   0.40977   0.43407

 Mulliken charges:
               1
     1  C    0.052302
     2  O   -0.285402
     3  H    0.047357
     4  H    0.049768
     5  H    0.073107
     6  H    0.062867
 Sum of Mulliken charges =   0.00000

 Dipole moment (field-independent basis, Debye):
    X=              0.9125    Y=             -1.2421    Z=              0.2746  Tot=              1.5656
 Quadrupole moment (field-independent basis, Debye-Ang):
   XX=            -13.4382   YY=            -12.4726   ZZ=            -13.4531
   XY=              1.9396   XZ=             -0.3733   YZ=             -0.1747

 Normal termination of Gaussian 09 at Wed Aug 26 12:59:51 2020.
