 Gaussian 09, Revision D.01,
 Gaussian 09:  ES64L-G09RevD.01 24-Apr-2013

 --------------------
 #p B2PLYPD3/Def2QZVP
 --------------------

 --------
 methanol
 --------
 Symbolic Z-matrix:
 Charge =  0 Multiplicity = 1

                         Standard orientation:
 ---------------------------------------------------------------------
 Center     Atomic      Atomic             Coordinates (Angstroms)
 Number     Number       Type             X           Y           Z
 ---------------------------------------------------------------------
      1          6           0        0.673950   -0.014801   -0.000309
      2          8           0       -0.754499    0.113385   -0.001525
      3          1           0        1.018398   -0.570698   -0.887479
      4          1           0        1.060241   -0.506942    0.901247
      5          1           0        1.032962    1.000444   -0.027581
      6          1           0       -1.119313   -0.741076    0.027870
 ---------------------------------------------------------------------

 SCF Done:  E(RB2PLYPD3) =  -115.551964207     A.U. after   10 cycles
 E2(B2PLYPD3) =    -0.1469700232D+00 E(B2PLYPD3) =    -0.11569893423027D+03

 The electronic state is 1-A.
 Alpha  occ. eigenvalues --  -19.72220 -10.65816  -1.16382  -0.78932  -0.58909
 Alpha  occ. eigenvalues --   -0.51541  -0.49611  -0.41569  -0.35487
 Alpha virt. eigenvalues --    0.05102   0.08363   0.12299   0.12346   0.14869
 Alpha virt. eigenvalues --    0.17058   0.18054   0.29091   0.32844   0.33461
 Alpha virt. eigenvalues --    0.36302   0.38648   0.39948   0.40601   0.43616

 Mulliken charges:
               1
     1  C    0.068529
     2  O   -0.451587
     3  H    0.049102
     4  H    0.049587
     5  H    0.074451
     6  H    0.209919
 Sum of Mulliken charges =   0.00000

 Dipole moment (field-independent basis, Debye):
    X=              0.9543    Y=             -1.4696    Z=              0.0545  Tot=              1.7531
 Quadrupole moment (field-independent basis, Debye-Ang):
   XX=            -13.1452   YY=            -12.1588   ZZ=            -13.7553
   XY=              2.1594   XZ=             -0.0268   YZ=             -0.0355

 Normal termination of Gaussian 09 at Thu Aug 27 00:06:46 2020.
