 Gaussian 09, Revision D.01,
 Gaussian 09:  ES64L-G09RevD.01 24-Apr-2013

 --------------------
 #p B2PLYPD3/Def2QZVP
 --------------------

 --------
 methanol
 --------
 Symbolic Z-matrix:
 Charge =  0 Multiplicity = 1

                         Standard orientation:
 ---------------------------------------------------------------------
 Center     Atomic      Atomic             Coordinates (Angstroms)
 Number     Number       Type             X           Y           Z
 ---------------------------------------------------------------------
      1          6           0       -0.624917    0.003187    0.014845
      2          8           0        0.743219   -0.062437   -0.014134
      3          1           0       -1.022406    1.044833   -0.632236
      4          1           0       -1.055178    0.125986    1.064526
      5          1           0       -1.158751   -1.047140   -0.473528
      6          1           0        1.040086    0.356692    0.065242
 ---------------------------------------------------------------------

 SCF Done:  E(RB2PLYPD3) =  -114.872731301     A.U. after   11 cycles
 E2(B2PLYPD3) =    -0.1432698294D+00 E(B2PLYPD3) =    -0.11501600113006D+03

 The electronic state is 1-A.
 Alpha  occ. eigenvalues --  -19.69589 -10.70942  -1.34522  -0.85708  -0.63513
 Alpha  occ. eigenvalues --   -0.51921  -0.51116  -0.39701  -0.36165
 Alpha virt. eigenvalues --    0.04741   0.09699   0.10740   0.11773   0.14530
 Alpha virt. eigenvalues --    0.16841   0.17528   0.27982   0.31013   0.32878
 Alpha virt. eigenvalues --    0.34086   0.35924   0.39031   0.41255   0.42912

 Mulliken charges:
               1
     1  C    0.048659
     2  O   -0.030491
     3  H    0.020771
     4  H    0.060812
     5  H    0.072457
     6  H   -0.172207
 Sum of Mulliken charges =   0.00000

 Dipole moment (field-independent basis, Debye):
    X=             -0.7584    Y=              0.9272    Z=              0.3363  Tot=              1.2442
 Quadrupole moment (field-independent basis, Debye-Ang):
   XX=            -13.0903   YY=            -12.7572   ZZ=            -13.6061
   XY=              1.7554   XZ=              0.1639   YZ=              0.2408

 Normal termination of Gaussian 09 at Wed Aug 26 21:18:37 2020.
