 Gaussian 09, Revision D.01,
 Gaussian 09:  ES64L-G09RevD.01 24-Apr-2013

 --------------------
 #p B2PLYPD3/Def2QZVP
 --------------------

 --------
 methanol
 --------
 Symbolic Z-matrix:
 Charge =  0 Multiplicity = 1

                         Standard orientation:
 ---------------------------------------------------------------------
 Center     Atomic      Atomic             Coordinates (Angstroms)
 Number     Number       Type             X           Y           Z
 ---------------------------------------------------------------------
      1          6           0        0.685880    0.018420   -0.003706
      2          8           0       -0.752371   -0.161154    0.000811
      3          1           0        1.093465    0.436898    0.808260
      4          1           0        0.934528    0.639311   -0.760345
      5          1           0        1.035641   -0.911863   -0.086727
      6          1           0       -1.159943    1.014367    0.054559
 ---------------------------------------------------------------------

 SCF Done:  E(RB2PLYPD3) =  -115.485047085     A.U. after   11 cycles
 E2(B2PLYPD3) =    -0.1527736834D+00 E(B2PLYPD3) =    -0.11563782076838D+03

 The electronic state is 1-A.
 Alpha  occ. eigenvalues --  -19.74400 -10.62558  -1.11573  -0.79820  -0.56544
 Alpha  occ. eigenvalues --   -0.52381  -0.48114  -0.41232  -0.35087
 Alpha virt. eigenvalues --    0.01718   0.07680   0.12390   0.12943   0.14865
 Alpha virt. eigenvalues --    0.17212   0.18052   0.25337   0.29545   0.32578
 Alpha virt. eigenvalues --    0.33979   0.39010   0.39704   0.42850   0.44766

 Mulliken charges:
               1
     1  C    0.102334
     2  O   -0.500443
     3  H    0.042944
     4  H    0.041502
     5  H    0.069448
     6  H    0.244215
 Sum of Mulliken charges =   0.00000

 Dipole moment (field-independent basis, Debye):
    X=              1.1436    Y=              1.7176    Z=              0.0816  Tot=              2.0651
 Quadrupole moment (field-independent basis, Debye-Ang):
   XX=            -13.1718   YY=            -11.4188   ZZ=            -14.0022
   XY=             -2.3127   XZ=              0.0392   YZ=              0.0549

 Normal termination of Gaussian 09 at Wed Aug 26 18:33:48 2020.
