 Gaussian 09, Revision D.01,
 Gaussian 09:  ES64L-G09RevD.01 24-Apr-2013

 --------------------
 #p B2PLYPD3/Def2QZVP
 --------------------

 --------
 methanol
 --------
 Symbolic Z-matrix:
 Charge =  0 Multiplicity = 1

                         Standard orientation:
 ---------------------------------------------------------------------
 Center     Atomic      Atomic             Coordinates (Angstroms)
 Number     Number       Type             X           Y           Z
 ---------------------------------------------------------------------
      1          6           0       -0.669758    0.021604   -0.000337
      2          8           0        0.759100   -0.133226   -0.005761
      3          1           0       -1.029204    0.573845   -0.883385
      4          1           0       -1.135050    0.447782    0.889766
      5          1           0       -1.070747   -0.930767   -0.037802
      6          1           0        1.180747    0.845322    0.079525
 ---------------------------------------------------------------------

 SCF Done:  E(RB2PLYPD3) =  -115.537586137     A.U. after   11 cycles
 E2(B2PLYPD3) =    -0.1496155454D+00 E(B2PLYPD3) =    -0.11568720168269D+03

 The electronic state is 1-A.
 Alpha  occ. eigenvalues --  -19.73731 -10.65090  -1.13815  -0.78623  -0.56853
 Alpha  occ. eigenvalues --   -0.51401  -0.49424  -0.40987  -0.35407
 Alpha virt. eigenvalues --    0.04168   0.07653   0.12402   0.12675   0.14829
 Alpha virt. eigenvalues --    0.17219   0.18640   0.28737   0.31166   0.32968
 Alpha virt. eigenvalues --    0.34086   0.38280   0.39759   0.41087   0.43585

 Mulliken charges:
               1
     1  C    0.066795
     2  O   -0.482500
     3  H    0.048661
     4  H    0.048551
     5  H    0.069724
     6  H    0.248769
 Sum of Mulliken charges =   0.00000

 Dipole moment (field-independent basis, Debye):
    X=             -0.9120    Y=              1.5307    Z=              0.1473  Tot=              1.7879
 Quadrupole moment (field-independent basis, Debye-Ang):
   XX=            -12.8398   YY=            -12.1929   ZZ=            -13.8824
   XY=              2.4088   XZ=              0.0873   YZ=              0.0842

 Normal termination of Gaussian 09 at Wed Aug 26 16:28:51 2020.
