 Gaussian 09, Revision D.01,
 Gaussian 09:  ES64L-G09RevD.01 24-Apr-2013

 --------------------
 #p B2PLYPD3/Def2QZVP
 --------------------

 --------
 methanol
 --------
 Symbolic Z-matrix:
 Charge =  0 Multiplicity = 1

                         Standard orientation:
 ---------------------------------------------------------------------
 Center     Atomic      Atomic             Coordinates (Angstroms)
 Number     Number       Type             X           Y           Z
 ---------------------------------------------------------------------
      1          6           0       -0.671675   -0.020182    0.047234
      2          8           0        0.789318    0.050414   -0.032564
      3          1           0       -1.034443   -0.246481    0.985689
      4          1           0       -1.191304   -0.880136   -0.790226
      5          1           0       -1.101528    1.204901   -0.327339
      6          1           0        1.042782   -0.360500    0.108983
 ---------------------------------------------------------------------

 SCF Done:  E(RB2PLYPD3) =  -114.760987994     A.U. after   12 cycles
 E2(B2PLYPD3) =    -0.1444417883D+00 E(B2PLYPD3) =    -0.11490542978183D+03

 The electronic state is 1-A.
 Alpha  occ. eigenvalues --  -19.69396 -10.71299  -1.33866  -0.83223  -0.64268
 Alpha  occ. eigenvalues --   -0.50693  -0.48474  -0.41001  -0.37149
 Alpha virt. eigenvalues --    0.04334   0.08985   0.10179   0.11486   0.14667
 Alpha virt. eigenvalues --    0.16813   0.17795   0.27776   0.29454   0.30650
 Alpha virt. eigenvalues --    0.31425   0.34923   0.39782   0.42262   0.42955

 Mulliken charges:
               1
     1  C    0.037947
     2  O   -0.041484
     3  H    0.090709
     4  H    0.044241
     5  H    0.066392
     6  H   -0.197806
 Sum of Mulliken charges =   0.00000

 Dipole moment (field-independent basis, Debye):
    X=             -1.1700    Y=             -1.0290    Z=              0.6176  Tot=              1.6761
 Quadrupole moment (field-independent basis, Debye-Ang):
   XX=            -13.1204   YY=            -12.6624   ZZ=            -13.3782
   XY=             -1.4701   XZ=              0.3280   YZ=             -0.3501

 Normal termination of Gaussian 09 at Wed Aug 26 23:58:30 2020.
