 Gaussian 09, Revision D.01,
 Gaussian 09:  ES64L-G09RevD.01 24-Apr-2013

 --------------------
 #p B2PLYPD3/Def2QZVP
 --------------------

 --------
 methanol
 --------
 Symbolic Z-matrix:
 Charge =  0 Multiplicity = 1

                         Standard orientation:
 ---------------------------------------------------------------------
 Center     Atomic      Atomic             Coordinates (Angstroms)
 Number     Number       Type             X           Y           Z
 ---------------------------------------------------------------------
      1          6           0        0.651461    0.010199    0.002139
      2          8           0       -0.733955   -0.161991   -0.013803
      3          1           0        1.040570    0.412679    0.876982
      4          1           0        1.008849    0.671398   -0.795031
      5          1           0        1.124814   -0.819836   -0.077457
      6          1           0       -1.211363    0.970491    0.093097
 ---------------------------------------------------------------------

 SCF Done:  E(RB2PLYPD3) =  -115.490139077     A.U. after   11 cycles
 E2(B2PLYPD3) =    -0.1517173233D+00 E(B2PLYPD3) =    -0.11564185639994D+03

 The electronic state is 1-A.
 Alpha  occ. eigenvalues --  -19.74545 -10.63058  -1.13407  -0.79231  -0.55803
 Alpha  occ. eigenvalues --   -0.51730  -0.50867  -0.40239  -0.34687
 Alpha virt. eigenvalues --    0.01613   0.07600   0.12691   0.13057   0.14889
 Alpha virt. eigenvalues --    0.17854   0.18434   0.25323   0.29598   0.33210
 Alpha virt. eigenvalues --    0.34943   0.38685   0.41128   0.42001   0.43274

 Mulliken charges:
               1
     1  C    0.085362
     2  O   -0.484798
     3  H    0.038554
     4  H    0.032358
     5  H    0.068195
     6  H    0.260329
 Sum of Mulliken charges =   0.00000

 Dipole moment (field-independent basis, Debye):
    X=              0.8229    Y=              1.6248    Z=              0.2099  Tot=              1.8334
 Quadrupole moment (field-independent basis, Debye-Ang):
   XX=            -12.7677   YY=            -11.8482   ZZ=            -14.0162
   XY=             -2.6660   XZ=             -0.1378   YZ=              0.1440

 Normal termination of Gaussian 09 at Wed Aug 26 12:53:53 2020.
