 Gaussian 09, Revision D.01,
 Gaussian 09:  ES64L-G09RevD.01 24-Apr-2013

 --------------------
 #p B2PLYPD3/Def2QZVP
 --------------------

 --------
 methanol
 --------
 Symbolic Z-matrix:
 Charge =  0 Multiplicity = 1

                         Standard orientation:
 ---------------------------------------------------------------------
 Center     Atomic      Atomic             Coordinates (Angstroms)
 Number     Number       Type             X           Y           Z
 ---------------------------------------------------------------------
      1          6           0       -0.670474   -0.027527   -0.001883
      2          8           0        0.739197    0.140100    0.002348
      3          1           0       -1.013799   -0.529197    0.852235
      4          1           0       -1.031914   -0.540234   -0.824559
      5          1           0       -1.038643    0.971669   -0.015067
      6          1           0        1.193625   -0.857879   -0.020099
 ---------------------------------------------------------------------

 SCF Done:  E(RB2PLYPD3) =  -115.533268243     A.U. after   11 cycles
 E2(B2PLYPD3) =    -0.1494024010D+00 E(B2PLYPD3) =    -0.11568267064378D+03

 The electronic state is 1-A.
 Alpha  occ. eigenvalues --  -19.73402 -10.63978  -1.13792  -0.78731  -0.57474
 Alpha  occ. eigenvalues --   -0.52270  -0.49138  -0.40891  -0.35157
 Alpha virt. eigenvalues --    0.03865   0.07919   0.12414   0.12756   0.15124
 Alpha virt. eigenvalues --    0.17075   0.18156   0.28989   0.30543   0.33547
 Alpha virt. eigenvalues --    0.34209   0.38937   0.39477   0.42277   0.44556

 Mulliken charges:
               1
     1  C    0.079971
     2  O   -0.488851
     3  H    0.047246
     4  H    0.046549
     5  H    0.068099
     6  H    0.246986
 Sum of Mulliken charges =   0.00000

 Dipole moment (field-independent basis, Debye):
    X=             -0.8708    Y=             -1.6327    Z=             -0.0503  Tot=              1.8511
 Quadrupole moment (field-independent basis, Debye-Ang):
   XX=            -12.9103   YY=            -11.9330   ZZ=            -13.8766
   XY=             -2.3108   XZ=             -0.0124   YZ=              0.0315

 Normal termination of Gaussian 09 at Wed Aug 26 23:58:37 2020.
