 Gaussian 09, Revision D.01,
 Gaussian 09:  ES64L-G09RevD.01 24-Apr-2013

 --------------------
 #p B2PLYPD3/Def2QZVP
 --------------------

 --------
 methanol
 --------
 Symbolic Z-matrix:
 Charge =  0 Multiplicity = 1

                         Standard orientation:
 ---------------------------------------------------------------------
 Center     Atomic      Atomic             Coordinates (Angstroms)
 Number     Number       Type             X           Y           Z
 ---------------------------------------------------------------------
      1          6           0        0.626595    0.011951   -0.002555
      2          8           0       -0.741465   -0.029540    0.064522
      3          1           0        0.985816    1.132344   -0.389312
      4          1           0        1.096772   -0.915940   -0.740020
      5          1           0        1.163658   -0.173160    1.011196
      6          1           0       -1.074100    0.121370   -0.382708
 ---------------------------------------------------------------------

 SCF Done:  E(RB2PLYPD3) =  -115.125671024     A.U. after   11 cycles
 E2(B2PLYPD3) =    -0.1434586364D+00 E(B2PLYPD3) =    -0.11526912966053D+03

 The electronic state is 1-A.
 Alpha  occ. eigenvalues --  -19.69576 -10.70591  -1.31454  -0.84703  -0.62673
 Alpha  occ. eigenvalues --   -0.52247  -0.51304  -0.39555  -0.35747
 Alpha virt. eigenvalues --    0.05000   0.09382   0.11149   0.11940   0.13993
 Alpha virt. eigenvalues --    0.17196   0.17893   0.27756   0.31675   0.33018
 Alpha virt. eigenvalues --    0.35367   0.36393   0.37232   0.41530   0.43397

 Mulliken charges:
               1
     1  C    0.040520
     2  O   -0.100299
     3  H    0.036265
     4  H    0.032383
     5  H    0.088182
     6  H   -0.097051
 Sum of Mulliken charges =   0.00000

 Dipole moment (field-independent basis, Debye):
    X=              0.6867    Y=              0.3772    Z=             -0.8276  Tot=              1.1396
 Quadrupole moment (field-independent basis, Debye-Ang):
   XX=            -12.9923   YY=            -13.4732   ZZ=            -13.1029
   XY=             -0.5931   XZ=              1.9294   YZ=             -0.2508

 Normal termination of Gaussian 09 at Wed Aug 26 21:19:27 2020.
