 Gaussian 09, Revision D.01,
 Gaussian 09:  ES64L-G09RevD.01 24-Apr-2013

 --------------------
 #p B2PLYPD3/Def2QZVP
 --------------------

 --------
 methanol
 --------
 Symbolic Z-matrix:
 Charge =  0 Multiplicity = 1

                         Standard orientation:
 ---------------------------------------------------------------------
 Center     Atomic      Atomic             Coordinates (Angstroms)
 Number     Number       Type             X           Y           Z
 ---------------------------------------------------------------------
      1          6           0        0.673150   -0.007126    0.003863
      2          8           0       -0.752527    0.122426   -0.005916
      3          1           0        1.065757   -0.568756   -0.876115
      4          1           0        1.028079   -0.508778    0.899663
      5          1           0        1.022524    0.952433   -0.019341
      6          1           0       -1.135043   -0.811554    0.019946
 ---------------------------------------------------------------------

 SCF Done:  E(RB2PLYPD3) =  -115.546365153     A.U. after   10 cycles
 E2(B2PLYPD3) =    -0.1482446994D+00 E(B2PLYPD3) =    -0.11569460985275D+03

 The electronic state is 1-A.
 Alpha  occ. eigenvalues --  -19.72948 -10.65076  -1.14867  -0.78818  -0.57955
 Alpha  occ. eigenvalues --   -0.51188  -0.50037  -0.41609  -0.35183
 Alpha virt. eigenvalues --    0.04629   0.08085   0.12361   0.12576   0.14912
 Alpha virt. eigenvalues --    0.17120   0.18137   0.29094   0.32947   0.33383
 Alpha virt. eigenvalues --    0.33853   0.38553   0.40367   0.40627   0.43918

 Mulliken charges:
               1
     1  C    0.071821
     2  O   -0.474926
     3  H    0.043330
     4  H    0.047113
     5  H    0.076658
     6  H    0.236004
 Sum of Mulliken charges =   0.00000

 Dipole moment (field-independent basis, Debye):
    X=              0.9419    Y=             -1.5031    Z=              0.0710  Tot=              1.7753
 Quadrupole moment (field-independent basis, Debye-Ang):
   XX=            -13.1210   YY=            -12.0261   ZZ=            -13.8390
   XY=              2.2804   XZ=             -0.0557   YZ=             -0.0520

 Normal termination of Gaussian 09 at Wed Aug 26 10:08:11 2020.
