 Gaussian 09, Revision D.01,
 Gaussian 09:  ES64L-G09RevD.01 24-Apr-2013

 --------------------
 #p B2PLYPD3/Def2QZVP
 --------------------

 --------
 methanol
 --------
 Symbolic Z-matrix:
 Charge =  0 Multiplicity = 1

                         Standard orientation:
 ---------------------------------------------------------------------
 Center     Atomic      Atomic             Coordinates (Angstroms)
 Number     Number       Type             X           Y           Z
 ---------------------------------------------------------------------
      1          6           0       -0.662704   -0.022412   -0.009196
      2          8           0        0.757147    0.089773   -0.017885
      3          1           0       -1.060514   -0.360783    1.041385
      4          1           0       -0.974176   -0.768104   -0.827054
      5          1           0       -1.176604    1.031670   -0.168470
      6          1           0        1.130338   -0.486493    0.152389
 ---------------------------------------------------------------------

 SCF Done:  E(RB2PLYPD3) =  -115.427038694     A.U. after   11 cycles
 E2(B2PLYPD3) =    -0.1442908005D+00 E(B2PLYPD3) =    -0.11557132949499D+03

 The electronic state is 1-A.
 Alpha  occ. eigenvalues --  -19.69910 -10.68895  -1.23583  -0.81006  -0.61485
 Alpha  occ. eigenvalues --   -0.51689  -0.49826  -0.40119  -0.36072
 Alpha virt. eigenvalues --    0.05315   0.09021   0.11776   0.11969   0.14228
 Alpha virt. eigenvalues --    0.17198   0.17854   0.28712   0.32246   0.32956
 Alpha virt. eigenvalues --    0.35593   0.37786   0.38653   0.40509   0.42849

 Mulliken charges:
               1
     1  C    0.057057
     2  O   -0.261565
     3  H    0.045094
     4  H    0.056267
     5  H    0.077264
     6  H    0.025882
 Sum of Mulliken charges =   0.00000

 Dipole moment (field-independent basis, Debye):
    X=             -0.8959    Y=             -1.1713    Z=              0.3311  Tot=              1.5113
 Quadrupole moment (field-independent basis, Debye-Ang):
   XX=            -12.8659   YY=            -12.7579   ZZ=            -13.5798
   XY=             -2.0163   XZ=              0.4718   YZ=             -0.1028

 Normal termination of Gaussian 09 at Wed Aug 26 16:05:34 2020.
