 Gaussian 09, Revision D.01,
 Gaussian 09:  ES64L-G09RevD.01 24-Apr-2013

 --------------------
 #p B2PLYPD3/Def2QZVP
 --------------------

 --------
 methanol
 --------
 Symbolic Z-matrix:
 Charge =  0 Multiplicity = 1

                         Standard orientation:
 ---------------------------------------------------------------------
 Center     Atomic      Atomic             Coordinates (Angstroms)
 Number     Number       Type             X           Y           Z
 ---------------------------------------------------------------------
      1          6           0        0.651813    0.003733   -0.012050
      2          8           0       -0.742558   -0.138041    0.000145
      3          1           0        1.042488    0.497052    0.922072
      4          1           0        0.987337    0.611895   -0.845240
      5          1           0        1.140244   -0.871545   -0.037363
      6          1           0       -1.140488    0.844526    0.031670
 ---------------------------------------------------------------------

 SCF Done:  E(RB2PLYPD3) =  -115.535938238     A.U. after   11 cycles
 E2(B2PLYPD3) =    -0.1487143674D+00 E(B2PLYPD3) =    -0.11568465260503D+03

 The electronic state is 1-A.
 Alpha  occ. eigenvalues --  -19.73535 -10.64692  -1.15147  -0.78677  -0.57510
 Alpha  occ. eigenvalues --   -0.51819  -0.50877  -0.40885  -0.34794
 Alpha virt. eigenvalues --    0.04042   0.07911   0.12379   0.12932   0.14762
 Alpha virt. eigenvalues --    0.17888   0.18228   0.29120   0.30960   0.32985
 Alpha virt. eigenvalues --    0.34280   0.38939   0.40384   0.41934   0.43321

 Mulliken charges:
               1
     1  C    0.075829
     2  O   -0.471518
     3  H    0.031898
     4  H    0.038832
     5  H    0.072914
     6  H    0.252045
 Sum of Mulliken charges =   0.00000

 Dipole moment (field-independent basis, Debye):
    X=              0.8332    Y=              1.5267    Z=              0.0037  Tot=              1.7393
 Quadrupole moment (field-independent basis, Debye-Ang):
   XX=            -12.9886   YY=            -12.0998   ZZ=            -13.9431
   XY=             -2.5267   XZ=             -0.0910   YZ=             -0.0218

 Normal termination of Gaussian 09 at Wed Aug 26 11:27:17 2020.
