 Gaussian 09, Revision D.01,
 Gaussian 09:  ES64L-G09RevD.01 24-Apr-2013

 --------------------
 #p B2PLYPD3/Def2QZVP
 --------------------

 --------
 methanol
 --------
 Symbolic Z-matrix:
 Charge =  0 Multiplicity = 1

                         Standard orientation:
 ---------------------------------------------------------------------
 Center     Atomic      Atomic             Coordinates (Angstroms)
 Number     Number       Type             X           Y           Z
 ---------------------------------------------------------------------
      1          6           0        0.673710   -0.007517    0.002212
      2          8           0       -0.771360    0.083033   -0.004431
      3          1           0        1.140362   -0.621768   -0.861575
      4          1           0        1.052434   -0.495471    0.950314
      5          1           0        1.020947    1.098605   -0.059900
      6          1           0       -1.085120   -0.600532   -0.006664
 ---------------------------------------------------------------------

 SCF Done:  E(RB2PLYPD3) =  -115.478049040     A.U. after   11 cycles
 E2(B2PLYPD3) =    -0.1450765757D+00 E(B2PLYPD3) =    -0.11562312561611D+03

 The electronic state is 1-A.
 Alpha  occ. eigenvalues --  -19.70689 -10.68208  -1.21643  -0.79931  -0.61138
 Alpha  occ. eigenvalues --   -0.50590  -0.49203  -0.41904  -0.36080
 Alpha virt. eigenvalues --    0.05336   0.08730   0.11709   0.12080   0.14936
 Alpha virt. eigenvalues --    0.16838   0.17849   0.28846   0.31541   0.33351
 Alpha virt. eigenvalues --    0.36796   0.38162   0.39014   0.40261   0.41682

 Mulliken charges:
               1
     1  C    0.053366
     2  O   -0.306021
     3  H    0.049741
     4  H    0.055320
     5  H    0.077740
     6  H    0.069853
 Sum of Mulliken charges =   0.00000

 Dipole moment (field-independent basis, Debye):
    X=              1.0225    Y=             -1.3181    Z=              0.0198  Tot=              1.6684
 Quadrupole moment (field-independent basis, Debye-Ang):
   XX=            -13.1491   YY=            -12.3014   ZZ=            -13.8002
   XY=              1.8344   XZ=             -0.0423   YZ=             -0.0207

 Normal termination of Gaussian 09 at Wed Aug 26 11:09:35 2020.
