 Gaussian 09, Revision D.01,
 Gaussian 09:  ES64L-G09RevD.01 24-Apr-2013

 --------------------
 #p B2PLYPD3/Def2QZVP
 --------------------

 --------
 methanol
 --------
 Symbolic Z-matrix:
 Charge =  0 Multiplicity = 1

                         Standard orientation:
 ---------------------------------------------------------------------
 Center     Atomic      Atomic             Coordinates (Angstroms)
 Number     Number       Type             X           Y           Z
 ---------------------------------------------------------------------
      1          6           0       -0.648190   -0.003835    0.002484
      2          8           0        0.727838   -0.186696   -0.028138
      3          1           0       -1.072841    0.668501   -0.739495
      4          1           0       -0.921532    0.357431    0.827807
      5          1           0       -1.045379   -0.732483   -0.003791
      6          1           0        1.106190    1.223129    0.125681
 ---------------------------------------------------------------------

 SCF Done:  E(RB2PLYPD3) =  -115.356808856     A.U. after   12 cycles
 E2(B2PLYPD3) =    -0.1567131212D+00 E(B2PLYPD3) =    -0.11551352197696D+03

 The electronic state is 1-A.
 Alpha  occ. eigenvalues --  -19.75619 -10.60250  -1.13001  -0.82033  -0.56677
 Alpha  occ. eigenvalues --   -0.52562  -0.50149  -0.39362  -0.34826
 Alpha virt. eigenvalues --   -0.03024   0.07532   0.12616   0.13111   0.14709
 Alpha virt. eigenvalues --    0.17664   0.18683   0.21947   0.29614   0.32968
 Alpha virt. eigenvalues --    0.35341   0.37965   0.41394   0.41924   0.45613

 Mulliken charges:
               1
     1  C    0.027391
     2  O   -0.464528
     3  H    0.035136
     4  H    0.038895
     5  H    0.131649
     6  H    0.231458
 Sum of Mulliken charges =   0.00000

 Dipole moment (field-independent basis, Debye):
    X=             -1.1656    Y=              1.6670    Z=              0.3476  Tot=              2.0636
 Quadrupole moment (field-independent basis, Debye-Ang):
   XX=            -13.4460   YY=            -11.0245   ZZ=            -13.9245
   XY=              2.4010   XZ=              0.1198   YZ=              0.1853

 Normal termination of Gaussian 09 at Wed Aug 26 18:36:44 2020.
