 Gaussian 09, Revision D.01,
 Gaussian 09:  ES64L-G09RevD.01 24-Apr-2013

 --------------------
 #p B2PLYPD3/Def2QZVP
 --------------------

 --------
 methanol
 --------
 Symbolic Z-matrix:
 Charge =  0 Multiplicity = 1

                         Standard orientation:
 ---------------------------------------------------------------------
 Center     Atomic      Atomic             Coordinates (Angstroms)
 Number     Number       Type             X           Y           Z
 ---------------------------------------------------------------------
      1          6           0       -0.659936   -0.029619    0.014040
      2          8           0        0.744394    0.134765   -0.009019
      3          1           0       -1.024071   -0.464453    0.864978
      4          1           0       -1.042973   -0.587865   -0.852260
      5          1           0       -1.089582    0.970809   -0.059993
      6          1           0        1.161088   -0.818896    0.035183
 ---------------------------------------------------------------------

 SCF Done:  E(RB2PLYPD3) =  -115.542628305     A.U. after   10 cycles
 E2(B2PLYPD3) =    -0.1485536521D+00 E(B2PLYPD3) =    -0.11569118195684D+03

 The electronic state is 1-A.
 Alpha  occ. eigenvalues --  -19.73320 -10.64740  -1.14930  -0.78613  -0.57986
 Alpha  occ. eigenvalues --   -0.52168  -0.49472  -0.40785  -0.35384
 Alpha virt. eigenvalues --    0.04379   0.07954   0.12469   0.12579   0.14988
 Alpha virt. eigenvalues --    0.17347   0.18330   0.29060   0.31932   0.33551
 Alpha virt. eigenvalues --    0.34328   0.38479   0.39645   0.41823   0.44604

 Mulliken charges:
               1
     1  C    0.073519
     2  O   -0.474493
     3  H    0.052192
     4  H    0.042523
     5  H    0.063147
     6  H    0.243112
 Sum of Mulliken charges =   0.00000

 Dipole moment (field-independent basis, Debye):
    X=             -0.8530    Y=             -1.5912    Z=              0.1355  Tot=              1.8105
 Quadrupole moment (field-independent basis, Debye-Ang):
   XX=            -12.9437   YY=            -12.1477   ZZ=            -13.8356
   XY=             -2.3022   XZ=              0.0403   YZ=             -0.1155

 Normal termination of Gaussian 09 at Thu Aug 27 00:07:52 2020.
