 Gaussian 09, Revision D.01,
 Gaussian 09:  ES64L-G09RevD.01 24-Apr-2013

 --------------------
 #p B2PLYPD3/Def2QZVP
 --------------------

 --------
 methanol
 --------
 Symbolic Z-matrix:
 Charge =  0 Multiplicity = 1

                         Standard orientation:
 ---------------------------------------------------------------------
 Center     Atomic      Atomic             Coordinates (Angstroms)
 Number     Number       Type             X           Y           Z
 ---------------------------------------------------------------------
      1          6           0        0.653085    0.041480   -0.011981
      2          8           0       -0.737573   -0.149234    0.007013
      3          1           0        1.007675    0.565099    0.845309
      4          1           0        1.038159    0.479407   -0.823142
      5          1           0        1.122813   -0.964898    0.036159
      6          1           0       -1.186575    0.865386   -0.042546
 ---------------------------------------------------------------------

 SCF Done:  E(RB2PLYPD3) =  -115.526783534     A.U. after   11 cycles
 E2(B2PLYPD3) =    -0.1496361929D+00 E(B2PLYPD3) =    -0.11567641972711D+03

 The electronic state is 1-A.
 Alpha  occ. eigenvalues --  -19.73858 -10.64131  -1.14363  -0.78600  -0.57324
 Alpha  occ. eigenvalues --   -0.52707  -0.49278  -0.40232  -0.35371
 Alpha virt. eigenvalues --    0.03625   0.07745   0.12482   0.12736   0.15022
 Alpha virt. eigenvalues --    0.17494   0.18431   0.28569   0.29925   0.33587
 Alpha virt. eigenvalues --    0.34847   0.38005   0.39858   0.42397   0.44772

 Mulliken charges:
               1
     1  C    0.078101
     2  O   -0.478859
     3  H    0.044617
     4  H    0.049874
     5  H    0.055087
     6  H    0.251180
 Sum of Mulliken charges =   0.00000

 Dipole moment (field-independent basis, Debye):
    X=              0.8104    Y=              1.6821    Z=             -0.1323  Tot=              1.8718
 Quadrupole moment (field-independent basis, Debye-Ang):
   XX=            -12.8561   YY=            -12.1019   ZZ=            -13.8830
   XY=             -2.3432   XZ=              0.0147   YZ=             -0.1032

 Normal termination of Gaussian 09 at Wed Aug 26 11:16:43 2020.
