 Gaussian 09, Revision D.01,
 Gaussian 09:  ES64L-G09RevD.01 24-Apr-2013

 --------------------
 #p B2PLYPD3/Def2QZVP
 --------------------

 --------
 methanol
 --------
 Symbolic Z-matrix:
 Charge =  0 Multiplicity = 1

                         Standard orientation:
 ---------------------------------------------------------------------
 Center     Atomic      Atomic             Coordinates (Angstroms)
 Number     Number       Type             X           Y           Z
 ---------------------------------------------------------------------
      1          6           0        0.679895   -0.015616    0.008935
      2          8           0       -0.753293    0.101076   -0.009041
      3          1           0        1.030951   -0.646590   -0.874609
      4          1           0        1.019016   -0.469828    0.934870
      5          1           0        1.046780    1.037913   -0.086348
      6          1           0       -1.149773   -0.636406    0.044806
 ---------------------------------------------------------------------

 SCF Done:  E(RB2PLYPD3) =  -115.533319605     A.U. after   10 cycles
 E2(B2PLYPD3) =    -0.1455931675D+00 E(B2PLYPD3) =    -0.11567891277257D+03

 The electronic state is 1-A.
 Alpha  occ. eigenvalues --  -19.71033 -10.66861  -1.18311  -0.79655  -0.59935
 Alpha  occ. eigenvalues --   -0.51443  -0.49712  -0.41054  -0.35603
 Alpha virt. eigenvalues --    0.05369   0.08676   0.12095   0.12200   0.14746
 Alpha virt. eigenvalues --    0.16902   0.17813   0.29096   0.32463   0.33213
 Alpha virt. eigenvalues --    0.37681   0.38780   0.39477   0.40475   0.42736

 Mulliken charges:
               1
     1  C    0.068178
     2  O   -0.405140
     3  H    0.047286
     4  H    0.056703
     5  H    0.078109
     6  H    0.154865
 Sum of Mulliken charges =   0.00000

 Dipole moment (field-independent basis, Debye):
    X=              0.9138    Y=             -1.3732    Z=              0.1489  Tot=              1.6562
 Quadrupole moment (field-independent basis, Debye-Ang):
   XX=            -12.9847   YY=            -12.3388   ZZ=            -13.6817
   XY=              2.1020   XZ=             -0.0988   YZ=             -0.1136

 Normal termination of Gaussian 09 at Thu Aug 27 00:11:28 2020.
