 Gaussian 09, Revision D.01,
 Gaussian 09:  ES64L-G09RevD.01 24-Apr-2013

 --------------------
 #p B2PLYPD3/Def2QZVP
 --------------------

 --------
 methanol
 --------
 Symbolic Z-matrix:
 Charge =  0 Multiplicity = 1

                         Standard orientation:
 ---------------------------------------------------------------------
 Center     Atomic      Atomic             Coordinates (Angstroms)
 Number     Number       Type             X           Y           Z
 ---------------------------------------------------------------------
      1          6           0        0.661375   -0.010409   -0.006649
      2          8           0       -0.753487    0.099315    0.003850
      3          1           0        1.022883   -0.613089   -0.888437
      4          1           0        1.113231   -0.476400    0.954675
      5          1           0        1.039245    1.019145   -0.078037
      6          1           0       -1.115708   -0.661718    0.020896
 ---------------------------------------------------------------------

 SCF Done:  E(RB2PLYPD3) =  -115.534121939     A.U. after   10 cycles
 E2(B2PLYPD3) =    -0.1457519352D+00 E(B2PLYPD3) =    -0.11567987387431D+03

 The electronic state is 1-A.
 Alpha  occ. eigenvalues --  -19.71660 -10.67091  -1.19181  -0.79340  -0.60216
 Alpha  occ. eigenvalues --   -0.51063  -0.50142  -0.41325  -0.35573
 Alpha virt. eigenvalues --    0.05331   0.08548   0.12103   0.12267   0.14853
 Alpha virt. eigenvalues --    0.17024   0.18092   0.28931   0.32996   0.33401
 Alpha virt. eigenvalues --    0.36938   0.39009   0.39420   0.39848   0.42817

 Mulliken charges:
               1
     1  C    0.059067
     2  O   -0.389414
     3  H    0.047733
     4  H    0.044481
     5  H    0.077017
     6  H    0.161116
 Sum of Mulliken charges =   0.00000

 Dipole moment (field-independent basis, Debye):
    X=              0.8566    Y=             -1.3480    Z=             -0.0126  Tot=              1.5972
 Quadrupole moment (field-independent basis, Debye-Ang):
   XX=            -13.0722   YY=            -12.3792   ZZ=            -13.7844
   XY=              2.1021   XZ=             -0.0265   YZ=              0.0017

 Normal termination of Gaussian 09 at Wed Aug 26 22:07:32 2020.
