 Gaussian 09, Revision D.01,
 Gaussian 09:  ES64L-G09RevD.01 24-Apr-2013

 --------------------
 #p B2PLYPD3/Def2QZVP
 --------------------

 --------
 methanol
 --------
 Symbolic Z-matrix:
 Charge =  0 Multiplicity = 1

                         Standard orientation:
 ---------------------------------------------------------------------
 Center     Atomic      Atomic             Coordinates (Angstroms)
 Number     Number       Type             X           Y           Z
 ---------------------------------------------------------------------
      1          6           0        0.709708    0.004145    0.017139
      2          8           0       -0.756593   -0.167786   -0.024814
      3          1           0        1.025052    0.346459    0.845403
      4          1           0        0.980836    0.703128   -0.809562
      5          1           0        1.018705   -0.777547   -0.098767
      6          1           0       -1.230095    1.045380    0.158601
 ---------------------------------------------------------------------

 SCF Done:  E(RB2PLYPD3) =  -115.412466419     A.U. after   11 cycles
 E2(B2PLYPD3) =    -0.1544507926D+00 E(B2PLYPD3) =    -0.11556691721141D+03

 The electronic state is 1-A.
 Alpha  occ. eigenvalues --  -19.74512 -10.61738  -1.10180  -0.81699  -0.56803
 Alpha  occ. eigenvalues --   -0.51958  -0.48367  -0.40603  -0.34944
 Alpha virt. eigenvalues --    0.00577   0.07533   0.12404   0.12925   0.14377
 Alpha virt. eigenvalues --    0.17217   0.18280   0.24060   0.29128   0.31892
 Alpha virt. eigenvalues --    0.33580   0.37213   0.41369   0.42041   0.44989

 Mulliken charges:
               1
     1  C    0.034571
     2  O   -0.513725
     3  H    0.053477
     4  H    0.049586
     5  H    0.131686
     6  H    0.244405
 Sum of Mulliken charges =   0.00000

 Dipole moment (field-independent basis, Debye):
    X=              1.1800    Y=              1.6117    Z=              0.3591  Tot=              2.0295
 Quadrupole moment (field-independent basis, Debye-Ang):
   XX=            -12.9348   YY=            -11.5245   ZZ=            -13.7566
   XY=             -2.6078   XZ=             -0.1605   YZ=              0.2793

 Normal termination of Gaussian 09 at Wed Aug 26 22:22:17 2020.
