 Gaussian 09, Revision D.01,
 Gaussian 09:  ES64L-G09RevD.01 24-Apr-2013

 --------------------
 #p B2PLYPD3/Def2QZVP
 --------------------

 --------
 methanol
 --------
 Symbolic Z-matrix:
 Charge =  0 Multiplicity = 1

                         Standard orientation:
 ---------------------------------------------------------------------
 Center     Atomic      Atomic             Coordinates (Angstroms)
 Number     Number       Type             X           Y           Z
 ---------------------------------------------------------------------
      1          6           0        0.657168   -0.002209    0.001154
      2          8           0       -0.749173    0.054302   -0.021153
      3          1           0        1.187906   -0.925916   -0.686532
      4          1           0        1.075636   -0.213789    1.064208
      5          1           0        1.037276    1.120121   -0.319013
      6          1           0       -1.250443   -0.401577    0.103634
 ---------------------------------------------------------------------

 SCF Done:  E(RB2PLYPD3) =  -115.375666513     A.U. after   11 cycles
 E2(B2PLYPD3) =    -0.1450525219D+00 E(B2PLYPD3) =    -0.11552071903503D+03

 The electronic state is 1-A.
 Alpha  occ. eigenvalues --  -19.69725 -10.70828  -1.23893  -0.82711  -0.61828
 Alpha  occ. eigenvalues --   -0.49986  -0.49787  -0.38740  -0.35402
 Alpha virt. eigenvalues --    0.05004   0.08761   0.11189   0.11849   0.14689
 Alpha virt. eigenvalues --    0.16549   0.17870   0.29052   0.31575   0.32646
 Alpha virt. eigenvalues --    0.35132   0.35330   0.38392   0.39616   0.42219

 Mulliken charges:
               1
     1  C    0.050474
     2  O   -0.224658
     3  H    0.037504
     4  H    0.053929
     5  H    0.084440
     6  H   -0.001690
 Sum of Mulliken charges =   0.00000

 Dipole moment (field-independent basis, Debye):
    X=              0.5595    Y=             -0.9414    Z=              0.3872  Tot=              1.1616
 Quadrupole moment (field-independent basis, Debye-Ang):
   XX=            -12.3362   YY=            -12.8735   ZZ=            -13.9578
   XY=              1.6555   XZ=             -0.3607   YZ=             -0.2191

 Normal termination of Gaussian 09 at Wed Aug 26 23:16:47 2020.
