 Gaussian 09, Revision D.01,
 Gaussian 09:  ES64L-G09RevD.01 24-Apr-2013

 --------------------
 #p B2PLYPD3/Def2QZVP
 --------------------

 --------
 methanol
 --------
 Symbolic Z-matrix:
 Charge =  0 Multiplicity = 1

                         Standard orientation:
 ---------------------------------------------------------------------
 Center     Atomic      Atomic             Coordinates (Angstroms)
 Number     Number       Type             X           Y           Z
 ---------------------------------------------------------------------
      1          6           0        0.666009   -0.003763   -0.004603
      2          8           0       -0.750514    0.078518   -0.012738
      3          1           0        1.106720   -0.691215   -0.832732
      4          1           0        1.013115   -0.458226    0.986916
      5          1           0        0.995540    1.102278   -0.077825
      6          1           0       -1.107311   -0.558402    0.053162
 ---------------------------------------------------------------------

 SCF Done:  E(RB2PLYPD3) =  -115.459871031     A.U. after   10 cycles
 E2(B2PLYPD3) =    -0.1443873486D+00 E(B2PLYPD3) =    -0.11560425837918D+03

 The electronic state is 1-A.
 Alpha  occ. eigenvalues --  -19.70137 -10.68206  -1.22704  -0.80771  -0.61491
 Alpha  occ. eigenvalues --   -0.50827  -0.50010  -0.41256  -0.35665
 Alpha virt. eigenvalues --    0.05341   0.09043   0.11722   0.12052   0.14916
 Alpha virt. eigenvalues --    0.16625   0.17705   0.28945   0.32615   0.33160
 Alpha virt. eigenvalues --    0.37237   0.38000   0.38957   0.40396   0.42029

 Mulliken charges:
               1
     1  C    0.054015
     2  O   -0.278923
     3  H    0.047781
     4  H    0.046862
     5  H    0.081755
     6  H    0.048510
 Sum of Mulliken charges =   0.00000

 Dipole moment (field-independent basis, Debye):
    X=              0.8582    Y=             -1.2505    Z=              0.1538  Tot=              1.5244
 Quadrupole moment (field-independent basis, Debye-Ang):
   XX=            -13.1325   YY=            -12.3118   ZZ=            -13.7762
   XY=              1.8370   XZ=             -0.2374   YZ=             -0.0628

 Normal termination of Gaussian 09 at Wed Aug 26 14:18:43 2020.
