 Gaussian 09, Revision D.01,
 Gaussian 09:  ES64L-G09RevD.01 24-Apr-2013

 --------------------
 #p B2PLYPD3/Def2QZVP
 --------------------

 --------
 methanol
 --------
 Symbolic Z-matrix:
 Charge =  0 Multiplicity = 1

                         Standard orientation:
 ---------------------------------------------------------------------
 Center     Atomic      Atomic             Coordinates (Angstroms)
 Number     Number       Type             X           Y           Z
 ---------------------------------------------------------------------
      1          6           0       -0.655684    0.008760    0.003266
      2          8           0        0.739689   -0.142056   -0.009056
      3          1           0       -1.088351    0.591533   -0.828969
      4          1           0       -1.009513    0.457736    0.906594
      5          1           0       -1.049313   -0.876916   -0.048925
      6          1           0        1.163767    0.911532    0.024151
 ---------------------------------------------------------------------

 SCF Done:  E(RB2PLYPD3) =  -115.517809702     A.U. after   11 cycles
 E2(B2PLYPD3) =    -0.1500896632D+00 E(B2PLYPD3) =    -0.11566789936486D+03

 The electronic state is 1-A.
 Alpha  occ. eigenvalues --  -19.74007 -10.63754  -1.14110  -0.78914  -0.56872
 Alpha  occ. eigenvalues --   -0.51528  -0.50610  -0.40960  -0.34898
 Alpha virt. eigenvalues --    0.03242   0.07785   0.12550   0.12908   0.15003
 Alpha virt. eigenvalues --    0.17417   0.18411   0.28048   0.29721   0.33306
 Alpha virt. eigenvalues --    0.34819   0.38393   0.40667   0.41604   0.43477

 Mulliken charges:
               1
     1  C    0.073776
     2  O   -0.480387
     3  H    0.036351
     4  H    0.042347
     5  H    0.072313
     6  H    0.255600
 Sum of Mulliken charges =   0.00000

 Dipole moment (field-independent basis, Debye):
    X=             -0.8524    Y=              1.5629    Z=              0.0813  Tot=              1.7821
 Quadrupole moment (field-independent basis, Debye-Ang):
   XX=            -12.9840   YY=            -11.9183   ZZ=            -13.9243
   XY=              2.4744   XZ=              0.1025   YZ=              0.0638

 Normal termination of Gaussian 09 at Wed Aug 26 14:37:38 2020.
