 Gaussian 09, Revision D.01,
 Gaussian 09:  ES64L-G09RevD.01 24-Apr-2013

 --------------------
 #p B2PLYPD3/Def2QZVP
 --------------------

 --------
 methanol
 --------
 Symbolic Z-matrix:
 Charge =  0 Multiplicity = 1

                         Standard orientation:
 ---------------------------------------------------------------------
 Center     Atomic      Atomic             Coordinates (Angstroms)
 Number     Number       Type             X           Y           Z
 ---------------------------------------------------------------------
      1          6           0        0.660714   -0.020730    0.006037
      2          8           0       -0.743073    0.115244   -0.000047
      3          1           0        1.006327   -0.570900   -0.884590
      4          1           0        1.022205   -0.522486    0.887953
      5          1           0        1.054974    1.020394   -0.039361
      6          1           0       -1.103211   -0.724580    0.000153
 ---------------------------------------------------------------------

 SCF Done:  E(RB2PLYPD3) =  -115.550762380     A.U. after   10 cycles
 E2(B2PLYPD3) =    -0.1464115163D+00 E(B2PLYPD3) =    -0.11569717389650D+03

 The electronic state is 1-A.
 Alpha  occ. eigenvalues --  -19.72089 -10.65802  -1.17555  -0.78827  -0.59655
 Alpha  occ. eigenvalues --   -0.52088  -0.49696  -0.41250  -0.35453
 Alpha virt. eigenvalues --    0.05121   0.08545   0.12226   0.12366   0.14947
 Alpha virt. eigenvalues --    0.17171   0.17947   0.29120   0.33254   0.33724
 Alpha virt. eigenvalues --    0.36745   0.38292   0.39972   0.41124   0.43646

 Mulliken charges:
               1
     1  C    0.068192
     2  O   -0.435154
     3  H    0.044620
     4  H    0.050449
     5  H    0.068684
     6  H    0.203210
 Sum of Mulliken charges =   0.00000

 Dipole moment (field-independent basis, Debye):
    X=              0.8728    Y=             -1.4900    Z=              0.0181  Tot=              1.7269
 Quadrupole moment (field-independent basis, Debye-Ang):
   XX=            -13.2115   YY=            -12.1842   ZZ=            -13.7469
   XY=              2.1212   XZ=              0.0322   YZ=             -0.0389

 Normal termination of Gaussian 09 at Wed Aug 26 23:04:24 2020.
