 Gaussian 09, Revision D.01,
 Gaussian 09:  ES64L-G09RevD.01 24-Apr-2013

 --------------------
 #p B2PLYPD3/Def2QZVP
 --------------------

 --------
 methanol
 --------
 Symbolic Z-matrix:
 Charge =  0 Multiplicity = 1

                         Standard orientation:
 ---------------------------------------------------------------------
 Center     Atomic      Atomic             Coordinates (Angstroms)
 Number     Number       Type             X           Y           Z
 ---------------------------------------------------------------------
      1          6           0        0.660682    0.022681   -0.009963
      2          8           0       -0.746727   -0.161639   -0.000239
      3          1           0        1.038027    0.498500    0.832268
      4          1           0        0.941092    0.611366   -0.785992
      5          1           0        1.198358   -0.884682   -0.028809
      6          1           0       -1.167749    0.931839    0.044218
 ---------------------------------------------------------------------

 SCF Done:  E(RB2PLYPD3) =  -115.511886467     A.U. after   11 cycles
 E2(B2PLYPD3) =    -0.1508268938D+00 E(B2PLYPD3) =    -0.11566271336054D+03

 The electronic state is 1-A.
 Alpha  occ. eigenvalues --  -19.74166 -10.63462  -1.13155  -0.79091  -0.56166
 Alpha  occ. eigenvalues --   -0.52383  -0.49676  -0.40702  -0.35030
 Alpha virt. eigenvalues --    0.02696   0.07628   0.12654   0.12865   0.14757
 Alpha virt. eigenvalues --    0.17865   0.18388   0.26983   0.29730   0.33178
 Alpha virt. eigenvalues --    0.33976   0.39706   0.39992   0.42321   0.43249

 Mulliken charges:
               1
     1  C    0.095373
     2  O   -0.492120
     3  H    0.037681
     4  H    0.040985
     5  H    0.062481
     6  H    0.255601
 Sum of Mulliken charges =   0.00000

 Dipole moment (field-independent basis, Debye):
    X=              0.9604    Y=              1.7247    Z=              0.0606  Tot=              1.9750
 Quadrupole moment (field-independent basis, Debye-Ang):
   XX=            -12.8990   YY=            -11.8354   ZZ=            -14.0042
   XY=             -2.4950   XZ=             -0.0200   YZ=             -0.0048

 Normal termination of Gaussian 09 at Wed Aug 26 14:23:36 2020.
