 Gaussian 09, Revision D.01,
 Gaussian 09:  ES64L-G09RevD.01 24-Apr-2013

 --------------------
 #p B2PLYPD3/Def2QZVP
 --------------------

 --------
 methanol
 --------
 Symbolic Z-matrix:
 Charge =  0 Multiplicity = 1

                         Standard orientation:
 ---------------------------------------------------------------------
 Center     Atomic      Atomic             Coordinates (Angstroms)
 Number     Number       Type             X           Y           Z
 ---------------------------------------------------------------------
      1          6           0        0.646797   -0.012846   -0.005533
      2          8           0       -0.742149    0.088608    0.007733
      3          1           0        1.031242   -0.540449   -0.970226
      4          1           0        1.016092   -0.584054    0.979480
      5          1           0        1.112780    1.024383    0.013906
      6          1           0       -1.103703   -0.531674   -0.051832
 ---------------------------------------------------------------------

 SCF Done:  E(RB2PLYPD3) =  -115.445395379     A.U. after   11 cycles
 E2(B2PLYPD3) =    -0.1440319997D+00 E(B2PLYPD3) =    -0.11558942737834D+03

 The electronic state is 1-A.
 Alpha  occ. eigenvalues --  -19.70287 -10.68428  -1.24083  -0.81181  -0.61620
 Alpha  occ. eigenvalues --   -0.51474  -0.51113  -0.40346  -0.35688
 Alpha virt. eigenvalues --    0.05359   0.09100   0.11721   0.12244   0.14362
 Alpha virt. eigenvalues --    0.17178   0.17903   0.28526   0.32561   0.33897
 Alpha virt. eigenvalues --    0.36257   0.38430   0.38903   0.40590   0.42853

 Mulliken charges:
               1
     1  C    0.049007
     2  O   -0.255252
     3  H    0.044963
     4  H    0.040980
     5  H    0.079838
     6  H    0.040464
 Sum of Mulliken charges =   0.00000

 Dipole moment (field-independent basis, Debye):
    X=              0.7592    Y=             -1.1622    Z=             -0.1619  Tot=              1.3977
 Quadrupole moment (field-independent basis, Debye-Ang):
   XX=            -13.0375   YY=            -12.7201   ZZ=            -13.5962
   XY=              2.0834   XZ=              0.0977   YZ=              0.1025

 Normal termination of Gaussian 09 at Wed Aug 26 16:11:58 2020.
