 Gaussian 09, Revision D.01,
 Gaussian 09:  ES64L-G09RevD.01 24-Apr-2013

 --------------------
 #p B2PLYPD3/Def2QZVP
 --------------------

 --------
 methanol
 --------
 Symbolic Z-matrix:
 Charge =  0 Multiplicity = 1

                         Standard orientation:
 ---------------------------------------------------------------------
 Center     Atomic      Atomic             Coordinates (Angstroms)
 Number     Number       Type             X           Y           Z
 ---------------------------------------------------------------------
      1          6           0       -0.686630   -0.002527    0.016365
      2          8           0        0.759265    0.102682   -0.012550
      3          1           0       -0.995366   -0.458847    0.956031
      4          1           0       -1.001637   -0.657955   -0.908436
      5          1           0       -1.054223    0.971804   -0.109299
      6          1           0        1.096887   -0.661295    0.063911
 ---------------------------------------------------------------------

 SCF Done:  E(RB2PLYPD3) =  -115.530259846     A.U. after   10 cycles
 E2(B2PLYPD3) =    -0.1456931379D+00 E(B2PLYPD3) =    -0.11567595298435D+03

 The electronic state is 1-A.
 Alpha  occ. eigenvalues --  -19.71001 -10.66594  -1.18218  -0.79828  -0.59311
 Alpha  occ. eigenvalues --   -0.51522  -0.50510  -0.41600  -0.35443
 Alpha virt. eigenvalues --    0.05323   0.08727   0.11844   0.12453   0.14420
 Alpha virt. eigenvalues --    0.17097   0.17740   0.29034   0.31704   0.32973
 Alpha virt. eigenvalues --    0.36731   0.39265   0.40211   0.40816   0.43765

 Mulliken charges:
               1
     1  C    0.071856
     2  O   -0.407435
     3  H    0.056391
     4  H    0.040944
     5  H    0.084067
     6  H    0.154177
 Sum of Mulliken charges =   0.00000

 Dipole moment (field-independent basis, Debye):
    X=             -1.0470    Y=             -1.3236    Z=              0.2106  Tot=              1.7008
 Quadrupole moment (field-independent basis, Debye-Ang):
   XX=            -13.2602   YY=            -12.2855   ZZ=            -13.5650
   XY=             -2.1973   XZ=              0.1209   YZ=             -0.2040

 Normal termination of Gaussian 09 at Wed Aug 26 16:27:56 2020.
