 Gaussian 09, Revision D.01,
 Gaussian 09:  ES64L-G09RevD.01 24-Apr-2013

 --------------------
 #p B2PLYPD3/Def2QZVP
 --------------------

 --------
 methanol
 --------
 Symbolic Z-matrix:
 Charge =  0 Multiplicity = 1

                         Standard orientation:
 ---------------------------------------------------------------------
 Center     Atomic      Atomic             Coordinates (Angstroms)
 Number     Number       Type             X           Y           Z
 ---------------------------------------------------------------------
      1          6           0        0.642449    0.014339   -0.026057
      2          8           0       -0.720059   -0.202559    0.025249
      3          1           0        1.045423    0.624999    0.820511
      4          1           0        1.002963    0.432021   -0.767747
      5          1           0        1.153950   -0.689570    0.012458
      6          1           0       -1.296557    1.166987   -0.110873
 ---------------------------------------------------------------------

 SCF Done:  E(RB2PLYPD3) =  -115.368435319     A.U. after   13 cycles
 E2(B2PLYPD3) =    -0.1570179709D+00 E(B2PLYPD3) =    -0.11552545328953D+03

 The electronic state is 1-A.
 Alpha  occ. eigenvalues --  -19.75902 -10.60804  -1.12949  -0.82125  -0.55177
 Alpha  occ. eigenvalues --   -0.52015  -0.50920  -0.38650  -0.34700
 Alpha virt. eigenvalues --   -0.03649   0.07290   0.12939   0.13191   0.14779
 Alpha virt. eigenvalues --    0.18355   0.18669   0.21227   0.29711   0.32997
 Alpha virt. eigenvalues --    0.35469   0.37985   0.40363   0.42591   0.45502

 Mulliken charges:
               1
     1  C    0.062364
     2  O   -0.462248
     3  H    0.028659
     4  H    0.042076
     5  H    0.089004
     6  H    0.240145
 Sum of Mulliken charges =   0.00000

 Dipole moment (field-independent basis, Debye):
    X=              0.8742    Y=              1.6685    Z=             -0.3624  Tot=              1.9182
 Quadrupole moment (field-independent basis, Debye-Ang):
   XX=            -12.5180   YY=            -11.5510   ZZ=            -14.0551
   XY=             -2.8558   XZ=              0.0183   YZ=             -0.2549

 Normal termination of Gaussian 09 at Wed Aug 26 18:47:01 2020.
