 Gaussian 09, Revision D.01,
 Gaussian 09:  ES64L-G09RevD.01 24-Apr-2013

 --------------------
 #p B2PLYPD3/Def2QZVP
 --------------------

 --------
 methanol
 --------
 Symbolic Z-matrix:
 Charge =  0 Multiplicity = 1

                         Standard orientation:
 ---------------------------------------------------------------------
 Center     Atomic      Atomic             Coordinates (Angstroms)
 Number     Number       Type             X           Y           Z
 ---------------------------------------------------------------------
      1          6           0       -0.651379   -0.052452   -0.022850
      2          8           0        0.727411    0.082771   -0.005348
      3          1           0       -0.914526   -0.647629    0.937788
      4          1           0       -1.039962   -0.462115   -0.921416
      5          1           0       -1.095161    1.176244    0.154429
      6          1           0        1.138640   -0.413951    0.009078
 ---------------------------------------------------------------------

 SCF Done:  E(RB2PLYPD3) =  -115.308244343     A.U. after   11 cycles
 E2(B2PLYPD3) =    -0.1434259750D+00 E(B2PLYPD3) =    -0.11545167031753D+03

 The electronic state is 1-A.
 Alpha  occ. eigenvalues --  -19.68880 -10.68959  -1.26823  -0.83544  -0.63000
 Alpha  occ. eigenvalues --   -0.53481  -0.49180  -0.38302  -0.36483
 Alpha virt. eigenvalues --    0.05007   0.09493   0.10988   0.12033   0.14455
 Alpha virt. eigenvalues --    0.16687   0.17868   0.28599   0.32154   0.32925
 Alpha virt. eigenvalues --    0.34176   0.38447   0.40779   0.41417   0.42867

 Mulliken charges:
               1
     1  C    0.044298
     2  O   -0.178461
     3  H    0.048380
     4  H    0.073864
     5  H    0.052839
     6  H   -0.040919
 Sum of Mulliken charges =   0.00000

 Dipole moment (field-independent basis, Debye):
    X=             -0.6314    Y=             -1.2815    Z=             -0.0568  Tot=              1.4297
 Quadrupole moment (field-independent basis, Debye-Ang):
   XX=            -12.9310   YY=            -12.8630   ZZ=            -13.3664
   XY=             -1.6285   XZ=              0.2654   YZ=              0.0937

 Normal termination of Gaussian 09 at Wed Aug 26 20:56:31 2020.
