 Gaussian 09, Revision D.01,
 Gaussian 09:  ES64L-G09RevD.01 24-Apr-2013

 --------------------
 #p B2PLYPD3/Def2QZVP
 --------------------

 --------
 methanol
 --------
 Symbolic Z-matrix:
 Charge =  0 Multiplicity = 1

                         Standard orientation:
 ---------------------------------------------------------------------
 Center     Atomic      Atomic             Coordinates (Angstroms)
 Number     Number       Type             X           Y           Z
 ---------------------------------------------------------------------
      1          6           0        0.640651   -0.023072   -0.008127
      2          8           0       -0.743772    0.096346    0.006460
      3          1           0        1.005333   -0.573177   -0.891189
      4          1           0        1.040795   -0.571316    0.913796
      5          1           0        1.121137    1.088940   -0.005743
      6          1           0       -1.060996   -0.576788   -0.019776
 ---------------------------------------------------------------------

 SCF Done:  E(RB2PLYPD3) =  -115.471000656     A.U. after   10 cycles
 E2(B2PLYPD3) =    -0.1442066031D+00 E(B2PLYPD3) =    -0.11561520725881D+03

 The electronic state is 1-A.
 Alpha  occ. eigenvalues --  -19.70748 -10.67758  -1.23701  -0.80322  -0.62329
 Alpha  occ. eigenvalues --   -0.52036  -0.50084  -0.40858  -0.35908
 Alpha virt. eigenvalues --    0.05309   0.09083   0.11726   0.12199   0.14894
 Alpha virt. eigenvalues --    0.17266   0.17738   0.28709   0.32973   0.33968
 Alpha virt. eigenvalues --    0.35765   0.38707   0.40013   0.40550   0.42677

 Mulliken charges:
               1
     1  C    0.054181
     2  O   -0.277156
     3  H    0.050566
     4  H    0.043833
     5  H    0.063587
     6  H    0.064989
 Sum of Mulliken charges =   0.00000

 Dipole moment (field-independent basis, Debye):
    X=              0.8121    Y=             -1.3600    Z=             -0.0959  Tot=              1.5869
 Quadrupole moment (field-independent basis, Debye-Ang):
   XX=            -13.2059   YY=            -12.4571   ZZ=            -13.7329
   XY=              1.8969   XZ=              0.0423   YZ=              0.0785

 Normal termination of Gaussian 09 at Wed Aug 26 16:10:16 2020.
