 Gaussian 09, Revision D.01,
 Gaussian 09:  ES64L-G09RevD.01 24-Apr-2013

 --------------------
 #p B2PLYPD3/Def2QZVP
 --------------------

 --------
 methanol
 --------
 Symbolic Z-matrix:
 Charge =  0 Multiplicity = 1

                         Standard orientation:
 ---------------------------------------------------------------------
 Center     Atomic      Atomic             Coordinates (Angstroms)
 Number     Number       Type             X           Y           Z
 ---------------------------------------------------------------------
      1          6           0        0.668134   -0.013012   -0.001195
      2          8           0       -0.776565   -0.020202    0.034906
      3          1           0        1.146472    1.276864   -0.107409
      4          1           0        1.096973   -0.715537   -0.918012
      5          1           0        1.128707   -0.491096    0.971663
      6          1           0       -1.168441    0.169457   -0.218325
 ---------------------------------------------------------------------

 SCF Done:  E(RB2PLYPD3) =  -114.753122199     A.U. after   12 cycles
 E2(B2PLYPD3) =    -0.1450425867D+00 E(B2PLYPD3) =    -0.11489816478609D+03

 The electronic state is 1-A.
 Alpha  occ. eigenvalues --  -19.68777 -10.73321  -1.32194  -0.85551  -0.62274
 Alpha  occ. eigenvalues --   -0.50566  -0.49468  -0.38484  -0.36266
 Alpha virt. eigenvalues --    0.04196   0.09400   0.10028   0.11549   0.13526
 Alpha virt. eigenvalues --    0.16738   0.17912   0.28117   0.29379   0.30153
 Alpha virt. eigenvalues --    0.32741   0.35341   0.35689   0.41703   0.42376

 Mulliken charges:
               1
     1  C    0.057150
     2  O   -0.081721
     3  H    0.037497
     4  H    0.065913
     5  H    0.103126
     6  H   -0.181963
 Sum of Mulliken charges =   0.00000

 Dipole moment (field-independent basis, Debye):
    X=              0.9722    Y=              0.2764    Z=             -0.5887  Tot=              1.1696
 Quadrupole moment (field-independent basis, Debye-Ang):
   XX=            -12.4839   YY=            -13.2602   ZZ=            -13.2943
   XY=             -1.1485   XZ=              1.3567   YZ=             -0.2075

 Normal termination of Gaussian 09 at Wed Aug 26 23:51:10 2020.
