 Gaussian 09, Revision D.01,
 Gaussian 09:  ES64L-G09RevD.01 24-Apr-2013

 --------------------
 #p B2PLYPD3/Def2QZVP
 --------------------

 --------
 methanol
 --------
 Symbolic Z-matrix:
 Charge =  0 Multiplicity = 1

                         Standard orientation:
 ---------------------------------------------------------------------
 Center     Atomic      Atomic             Coordinates (Angstroms)
 Number     Number       Type             X           Y           Z
 ---------------------------------------------------------------------
      1          6           0        0.661815    0.013594    0.005384
      2          8           0       -0.744987   -0.154132   -0.005616
      3          1           0        1.034789    0.452936    0.872426
      4          1           0        0.977699    0.594454   -0.849292
      5          1           0        1.106893   -0.851399   -0.062199
      6          1           0       -1.130379    0.955497    0.051691
 ---------------------------------------------------------------------

 SCF Done:  E(RB2PLYPD3) =  -115.508032009     A.U. after   11 cycles
 E2(B2PLYPD3) =    -0.1509273516D+00 E(B2PLYPD3) =    -0.11565895936016D+03

 The electronic state is 1-A.
 Alpha  occ. eigenvalues --  -19.74159 -10.63312  -1.13276  -0.79180  -0.56048
 Alpha  occ. eigenvalues --   -0.52169  -0.50274  -0.40819  -0.35029
 Alpha virt. eigenvalues --    0.02679   0.07768   0.12495   0.12928   0.14673
 Alpha virt. eigenvalues --    0.17844   0.18303   0.26964   0.29535   0.33189
 Alpha virt. eigenvalues --    0.34183   0.38859   0.41336   0.42083   0.43295

 Mulliken charges:
               1
     1  C    0.085367
     2  O   -0.488144
     3  H    0.042733
     4  H    0.038492
     5  H    0.066335
     6  H    0.255217
 Sum of Mulliken charges =   0.00000

 Dipole moment (field-independent basis, Debye):
    X=              0.9978    Y=              1.6193    Z=              0.1117  Tot=              1.9053
 Quadrupole moment (field-independent basis, Debye-Ang):
   XX=            -13.1546   YY=            -11.8196   ZZ=            -13.8414
   XY=             -2.4937   XZ=             -0.0376   YZ=              0.0988

 Normal termination of Gaussian 09 at Wed Aug 26 13:47:07 2020.
