 Gaussian 09, Revision D.01,
 Gaussian 09:  ES64L-G09RevD.01 24-Apr-2013

 --------------------
 #p B2PLYPD3/Def2QZVP
 --------------------

 --------
 methanol
 --------
 Symbolic Z-matrix:
 Charge =  0 Multiplicity = 1

                         Standard orientation:
 ---------------------------------------------------------------------
 Center     Atomic      Atomic             Coordinates (Angstroms)
 Number     Number       Type             X           Y           Z
 ---------------------------------------------------------------------
      1          6           0        0.665510   -0.016981   -0.002809
      2          8           0       -0.747244    0.097161   -0.003836
      3          1           0        0.994328   -0.673734   -0.867497
      4          1           0        1.091741   -0.416749    0.974071
      5          1           0        1.036801    1.032693   -0.128635
      6          1           0       -1.137975   -0.617611    0.069598
 ---------------------------------------------------------------------

 SCF Done:  E(RB2PLYPD3) =  -115.524477130     A.U. after   10 cycles
 E2(B2PLYPD3) =    -0.1452488864D+00 E(B2PLYPD3) =    -0.11566972601637D+03

 The electronic state is 1-A.
 Alpha  occ. eigenvalues --  -19.71076 -10.67225  -1.19697  -0.79753  -0.60414
 Alpha  occ. eigenvalues --   -0.51500  -0.49977  -0.40831  -0.35628
 Alpha virt. eigenvalues --    0.05388   0.08727   0.12085   0.12194   0.14740
 Alpha virt. eigenvalues --    0.16888   0.18023   0.28960   0.32854   0.33530
 Alpha virt. eigenvalues --    0.37295   0.38987   0.39749   0.39811   0.42604

 Mulliken charges:
               1
     1  C    0.058831
     2  O   -0.371743
     3  H    0.048986
     4  H    0.049632
     5  H    0.076458
     6  H    0.137835
 Sum of Mulliken charges =   0.00000

 Dipole moment (field-independent basis, Debye):
    X=              0.8202    Y=             -1.3226    Z=              0.1277  Tot=              1.5615
 Quadrupole moment (field-independent basis, Debye-Ang):
   XX=            -12.9987   YY=            -12.4562   ZZ=            -13.6843
   XY=              2.0782   XZ=             -0.1300   YZ=             -0.0776

 Normal termination of Gaussian 09 at Wed Aug 26 14:29:51 2020.
