 Gaussian 09, Revision D.01,
 Gaussian 09:  ES64L-G09RevD.01 24-Apr-2013

 --------------------
 #p B2PLYPD3/Def2QZVP
 --------------------

 --------
 methanol
 --------
 Symbolic Z-matrix:
 Charge =  0 Multiplicity = 1

                         Standard orientation:
 ---------------------------------------------------------------------
 Center     Atomic      Atomic             Coordinates (Angstroms)
 Number     Number       Type             X           Y           Z
 ---------------------------------------------------------------------
      1          6           0        0.660170    0.048822   -0.000016
      2          8           0       -0.741232   -0.209227   -0.015161
      3          1           0        1.008217    0.342683    0.724888
      4          1           0        0.956996    0.693412   -0.651403
      5          1           0        1.194122   -0.852416   -0.058823
      6          1           0       -1.190498    1.197205    0.106724
 ---------------------------------------------------------------------

 SCF Done:  E(RB2PLYPD3) =  -115.372344755     A.U. after   12 cycles
 E2(B2PLYPD3) =    -0.1575176890D+00 E(B2PLYPD3) =    -0.11552986244353D+03

 The electronic state is 1-A.
 Alpha  occ. eigenvalues --  -19.75993 -10.60714  -1.11535  -0.82509  -0.54927
 Alpha  occ. eigenvalues --   -0.53731  -0.48647  -0.38981  -0.35616
 Alpha virt. eigenvalues --   -0.03129   0.07304   0.12333   0.13295   0.14711
 Alpha virt. eigenvalues --    0.17562   0.18847   0.21340   0.29649   0.33332
 Alpha virt. eigenvalues --    0.34327   0.37817   0.39400   0.43485   0.45263

 Mulliken charges:
               1
     1  C    0.080610
     2  O   -0.470240
     3  H    0.086099
     4  H    0.036670
     5  H    0.045587
     6  H    0.221273
 Sum of Mulliken charges =   0.00000

 Dipole moment (field-independent basis, Debye):
    X=              1.2184    Y=              1.8662    Z=              0.2781  Tot=              2.2460
 Quadrupole moment (field-independent basis, Debye-Ang):
   XX=            -13.0672   YY=            -11.1623   ZZ=            -14.1090
   XY=             -2.3182   XZ=              0.0412   YZ=              0.0751

 Normal termination of Gaussian 09 at Wed Aug 26 23:48:45 2020.
