 Gaussian 09, Revision D.01,
 Gaussian 09:  ES64L-G09RevD.01 24-Apr-2013

 --------------------
 #p B2PLYPD3/Def2QZVP
 --------------------

 --------
 methanol
 --------
 Symbolic Z-matrix:
 Charge =  0 Multiplicity = 1

                         Standard orientation:
 ---------------------------------------------------------------------
 Center     Atomic      Atomic             Coordinates (Angstroms)
 Number     Number       Type             X           Y           Z
 ---------------------------------------------------------------------
      1          6           0        0.662206   -0.014666    0.003866
      2          8           0       -0.753877    0.103498   -0.015339
      3          1           0        1.026446   -0.711905   -0.841259
      4          1           0        1.031182   -0.375121    1.000493
      5          1           0        1.114102    0.981395   -0.153757
      6          1           0       -1.113955   -0.634355    0.094038
 ---------------------------------------------------------------------

 SCF Done:  E(RB2PLYPD3) =  -115.529378480     A.U. after   10 cycles
 E2(B2PLYPD3) =    -0.1454311734D+00 E(B2PLYPD3) =    -0.11567480965312D+03

 The electronic state is 1-A.
 Alpha  occ. eigenvalues --  -19.71382 -10.67117  -1.19514  -0.79522  -0.60181
 Alpha  occ. eigenvalues --   -0.51423  -0.50451  -0.40958  -0.35688
 Alpha virt. eigenvalues --    0.05366   0.08659   0.11987   0.12425   0.14522
 Alpha virt. eigenvalues --    0.17333   0.18033   0.28883   0.32984   0.33139
 Alpha virt. eigenvalues --    0.36762   0.39278   0.39474   0.39983   0.43319

 Mulliken charges:
               1
     1  C    0.062611
     2  O   -0.381944
     3  H    0.044370
     4  H    0.050198
     5  H    0.075779
     6  H    0.148985
 Sum of Mulliken charges =   0.00000

 Dipole moment (field-independent basis, Debye):
    X=              0.8961    Y=             -1.3163    Z=              0.2258  Tot=              1.6083
 Quadrupole moment (field-independent basis, Debye-Ang):
   XX=            -13.0302   YY=            -12.5163   ZZ=            -13.6568
   XY=              2.1765   XZ=             -0.2763   YZ=             -0.1418

 Normal termination of Gaussian 09 at Thu Aug 27 00:13:43 2020.
