 Gaussian 09, Revision D.01,
 Gaussian 09:  ES64L-G09RevD.01 24-Apr-2013

 --------------------
 #p B2PLYPD3/Def2QZVP
 --------------------

 --------
 methanol
 --------
 Symbolic Z-matrix:
 Charge =  0 Multiplicity = 1

                         Standard orientation:
 ---------------------------------------------------------------------
 Center     Atomic      Atomic             Coordinates (Angstroms)
 Number     Number       Type             X           Y           Z
 ---------------------------------------------------------------------
      1          6           0        0.669155    0.022908   -0.009982
      2          8           0       -0.751309   -0.158027    0.011291
      3          1           0        1.150711    0.536787    0.818718
      4          1           0        1.009364    0.534055   -0.814191
      5          1           0        1.099048   -0.900634   -0.023926
      6          1           0       -1.263582    0.956563   -0.011036
 ---------------------------------------------------------------------

 SCF Done:  E(RB2PLYPD3) =  -115.498326058     A.U. after   11 cycles
 E2(B2PLYPD3) =    -0.1523189273D+00 E(B2PLYPD3) =    -0.11565064498497D+03

 The electronic state is 1-A.
 Alpha  occ. eigenvalues --  -19.74681 -10.63689  -1.12179  -0.79116  -0.55785
 Alpha  occ. eigenvalues --   -0.51106  -0.49378  -0.40569  -0.35083
 Alpha virt. eigenvalues --    0.01935   0.07374   0.12623   0.12935   0.14996
 Alpha virt. eigenvalues --    0.17402   0.18480   0.25615   0.29480   0.33291
 Alpha virt. eigenvalues --    0.34107   0.38830   0.39491   0.41339   0.43913

 Mulliken charges:
               1
     1  C    0.084652
     2  O   -0.494626
     3  H    0.040264
     4  H    0.046565
     5  H    0.066882
     6  H    0.256262
 Sum of Mulliken charges =   0.00000

 Dipole moment (field-independent basis, Debye):
    X=              0.8743    Y=              1.6704    Z=             -0.1108  Tot=              1.8886
 Quadrupole moment (field-independent basis, Debye-Ang):
   XX=            -12.5300   YY=            -11.8821   ZZ=            -14.1325
   XY=             -2.5469   XZ=              0.0501   YZ=             -0.0783

 Normal termination of Gaussian 09 at Wed Aug 26 14:27:08 2020.
