 Gaussian 09, Revision D.01,
 Gaussian 09:  ES64L-G09RevD.01 24-Apr-2013

 --------------------
 #p B2PLYPD3/Def2QZVP
 --------------------

 --------
 methanol
 --------
 Symbolic Z-matrix:
 Charge =  0 Multiplicity = 1

                         Standard orientation:
 ---------------------------------------------------------------------
 Center     Atomic      Atomic             Coordinates (Angstroms)
 Number     Number       Type             X           Y           Z
 ---------------------------------------------------------------------
      1          6           0        0.674339    0.022096    0.006382
      2          8           0       -0.738450   -0.159641   -0.004706
      3          1           0        1.083094    0.433962    0.810303
      4          1           0        0.989489    0.642025   -0.776713
      5          1           0        1.014099   -0.917194   -0.091393
      6          1           0       -1.225111    0.985761    0.057160
 ---------------------------------------------------------------------

 SCF Done:  E(RB2PLYPD3) =  -115.488926383     A.U. after   11 cycles
 E2(B2PLYPD3) =    -0.1523767440D+00 E(B2PLYPD3) =    -0.11564130312707D+03

 The electronic state is 1-A.
 Alpha  occ. eigenvalues --  -19.74413 -10.62731  -1.12296  -0.79360  -0.56660
 Alpha  occ. eigenvalues --   -0.52022  -0.48794  -0.40722  -0.34970
 Alpha virt. eigenvalues --    0.01692   0.07661   0.12479   0.12993   0.15100
 Alpha virt. eigenvalues --    0.17056   0.18238   0.25370   0.29557   0.33304
 Alpha virt. eigenvalues --    0.34487   0.38564   0.39477   0.42545   0.45086

 Mulliken charges:
               1
     1  C    0.091792
     2  O   -0.492967
     3  H    0.045270
     4  H    0.039059
     5  H    0.069546
     6  H    0.247300
 Sum of Mulliken charges =   0.00000

 Dipole moment (field-independent basis, Debye):
    X=              0.9535    Y=              1.6877    Z=              0.1278  Tot=              1.9426
 Quadrupole moment (field-independent basis, Debye-Ang):
   XX=            -12.8831   YY=            -11.5996   ZZ=            -14.0285
   XY=             -2.3907   XZ=              0.0054   YZ=              0.1088

 Normal termination of Gaussian 09 at Wed Aug 26 12:25:45 2020.
