 Gaussian 09, Revision D.01,
 Gaussian 09:  ES64L-G09RevD.01 24-Apr-2013

 --------------------
 #p B2PLYPD3/Def2QZVP
 --------------------

 --------
 methanol
 --------
 Symbolic Z-matrix:
 Charge =  0 Multiplicity = 1

                         Standard orientation:
 ---------------------------------------------------------------------
 Center     Atomic      Atomic             Coordinates (Angstroms)
 Number     Number       Type             X           Y           Z
 ---------------------------------------------------------------------
      1          6           0       -0.673838    0.019268   -0.002807
      2          8           0        0.739097   -0.140730   -0.004012
      3          1           0       -1.098597    0.537284   -0.795243
      4          1           0       -0.971189    0.542785    0.844525
      5          1           0       -0.987203   -0.970514    0.018709
      6          1           0        1.187237    0.900676   -0.019051
 ---------------------------------------------------------------------

 SCF Done:  E(RB2PLYPD3) =  -115.522211597     A.U. after   11 cycles
 E2(B2PLYPD3) =    -0.1502285216D+00 E(B2PLYPD3) =    -0.11567244011837D+03

 The electronic state is 1-A.
 Alpha  occ. eigenvalues --  -19.73663 -10.63606  -1.13356  -0.78814  -0.57580
 Alpha  occ. eigenvalues --   -0.51954  -0.48840  -0.41187  -0.34983
 Alpha virt. eigenvalues --    0.03401   0.07880   0.12342   0.12860   0.15202
 Alpha virt. eigenvalues --    0.16911   0.18130   0.28443   0.29928   0.33216
 Alpha virt. eigenvalues --    0.34488   0.38932   0.39165   0.42126   0.44655

 Mulliken charges:
               1
     1  C    0.080374
     2  O   -0.488917
     3  H    0.045204
     4  H    0.044531
     5  H    0.071752
     6  H    0.247055
 Sum of Mulliken charges =   0.00000

 Dipole moment (field-independent basis, Debye):
    X=             -0.9079    Y=              1.6472    Z=             -0.0164  Tot=              1.8810
 Quadrupole moment (field-independent basis, Debye-Ang):
   XX=            -13.0036   YY=            -11.7363   ZZ=            -13.9657
   XY=              2.2566   XZ=              0.0665   YZ=             -0.0348

 Normal termination of Gaussian 09 at Wed Aug 26 11:39:09 2020.
