 Gaussian 09, Revision D.01,
 Gaussian 09:  ES64L-G09RevD.01 24-Apr-2013

 --------------------
 #p B2PLYPD3/Def2QZVP
 --------------------

 --------
 methanol
 --------
 Symbolic Z-matrix:
 Charge =  0 Multiplicity = 1

                         Standard orientation:
 ---------------------------------------------------------------------
 Center     Atomic      Atomic             Coordinates (Angstroms)
 Number     Number       Type             X           Y           Z
 ---------------------------------------------------------------------
      1          6           0        0.666138   -0.008330    0.024376
      2          8           0       -0.754872   -0.050904   -0.056873
      3          1           0        1.055241   -0.198876    1.068329
      4          1           0        1.066548    1.099425   -0.434080
      5          1           0        1.045368   -0.799675   -0.677982
      6          1           0       -1.125007    0.356343    0.352457
 ---------------------------------------------------------------------

 SCF Done:  E(RB2PLYPD3) =  -115.393896673     A.U. after   11 cycles
 E2(B2PLYPD3) =    -0.1441207005D+00 E(B2PLYPD3) =    -0.11553801737357D+03

 The electronic state is 1-A.
 Alpha  occ. eigenvalues --  -19.69681 -10.69019  -1.24459  -0.81792  -0.61545
 Alpha  occ. eigenvalues --   -0.51058  -0.50354  -0.40753  -0.35739
 Alpha virt. eigenvalues --    0.05286   0.09093   0.11399   0.12118   0.14320
 Alpha virt. eigenvalues --    0.16781   0.18048   0.28585   0.31814   0.32953
 Alpha virt. eigenvalues --    0.35249   0.38328   0.39365   0.40758   0.42238

 Mulliken charges:
               1
     1  C    0.048269
     2  O   -0.235699
     3  H    0.060481
     4  H    0.035517
     5  H    0.087555
     6  H    0.003877
 Sum of Mulliken charges =   0.00000

 Dipole moment (field-independent basis, Debye):
    X=              0.8540    Y=              0.6669    Z=              0.9037  Tot=              1.4109
 Quadrupole moment (field-independent basis, Debye-Ang):
   XX=            -12.9852   YY=            -13.2213   ZZ=            -13.0209
   XY=             -1.5513   XZ=             -1.2518   YZ=              0.4338

 Normal termination of Gaussian 09 at Wed Aug 26 13:46:37 2020.
