 Gaussian 09, Revision D.01,
 Gaussian 09:  ES64L-G09RevD.01 24-Apr-2013

 --------------------
 #p B2PLYPD3/Def2QZVP
 --------------------

 --------
 methanol
 --------
 Symbolic Z-matrix:
 Charge =  0 Multiplicity = 1

                         Standard orientation:
 ---------------------------------------------------------------------
 Center     Atomic      Atomic             Coordinates (Angstroms)
 Number     Number       Type             X           Y           Z
 ---------------------------------------------------------------------
      1          6           0        0.667238    0.027932   -0.002290
      2          8           0       -0.741160   -0.147352   -0.002803
      3          1           0        1.011344    0.489041    0.847021
      4          1           0        0.980915    0.578961   -0.814138
      5          1           0        1.077632   -0.951074   -0.027783
      6          1           0       -1.144038    0.894297    0.031065
 ---------------------------------------------------------------------

 SCF Done:  E(RB2PLYPD3) =  -115.527120629     A.U. after   11 cycles
 E2(B2PLYPD3) =    -0.1497623284D+00 E(B2PLYPD3) =    -0.11567688295717D+03

 The electronic state is 1-A.
 Alpha  occ. eigenvalues --  -19.73593 -10.63600  -1.13716  -0.78858  -0.57108
 Alpha  occ. eigenvalues --   -0.52774  -0.49134  -0.41043  -0.35194
 Alpha virt. eigenvalues --    0.03568   0.07946   0.12465   0.12723   0.14980
 Alpha virt. eigenvalues --    0.17385   0.18074   0.28632   0.29954   0.33440
 Alpha virt. eigenvalues --    0.34222   0.39150   0.39865   0.42645   0.44403

 Mulliken charges:
               1
     1  C    0.087916
     2  O   -0.489140
     3  H    0.044555
     4  H    0.044521
     5  H    0.064513
     6  H    0.247635
 Sum of Mulliken charges =   0.00000

 Dipole moment (field-independent basis, Debye):
    X=              0.9639    Y=              1.6703    Z=              0.0615  Tot=              1.9294
 Quadrupole moment (field-independent basis, Debye-Ang):
   XX=            -13.1348   YY=            -11.8190   ZZ=            -13.8455
   XY=             -2.3073   XZ=             -0.0333   YZ=              0.0221

 Normal termination of Gaussian 09 at Wed Aug 26 10:14:46 2020.
