 Gaussian 09, Revision D.01,
 Gaussian 09:  ES64L-G09RevD.01 24-Apr-2013

 --------------------
 #p B2PLYPD3/Def2QZVP
 --------------------

 --------
 methanol
 --------
 Symbolic Z-matrix:
 Charge =  0 Multiplicity = 1

                         Standard orientation:
 ---------------------------------------------------------------------
 Center     Atomic      Atomic             Coordinates (Angstroms)
 Number     Number       Type             X           Y           Z
 ---------------------------------------------------------------------
      1          6           0        0.665408   -0.031372    0.005939
      2          8           0       -0.738667    0.051157   -0.002206
      3          1           0        0.967022   -0.796408   -0.842259
      4          1           0        1.117696   -0.353554    0.979057
      5          1           0        0.963967    1.261705   -0.234636
      6          1           0       -1.131800   -0.332763    0.079846
 ---------------------------------------------------------------------

 SCF Done:  E(RB2PLYPD3) =  -115.030699771     A.U. after   12 cycles
 E2(B2PLYPD3) =    -0.1436837983D+00 E(B2PLYPD3) =    -0.11517438356936D+03

 The electronic state is 1-A.
 Alpha  occ. eigenvalues --  -19.68070 -10.70738  -1.30289  -0.85188  -0.63013
 Alpha  occ. eigenvalues --   -0.52101  -0.48701  -0.38312  -0.36592
 Alpha virt. eigenvalues --    0.04541   0.09698   0.10282   0.11897   0.14516
 Alpha virt. eigenvalues --    0.16330   0.17525   0.28373   0.30940   0.32800
 Alpha virt. eigenvalues --    0.33706   0.37597   0.38642   0.40377   0.42489

 Mulliken charges:
               1
     1  C    0.038999
     2  O   -0.093010
     3  H    0.057845
     4  H    0.068734
     5  H    0.067970
     6  H   -0.140538
 Sum of Mulliken charges =   0.00000

 Dipole moment (field-independent basis, Debye):
    X=              0.7335    Y=             -1.1041    Z=              0.2973  Tot=              1.3585
 Quadrupole moment (field-independent basis, Debye-Ang):
   XX=            -12.9461   YY=            -12.6088   ZZ=            -13.4799
   XY=              1.2854   XZ=             -0.0352   YZ=             -0.0849

 Normal termination of Gaussian 09 at Wed Aug 26 23:40:56 2020.
