 Gaussian 09, Revision D.01,
 Gaussian 09:  ES64L-G09RevD.01 24-Apr-2013

 --------------------
 #p B2PLYPD3/Def2QZVP
 --------------------

 --------
 methanol
 --------
 Symbolic Z-matrix:
 Charge =  0 Multiplicity = 1

                         Standard orientation:
 ---------------------------------------------------------------------
 Center     Atomic      Atomic             Coordinates (Angstroms)
 Number     Number       Type             X           Y           Z
 ---------------------------------------------------------------------
      1          6           0       -0.671233    0.016121    0.024575
      2          8           0        0.741498   -0.162075   -0.030948
      3          1           0       -1.070954    0.663947   -0.743512
      4          1           0       -0.842276    0.427139    0.765709
      5          1           0       -1.065724   -0.925334   -0.022194
      6          1           0        1.074364    1.034123    0.100131
 ---------------------------------------------------------------------

 SCF Done:  E(RB2PLYPD3) =  -115.447775905     A.U. after   11 cycles
 E2(B2PLYPD3) =    -0.1525617316D+00 E(B2PLYPD3) =    -0.11560033763626D+03

 The electronic state is 1-A.
 Alpha  occ. eigenvalues --  -19.74364 -10.61856  -1.12683  -0.80415  -0.57684
 Alpha  occ. eigenvalues --   -0.52756  -0.48425  -0.41281  -0.35006
 Alpha virt. eigenvalues --    0.01518   0.07796   0.12269   0.12881   0.15033
 Alpha virt. eigenvalues --    0.17290   0.18020   0.25093   0.29689   0.32731
 Alpha virt. eigenvalues --    0.34173   0.39101   0.39828   0.41586   0.45288

 Mulliken charges:
               1
     1  C    0.048551
     2  O   -0.490330
     3  H    0.036564
     4  H    0.095782
     5  H    0.068044
     6  H    0.241388
 Sum of Mulliken charges =   0.00000

 Dipole moment (field-independent basis, Debye):
    X=             -1.1689    Y=              1.7192    Z=              0.3495  Tot=              2.1081
 Quadrupole moment (field-independent basis, Debye-Ang):
   XX=            -13.5611   YY=            -11.2579   ZZ=            -13.9108
   XY=              2.1917   XZ=              0.1851   YZ=              0.2623

 Normal termination of Gaussian 09 at Wed Aug 26 21:51:11 2020.
