 Gaussian 09, Revision D.01,
 Gaussian 09:  ES64L-G09RevD.01 24-Apr-2013

 --------------------
 #p B2PLYPD3/Def2QZVP
 --------------------

 --------
 methanol
 --------
 Symbolic Z-matrix:
 Charge =  0 Multiplicity = 1

                         Standard orientation:
 ---------------------------------------------------------------------
 Center     Atomic      Atomic             Coordinates (Angstroms)
 Number     Number       Type             X           Y           Z
 ---------------------------------------------------------------------
      1          6           0       -0.669897   -0.019433   -0.004566
      2          8           0        0.752752    0.129826   -0.002225
      3          1           0       -1.059204   -0.480340    0.897595
      4          1           0       -1.011775   -0.618922   -0.832064
      5          1           0       -1.107858    0.964682   -0.055969
      6          1           0        1.176204   -0.787432    0.035637
 ---------------------------------------------------------------------

 SCF Done:  E(RB2PLYPD3) =  -115.549083640     A.U. after   10 cycles
 E2(B2PLYPD3) =    -0.1482024755D+00 E(B2PLYPD3) =    -0.11569728611546D+03

 The electronic state is 1-A.
 Alpha  occ. eigenvalues --  -19.72991 -10.65305  -1.14773  -0.78648  -0.57961
 Alpha  occ. eigenvalues --   -0.51485  -0.49695  -0.41066  -0.35269
 Alpha virt. eigenvalues --    0.04644   0.07952   0.12435   0.12565   0.14893
 Alpha virt. eigenvalues --    0.17368   0.18123   0.29193   0.32979   0.33349
 Alpha virt. eigenvalues --    0.33588   0.39101   0.39689   0.40980   0.44000

 Mulliken charges:
               1
     1  C    0.075494
     2  O   -0.478173
     3  H    0.046518
     4  H    0.046881
     5  H    0.071029
     6  H    0.238251
 Sum of Mulliken charges =   0.00000

 Dipole moment (field-independent basis, Debye):
    X=             -0.8882    Y=             -1.5525    Z=              0.0575  Tot=              1.7895
 Quadrupole moment (field-independent basis, Debye-Ang):
   XX=            -12.8463   YY=            -12.1588   ZZ=            -13.9025
   XY=             -2.3495   XZ=              0.0624   YZ=             -0.0193

 Normal termination of Gaussian 09 at Wed Aug 26 10:29:14 2020.
