 Gaussian 09, Revision D.01,
 Gaussian 09:  ES64L-G09RevD.01 24-Apr-2013

 --------------------
 #p B2PLYPD3/Def2QZVP
 --------------------

 --------
 methanol
 --------
 Symbolic Z-matrix:
 Charge =  0 Multiplicity = 1

                         Standard orientation:
 ---------------------------------------------------------------------
 Center     Atomic      Atomic             Coordinates (Angstroms)
 Number     Number       Type             X           Y           Z
 ---------------------------------------------------------------------
      1          6           0        0.668584   -0.025458    0.005094
      2          8           0       -0.764581    0.108326   -0.002025
      3          1           0        1.081431   -0.603214   -0.855484
      4          1           0        1.071898   -0.451203    0.925983
      5          1           0        1.072007    1.041051   -0.089084
      6          1           0       -1.120188   -0.700492    0.004226
 ---------------------------------------------------------------------

 SCF Done:  E(RB2PLYPD3) =  -115.544160969     A.U. after   10 cycles
 E2(B2PLYPD3) =    -0.1466497094D+00 E(B2PLYPD3) =    -0.11569081067810D+03

 The electronic state is 1-A.
 Alpha  occ. eigenvalues --  -19.72177 -10.66769  -1.17570  -0.78905  -0.59650
 Alpha  occ. eigenvalues --   -0.51408  -0.49033  -0.41256  -0.35964
 Alpha virt. eigenvalues --    0.05245   0.08316   0.12040   0.12323   0.14889
 Alpha virt. eigenvalues --    0.17131   0.18256   0.28923   0.32488   0.33613
 Alpha virt. eigenvalues --    0.37005   0.37762   0.39517   0.40558   0.42740

 Mulliken charges:
               1
     1  C    0.060836
     2  O   -0.423030
     3  H    0.050778
     4  H    0.057760
     5  H    0.066108
     6  H    0.187549
 Sum of Mulliken charges =   0.00000

 Dipole moment (field-independent basis, Debye):
    X=              0.9503    Y=             -1.4686    Z=              0.0274  Tot=              1.7495
 Quadrupole moment (field-independent basis, Debye-Ang):
   XX=            -13.0202   YY=            -12.3569   ZZ=            -13.7872
   XY=              2.0572   XZ=             -0.0117   YZ=             -0.0288

 Normal termination of Gaussian 09 at Wed Aug 26 15:11:18 2020.
