 Gaussian 09, Revision D.01,
 Gaussian 09:  ES64L-G09RevD.01 24-Apr-2013

 --------------------
 #p B2PLYPD3/Def2QZVP
 --------------------

 --------
 methanol
 --------
 Symbolic Z-matrix:
 Charge =  0 Multiplicity = 1

                         Standard orientation:
 ---------------------------------------------------------------------
 Center     Atomic      Atomic             Coordinates (Angstroms)
 Number     Number       Type             X           Y           Z
 ---------------------------------------------------------------------
      1          6           0        0.655283   -0.020077    0.004301
      2          8           0       -0.754270    0.101512   -0.000580
      3          1           0        1.021694   -0.607638   -0.889754
      4          1           0        1.066334   -0.507552    0.913789
      5          1           0        1.099194    1.059075   -0.061719
      6          1           0       -1.084756   -0.635519    0.016520
 ---------------------------------------------------------------------

 SCF Done:  E(RB2PLYPD3) =  -115.518696808     A.U. after   10 cycles
 E2(B2PLYPD3) =    -0.1452488142D+00 E(B2PLYPD3) =    -0.11566394562182D+03

 The electronic state is 1-A.
 Alpha  occ. eigenvalues --  -19.71381 -10.67353  -1.20615  -0.79418  -0.61037
 Alpha  occ. eigenvalues --   -0.51563  -0.49716  -0.41188  -0.35874
 Alpha virt. eigenvalues --    0.05323   0.08756   0.11939   0.12206   0.14855
 Alpha virt. eigenvalues --    0.17249   0.17919   0.28911   0.33059   0.33382
 Alpha virt. eigenvalues --    0.36725   0.38531   0.39785   0.40030   0.42646

 Mulliken charges:
               1
     1  C    0.059266
     2  O   -0.354150
     3  H    0.046550
     4  H    0.052230
     5  H    0.067384
     6  H    0.128720
 Sum of Mulliken charges =   0.00000

 Dipole moment (field-independent basis, Debye):
    X=              0.8932    Y=             -1.3979    Z=              0.0486  Tot=              1.6596
 Quadrupole moment (field-independent basis, Debye-Ang):
   XX=            -13.1492   YY=            -12.3960   ZZ=            -13.7640
   XY=              1.9982   XZ=              0.0098   YZ=             -0.0470

 Normal termination of Gaussian 09 at Thu Aug 27 00:10:41 2020.
