 Gaussian 09, Revision D.01,
 Gaussian 09:  ES64L-G09RevD.01 24-Apr-2013

 --------------------
 #p B2PLYPD3/Def2QZVP
 --------------------

 --------
 methanol
 --------
 Symbolic Z-matrix:
 Charge =  0 Multiplicity = 1

                         Standard orientation:
 ---------------------------------------------------------------------
 Center     Atomic      Atomic             Coordinates (Angstroms)
 Number     Number       Type             X           Y           Z
 ---------------------------------------------------------------------
      1          6           0       -0.680853   -0.011274    0.005347
      2          8           0        0.746169    0.080240   -0.005073
      3          1           0       -1.028108   -0.451807    0.998217
      4          1           0       -0.970763   -0.717507   -0.889585
      5          1           0       -1.053020    1.072141   -0.149387
      6          1           0        1.167657   -0.477097    0.049256
 ---------------------------------------------------------------------

 SCF Done:  E(RB2PLYPD3) =  -115.418491842     A.U. after   11 cycles
 E2(B2PLYPD3) =    -0.1440055528D+00 E(B2PLYPD3) =    -0.11556249739509D+03

 The electronic state is 1-A.
 Alpha  occ. eigenvalues --  -19.69031 -10.68713  -1.22922  -0.81773  -0.60967
 Alpha  occ. eigenvalues --   -0.51242  -0.50401  -0.39953  -0.35667
 Alpha virt. eigenvalues --    0.05337   0.09249   0.11787   0.11896   0.14306
 Alpha virt. eigenvalues --    0.16665   0.17471   0.28961   0.31858   0.32815
 Alpha virt. eigenvalues --    0.37121   0.37903   0.38974   0.40467   0.42314

 Mulliken charges:
               1
     1  C    0.060973
     2  O   -0.263103
     3  H    0.056395
     4  H    0.047920
     5  H    0.087810
     6  H    0.010005
 Sum of Mulliken charges =   0.00000

 Dipole moment (field-independent basis, Debye):
    X=             -0.8555    Y=             -1.1527    Z=              0.1421  Tot=              1.4425
 Quadrupole moment (field-independent basis, Debye-Ang):
   XX=            -12.8819   YY=            -12.5637   ZZ=            -13.5367
   XY=             -1.9768   XZ=              0.0995   YZ=             -0.1193

 Normal termination of Gaussian 09 at Wed Aug 26 12:42:22 2020.
