 Gaussian 09, Revision D.01,
 Gaussian 09:  ES64L-G09RevD.01 24-Apr-2013

 --------------------
 #p B2PLYPD3/Def2QZVP
 --------------------

 --------
 methanol
 --------
 Symbolic Z-matrix:
 Charge =  0 Multiplicity = 1

                         Standard orientation:
 ---------------------------------------------------------------------
 Center     Atomic      Atomic             Coordinates (Angstroms)
 Number     Number       Type             X           Y           Z
 ---------------------------------------------------------------------
      1          6           0        0.687580   -0.006288    0.003270
      2          8           0       -0.759989    0.093659   -0.029749
      3          1           0        1.040824   -0.849986   -0.740253
      4          1           0        1.042012   -0.209618    1.042558
      5          1           0        1.025468    0.963642   -0.278568
      6          1           0       -1.153873   -0.615581    0.194633
 ---------------------------------------------------------------------

 SCF Done:  E(RB2PLYPD3) =  -115.530559638     A.U. after   11 cycles
 E2(B2PLYPD3) =    -0.1459263151D+00 E(B2PLYPD3) =    -0.11567648595298D+03

 The electronic state is 1-A.
 Alpha  occ. eigenvalues --  -19.71075 -10.67148  -1.17860  -0.79711  -0.59236
 Alpha  occ. eigenvalues --   -0.50908  -0.50242  -0.41107  -0.35530
 Alpha virt. eigenvalues --    0.05343   0.08553   0.11842   0.12418   0.14477
 Alpha virt. eigenvalues --    0.16811   0.17999   0.28949   0.31847   0.33110
 Alpha virt. eigenvalues --    0.36671   0.39184   0.39397   0.40437   0.43007

 Mulliken charges:
               1
     1  C    0.066349
     2  O   -0.411254
     3  H    0.047136
     4  H    0.054913
     5  H    0.084952
     6  H    0.157905
 Sum of Mulliken charges =   0.00000

 Dipole moment (field-independent basis, Debye):
    X=              0.9528    Y=             -1.2367    Z=              0.4531  Tot=              1.6256
 Quadrupole moment (field-independent basis, Debye-Ang):
   XX=            -13.0074   YY=            -12.4519   ZZ=            -13.5799
   XY=              2.1073   XZ=             -0.5707   YZ=             -0.2890

 Normal termination of Gaussian 09 at Wed Aug 26 14:24:22 2020.
