 Gaussian 09, Revision D.01,
 Gaussian 09:  ES64L-G09RevD.01 24-Apr-2013

 --------------------
 #p B2PLYPD3/Def2QZVP
 --------------------

 --------
 methanol
 --------
 Symbolic Z-matrix:
 Charge =  0 Multiplicity = 1

                         Standard orientation:
 ---------------------------------------------------------------------
 Center     Atomic      Atomic             Coordinates (Angstroms)
 Number     Number       Type             X           Y           Z
 ---------------------------------------------------------------------
      1          6           0        0.668634    0.009640    0.015343
      2          8           0       -0.745414   -0.151940   -0.016634
      3          1           0        1.037514    0.437769    0.847999
      4          1           0        1.077030    0.613660   -0.832260
      5          1           0        1.034460   -0.865887   -0.051044
      6          1           0       -1.197497    0.972140    0.076318
 ---------------------------------------------------------------------

 SCF Done:  E(RB2PLYPD3) =  -115.490842261     A.U. after   11 cycles
 E2(B2PLYPD3) =    -0.1518467495D+00 E(B2PLYPD3) =    -0.11564268901002D+03

 The electronic state is 1-A.
 Alpha  occ. eigenvalues --  -19.74447 -10.63095  -1.12642  -0.79533  -0.56445
 Alpha  occ. eigenvalues --   -0.51199  -0.49935  -0.40977  -0.34947
 Alpha virt. eigenvalues --    0.02133   0.07611   0.12687   0.12834   0.14980
 Alpha virt. eigenvalues --    0.17301   0.18426   0.26018   0.29519   0.33413
 Alpha virt. eigenvalues --    0.34182   0.38079   0.40716   0.41187   0.44289

 Mulliken charges:
               1
     1  C    0.082160
     2  O   -0.491658
     3  H    0.045551
     4  H    0.035593
     5  H    0.074208
     6  H    0.254146
 Sum of Mulliken charges =   0.00000

 Dipole moment (field-independent basis, Debye):
    X=              0.9377    Y=              1.6057    Z=              0.2380  Tot=              1.8746
 Quadrupole moment (field-independent basis, Debye-Ang):
   XX=            -12.9116   YY=            -11.7484   ZZ=            -13.9614
   XY=             -2.4966   XZ=             -0.0863   YZ=              0.1877

 Normal termination of Gaussian 09 at Wed Aug 26 12:07:56 2020.
