 Gaussian 09, Revision D.01,
 Gaussian 09:  ES64L-G09RevD.01 24-Apr-2013

 --------------------
 #p B2PLYPD3/Def2QZVP
 --------------------

 --------
 methanol
 --------
 Symbolic Z-matrix:
 Charge =  0 Multiplicity = 1

                         Standard orientation:
 ---------------------------------------------------------------------
 Center     Atomic      Atomic             Coordinates (Angstroms)
 Number     Number       Type             X           Y           Z
 ---------------------------------------------------------------------
      1          6           0        0.677521    0.017337   -0.000337
      2          8           0       -0.746079   -0.145831   -0.006128
      3          1           0        1.028571    0.431049    0.899030
      4          1           0        0.993180    0.652947   -0.802071
      5          1           0        1.086859   -0.898142   -0.095399
      6          1           0       -1.205101    0.876768    0.049486
 ---------------------------------------------------------------------

 SCF Done:  E(RB2PLYPD3) =  -115.526329811     A.U. after   11 cycles
 E2(B2PLYPD3) =    -0.1499441064D+00 E(B2PLYPD3) =    -0.11567627391768D+03

 The electronic state is 1-A.
 Alpha  occ. eigenvalues --  -19.73520 -10.63889  -1.12983  -0.78993  -0.56515
 Alpha  occ. eigenvalues --   -0.51816  -0.49986  -0.40859  -0.34987
 Alpha virt. eigenvalues --    0.03538   0.07803   0.12565   0.12780   0.14804
 Alpha virt. eigenvalues --    0.17368   0.18136   0.28650   0.29898   0.33324
 Alpha virt. eigenvalues --    0.33540   0.39070   0.40811   0.41674   0.43701

 Mulliken charges:
               1
     1  C    0.085618
     2  O   -0.499722
     3  H    0.047256
     4  H    0.042665
     5  H    0.072047
     6  H    0.252136
 Sum of Mulliken charges =   0.00000

 Dipole moment (field-independent basis, Debye):
    X=              0.9247    Y=              1.6026    Z=              0.0986  Tot=              1.8529
 Quadrupole moment (field-independent basis, Debye-Ang):
   XX=            -12.8306   YY=            -11.9482   ZZ=            -13.8723
   XY=             -2.5053   XZ=             -0.0919   YZ=              0.0692

 Normal termination of Gaussian 09 at Wed Aug 26 10:25:23 2020.
