 Gaussian 09, Revision D.01,
 Gaussian 09:  ES64L-G09RevD.01 24-Apr-2013

 --------------------
 #p B2PLYPD3/Def2QZVP
 --------------------

 --------
 methanol
 --------
 Symbolic Z-matrix:
 Charge =  0 Multiplicity = 1

                         Standard orientation:
 ---------------------------------------------------------------------
 Center     Atomic      Atomic             Coordinates (Angstroms)
 Number     Number       Type             X           Y           Z
 ---------------------------------------------------------------------
      1          6           0       -0.656189    0.035036   -0.003184
      2          8           0        0.725279   -0.171463   -0.004098
      3          1           0       -1.029925    0.502756   -0.796178
      4          1           0       -0.906725    0.558557    0.811729
      5          1           0       -1.118071   -0.883090    0.050254
      6          1           0        1.189622    0.983263   -0.013920
 ---------------------------------------------------------------------

 SCF Done:  E(RB2PLYPD3) =  -115.488545224     A.U. after   11 cycles
 E2(B2PLYPD3) =    -0.1516689528D+00 E(B2PLYPD3) =    -0.11564021417638D+03

 The electronic state is 1-A.
 Alpha  occ. eigenvalues --  -19.74274 -10.62182  -1.13305  -0.79254  -0.56111
 Alpha  occ. eigenvalues --   -0.53552  -0.49608  -0.40119  -0.34983
 Alpha virt. eigenvalues --    0.01590   0.07760   0.12735   0.12886   0.14908
 Alpha virt. eigenvalues --    0.17713   0.18161   0.25216   0.29577   0.33219
 Alpha virt. eigenvalues --    0.35158   0.39698   0.39988   0.43399   0.44460

 Mulliken charges:
               1
     1  C    0.099845
     2  O   -0.487054
     3  H    0.039730
     4  H    0.039702
     5  H    0.058076
     6  H    0.249700
 Sum of Mulliken charges =   0.00000

 Dipole moment (field-independent basis, Debye):
    X=             -0.9204    Y=              1.7340    Z=             -0.0085  Tot=              1.9631
 Quadrupole moment (field-independent basis, Debye-Ang):
   XX=            -12.9687   YY=            -11.7041   ZZ=            -13.8688
   XY=              2.4744   XZ=              0.0736   YZ=             -0.0271

 Normal termination of Gaussian 09 at Wed Aug 26 12:27:49 2020.
