 Gaussian 09, Revision D.01,
 Gaussian 09:  ES64L-G09RevD.01 24-Apr-2013

 --------------------
 #p B2PLYPD3/Def2QZVP
 --------------------

 --------
 methanol
 --------
 Symbolic Z-matrix:
 Charge =  0 Multiplicity = 1

                         Standard orientation:
 ---------------------------------------------------------------------
 Center     Atomic      Atomic             Coordinates (Angstroms)
 Number     Number       Type             X           Y           Z
 ---------------------------------------------------------------------
      1          6           0       -0.661615    0.022565    0.003538
      2          8           0        0.745792   -0.140760   -0.008234
      3          1           0       -1.095607    0.545277   -0.839933
      4          1           0       -1.020702    0.517892    0.851713
      5          1           0       -1.068814   -0.948729    0.011860
      6          1           0        1.188478    0.876250    0.021001
 ---------------------------------------------------------------------

 SCF Done:  E(RB2PLYPD3) =  -115.531641152     A.U. after   11 cycles
 E2(B2PLYPD3) =    -0.1498535066D+00 E(B2PLYPD3) =    -0.11568149465887D+03

 The electronic state is 1-A.
 Alpha  occ. eigenvalues --  -19.73876 -10.64356  -1.13895  -0.78550  -0.57179
 Alpha  occ. eigenvalues --   -0.51530  -0.49590  -0.40900  -0.35176
 Alpha virt. eigenvalues --    0.03657   0.07725   0.12535   0.12727   0.15099
 Alpha virt. eigenvalues --    0.17276   0.18360   0.28667   0.30082   0.33553
 Alpha virt. eigenvalues --    0.34317   0.38859   0.39634   0.41402   0.44068

 Mulliken charges:
               1
     1  C    0.075379
     2  O   -0.483168
     3  H    0.043583
     4  H    0.045779
     5  H    0.066758
     6  H    0.251669
 Sum of Mulliken charges =   0.00000

 Dipole moment (field-independent basis, Debye):
    X=             -0.8539    Y=              1.6175    Z=              0.0885  Tot=              1.8312
 Quadrupole moment (field-independent basis, Debye-Ang):
   XX=            -12.8553   YY=            -11.9946   ZZ=            -13.9773
   XY=              2.3696   XZ=              0.0679   YZ=              0.0476

 Normal termination of Gaussian 09 at Thu Aug 27 00:02:26 2020.
