 Gaussian 09, Revision D.01,
 Gaussian 09:  ES64L-G09RevD.01 24-Apr-2013

 --------------------
 #p B2PLYPD3/Def2QZVP
 --------------------

 --------
 methanol
 --------
 Symbolic Z-matrix:
 Charge =  0 Multiplicity = 1

                         Standard orientation:
 ---------------------------------------------------------------------
 Center     Atomic      Atomic             Coordinates (Angstroms)
 Number     Number       Type             X           Y           Z
 ---------------------------------------------------------------------
      1          6           0       -0.659149    0.013367   -0.004876
      2          8           0        0.745651   -0.130803    0.003673
      3          1           0       -1.024853    0.545581   -0.866829
      4          1           0       -1.073365    0.528237    0.879373
      5          1           0       -1.061244   -0.942324   -0.013067
      6          1           0        1.149145    0.834728    0.000394
 ---------------------------------------------------------------------

 SCF Done:  E(RB2PLYPD3) =  -115.543262558     A.U. after   11 cycles
 E2(B2PLYPD3) =    -0.1486549786D+00 E(B2PLYPD3) =    -0.11569191753677D+03

 The electronic state is 1-A.
 Alpha  occ. eigenvalues --  -19.73409 -10.64796  -1.14958  -0.78549  -0.57864
 Alpha  occ. eigenvalues --   -0.51395  -0.50175  -0.41200  -0.35114
 Alpha virt. eigenvalues --    0.04296   0.07949   0.12518   0.12622   0.15020
 Alpha virt. eigenvalues --    0.17329   0.18254   0.29081   0.31833   0.33375
 Alpha virt. eigenvalues --    0.34334   0.38792   0.40217   0.40926   0.43846

 Mulliken charges:
               1
     1  C    0.071875
     2  O   -0.473261
     3  H    0.043998
     4  H    0.041004
     5  H    0.071105
     6  H    0.245279
 Sum of Mulliken charges =   0.00000

 Dipole moment (field-independent basis, Debye):
    X=             -0.8578    Y=              1.5451    Z=             -0.0343  Tot=              1.7676
 Quadrupole moment (field-independent basis, Debye-Ang):
   XX=            -13.0069   YY=            -12.0557   ZZ=            -13.9135
   XY=              2.3456   XZ=             -0.0092   YZ=             -0.0274

 Normal termination of Gaussian 09 at Thu Aug 27 00:13:44 2020.
