 Gaussian 09, Revision D.01,
 Gaussian 09:  ES64L-G09RevD.01 24-Apr-2013

 --------------------
 #p B2PLYPD3/Def2QZVP
 --------------------

 --------
 methanol
 --------
 Symbolic Z-matrix:
 Charge =  0 Multiplicity = 1

                         Standard orientation:
 ---------------------------------------------------------------------
 Center     Atomic      Atomic             Coordinates (Angstroms)
 Number     Number       Type             X           Y           Z
 ---------------------------------------------------------------------
      1          6           0       -0.661388    0.020774   -0.001427
      2          8           0        0.751442   -0.135950    0.001936
      3          1           0       -1.054254    0.507845   -0.865556
      4          1           0       -0.985675    0.571548    0.870352
      5          1           0       -1.131891   -0.942216    0.025970
      6          1           0        1.128611    0.825777   -0.037693
 ---------------------------------------------------------------------

 SCF Done:  E(RB2PLYPD3) =  -115.545660970     A.U. after   10 cycles
 E2(B2PLYPD3) =    -0.1485369866D+00 E(B2PLYPD3) =    -0.11569419795635D+03

 The electronic state is 1-A.
 Alpha  occ. eigenvalues --  -19.73314 -10.64929  -1.14912  -0.78568  -0.57668
 Alpha  occ. eigenvalues --   -0.51945  -0.49822  -0.41096  -0.35318
 Alpha virt. eigenvalues --    0.04410   0.07963   0.12470   0.12594   0.14784
 Alpha virt. eigenvalues --    0.17685   0.18170   0.29130   0.31903   0.33261
 Alpha virt. eigenvalues --    0.34032   0.39169   0.40005   0.41309   0.43988

 Mulliken charges:
               1
     1  C    0.075286
     2  O   -0.474578
     3  H    0.045565
     4  H    0.044692
     5  H    0.066315
     6  H    0.242720
 Sum of Mulliken charges =   0.00000

 Dipole moment (field-independent basis, Debye):
    X=             -0.9351    Y=              1.5812    Z=             -0.0774  Tot=              1.8386
 Quadrupole moment (field-independent basis, Debye-Ang):
   XX=            -13.0531   YY=            -12.1104   ZZ=            -13.8553
   XY=              2.3450   XZ=             -0.0116   YZ=             -0.0527

 Normal termination of Gaussian 09 at Wed Aug 26 23:58:14 2020.
