 Gaussian 09, Revision D.01,
 Gaussian 09:  ES64L-G09RevD.01 24-Apr-2013

 --------------------
 #p B2PLYPD3/Def2QZVP
 --------------------

 --------
 methanol
 --------
 Symbolic Z-matrix:
 Charge =  0 Multiplicity = 1

                         Standard orientation:
 ---------------------------------------------------------------------
 Center     Atomic      Atomic             Coordinates (Angstroms)
 Number     Number       Type             X           Y           Z
 ---------------------------------------------------------------------
      1          6           0       -0.648869   -0.027994    0.027119
      2          8           0        0.728826    0.073000   -0.034515
      3          1           0       -0.879814   -0.369646    0.986270
      4          1           0       -1.024537   -0.771054   -0.841436
      5          1           0       -1.031212    1.169395   -0.169433
      6          1           0        0.998171   -0.444731    0.138006
 ---------------------------------------------------------------------

 SCF Done:  E(RB2PLYPD3) =  -115.226429711     A.U. after   11 cycles
 E2(B2PLYPD3) =    -0.1429094523D+00 E(B2PLYPD3) =    -0.11536933916355D+03

 The electronic state is 1-A.
 Alpha  occ. eigenvalues --  -19.68698 -10.68450  -1.29819  -0.82870  -0.63300
 Alpha  occ. eigenvalues --   -0.53064  -0.49733  -0.40846  -0.36158
 Alpha virt. eigenvalues --    0.05029   0.09846   0.11016   0.11802   0.14698
 Alpha virt. eigenvalues --    0.16681   0.17307   0.28267   0.32259   0.32516
 Alpha virt. eigenvalues --    0.35048   0.37323   0.41446   0.42012   0.43396

 Mulliken charges:
               1
     1  C    0.048913
     2  O   -0.155019
     3  H    0.062114
     4  H    0.042203
     5  H    0.062530
     6  H   -0.060741
 Sum of Mulliken charges =   0.00000

 Dipole moment (field-independent basis, Debye):
    X=             -0.8235    Y=             -1.1712    Z=              0.5358  Tot=              1.5287
 Quadrupole moment (field-independent basis, Debye-Ang):
   XX=            -13.6607   YY=            -12.4375   ZZ=            -13.2799
   XY=             -1.5686   XZ=              0.4506   YZ=             -0.2895

 Normal termination of Gaussian 09 at Wed Aug 26 22:55:06 2020.
