 Gaussian 09, Revision D.01,
 Gaussian 09:  ES64L-G09RevD.01 24-Apr-2013

 --------------------
 #p B2PLYPD3/Def2QZVP
 --------------------

 --------
 methanol
 --------
 Symbolic Z-matrix:
 Charge =  0 Multiplicity = 1

                         Standard orientation:
 ---------------------------------------------------------------------
 Center     Atomic      Atomic             Coordinates (Angstroms)
 Number     Number       Type             X           Y           Z
 ---------------------------------------------------------------------
      1          6           0       -0.639370    0.006605    0.009074
      2          8           0        0.762199   -0.060078   -0.027257
      3          1           0       -0.957803    1.150309   -0.479886
      4          1           0       -1.177220   -0.103672    1.068882
      5          1           0       -1.179271   -0.900050   -0.648500
      6          1           0        1.052922    0.294411    0.223119
 ---------------------------------------------------------------------

 SCF Done:  E(RB2PLYPD3) =  -114.884702745     A.U. after   12 cycles
 E2(B2PLYPD3) =    -0.1438477749D+00 E(B2PLYPD3) =    -0.11502855052022D+03

 The electronic state is 1-A.
 Alpha  occ. eigenvalues --  -19.69560 -10.71442  -1.33783  -0.84407  -0.63108
 Alpha  occ. eigenvalues --   -0.51471  -0.50294  -0.40076  -0.36280
 Alpha virt. eigenvalues --    0.04734   0.09357   0.10946   0.11513   0.14185
 Alpha virt. eigenvalues --    0.17082   0.17772   0.27739   0.31021   0.33275
 Alpha virt. eigenvalues --    0.33650   0.34926   0.36483   0.41203   0.43339

 Mulliken charges:
               1
     1  C    0.044717
     2  O   -0.044087
     3  H    0.034392
     4  H    0.054736
     5  H    0.080067
     6  H   -0.169825
 Sum of Mulliken charges =   0.00000

 Dipole moment (field-independent basis, Debye):
    X=             -0.9184    Y=              0.7307    Z=              0.6514  Tot=              1.3423
 Quadrupole moment (field-independent basis, Debye-Ang):
   XX=            -12.9538   YY=            -13.0172   ZZ=            -13.4390
   XY=              1.6993   XZ=              0.7781   YZ=              0.3448

 Normal termination of Gaussian 09 at Wed Aug 26 23:56:49 2020.
