 Gaussian 09, Revision D.01,
 Gaussian 09:  ES64L-G09RevD.01 24-Apr-2013

 --------------------
 #p B2PLYPD3/Def2QZVP
 --------------------

 --------
 methanol
 --------
 Symbolic Z-matrix:
 Charge =  0 Multiplicity = 1

                         Standard orientation:
 ---------------------------------------------------------------------
 Center     Atomic      Atomic             Coordinates (Angstroms)
 Number     Number       Type             X           Y           Z
 ---------------------------------------------------------------------
      1          6           0        0.687150    0.026779   -0.010939
      2          8           0       -0.747901   -0.152602    0.009688
      3          1           0        0.960220    0.580625    0.861875
      4          1           0        1.061666    0.468971   -0.810848
      5          1           0        1.052145   -0.911827    0.026476
      6          1           0       -1.213722    0.922373   -0.089373
 ---------------------------------------------------------------------

 SCF Done:  E(RB2PLYPD3) =  -115.507035674     A.U. after   11 cycles
 E2(B2PLYPD3) =    -0.1511758453D+00 E(B2PLYPD3) =    -0.11565821151889D+03

 The electronic state is 1-A.
 Alpha  occ. eigenvalues --  -19.73826 -10.63200  -1.12029  -0.79474  -0.56282
 Alpha  occ. eigenvalues --   -0.52483  -0.48773  -0.40924  -0.35097
 Alpha virt. eigenvalues --    0.02908   0.07736   0.12587   0.12687   0.14802
 Alpha virt. eigenvalues --    0.17139   0.18272   0.27336   0.29562   0.32662
 Alpha virt. eigenvalues --    0.34088   0.38973   0.39888   0.42226   0.44908

 Mulliken charges:
               1
     1  C    0.088455
     2  O   -0.503737
     3  H    0.047998
     4  H    0.048785
     5  H    0.069070
     6  H    0.249430
 Sum of Mulliken charges =   0.00000

 Dipole moment (field-independent basis, Debye):
    X=              1.0044    Y=              1.6401    Z=             -0.2115  Tot=              1.9348
 Quadrupole moment (field-independent basis, Debye-Ang):
   XX=            -12.8735   YY=            -11.8372   ZZ=            -13.8186
   XY=             -2.4465   XZ=              0.0295   YZ=             -0.1523

 Normal termination of Gaussian 09 at Wed Aug 26 13:29:35 2020.
