 Gaussian 09, Revision D.01,
 Gaussian 09:  ES64L-G09RevD.01 24-Apr-2013

 --------------------
 #p B2PLYPD3/Def2QZVP
 --------------------

 --------
 methanol
 --------
 Symbolic Z-matrix:
 Charge =  0 Multiplicity = 1

                         Standard orientation:
 ---------------------------------------------------------------------
 Center     Atomic      Atomic             Coordinates (Angstroms)
 Number     Number       Type             X           Y           Z
 ---------------------------------------------------------------------
      1          6           0        0.675132    0.039504    0.017324
      2          8           0       -0.732968   -0.186027   -0.019664
      3          1           0        0.815830    0.403135    0.860746
      4          1           0        1.037284    0.613575   -0.749393
      5          1           0        1.175751   -0.807416   -0.075624
      6          1           0       -1.215911    1.041898    0.017642
 ---------------------------------------------------------------------

 SCF Done:  E(RB2PLYPD3) =  -115.451092435     A.U. after   11 cycles
 E2(B2PLYPD3) =    -0.1535230051D+00 E(B2PLYPD3) =    -0.11560461544061D+03

 The electronic state is 1-A.
 Alpha  occ. eigenvalues --  -19.74454 -10.61438  -1.11797  -0.80107  -0.55688
 Alpha  occ. eigenvalues --   -0.53853  -0.49047  -0.39543  -0.35112
 Alpha virt. eigenvalues --    0.00326   0.07627   0.12705   0.12853   0.14418
 Alpha virt. eigenvalues --    0.18052   0.18165   0.23739   0.29539   0.32567
 Alpha virt. eigenvalues --    0.34129   0.39684   0.40973   0.43176   0.44108

 Mulliken charges:
               1
     1  C    0.093182
     2  O   -0.497487
     3  H    0.062224
     4  H    0.041323
     5  H    0.055640
     6  H    0.245118
 Sum of Mulliken charges =   0.00000

 Dipole moment (field-independent basis, Debye):
    X=              1.0652    Y=              1.7298    Z=              0.1060  Tot=              2.0342
 Quadrupole moment (field-independent basis, Debye-Ang):
   XX=            -12.8920   YY=            -11.7010   ZZ=            -13.7292
   XY=             -2.6307   XZ=             -0.2328   YZ=              0.0679

 Normal termination of Gaussian 09 at Wed Aug 26 20:24:59 2020.
