 Gaussian 09, Revision D.01,
 Gaussian 09:  ES64L-G09RevD.01 24-Apr-2013

 --------------------
 #p B2PLYPD3/Def2QZVP
 --------------------

 --------
 methanol
 --------
 Symbolic Z-matrix:
 Charge =  0 Multiplicity = 1

                         Standard orientation:
 ---------------------------------------------------------------------
 Center     Atomic      Atomic             Coordinates (Angstroms)
 Number     Number       Type             X           Y           Z
 ---------------------------------------------------------------------
      1          6           0        0.676310    0.026957   -0.014877
      2          8           0       -0.732977   -0.153883    0.011208
      3          1           0        1.092341    0.512215    0.837752
      4          1           0        1.060704    0.570161   -0.745890
      5          1           0        0.959111   -0.968105   -0.052250
      6          1           0       -1.306205    0.955050   -0.040010
 ---------------------------------------------------------------------

 SCF Done:  E(RB2PLYPD3) =  -115.489180297     A.U. after   11 cycles
 E2(B2PLYPD3) =    -0.1526052459D+00 E(B2PLYPD3) =    -0.11564178554317D+03

 The electronic state is 1-A.
 Alpha  occ. eigenvalues --  -19.74435 -10.63301  -1.12309  -0.78905  -0.57156
 Alpha  occ. eigenvalues --   -0.51203  -0.48516  -0.40374  -0.34845
 Alpha virt. eigenvalues --    0.01710   0.07525   0.12217   0.13156   0.15291
 Alpha virt. eigenvalues --    0.16759   0.18289   0.25428   0.29424   0.33671
 Alpha virt. eigenvalues --    0.34403   0.38169   0.38848   0.41713   0.45459

 Mulliken charges:
               1
     1  C    0.078135
     2  O   -0.490363
     3  H    0.044097
     4  H    0.048063
     5  H    0.073245
     6  H    0.246823
 Sum of Mulliken charges =   0.00000

 Dipole moment (field-independent basis, Debye):
    X=              0.8086    Y=              1.6733    Z=             -0.1481  Tot=              1.8643
 Quadrupole moment (field-independent basis, Debye-Ang):
   XX=            -12.5760   YY=            -11.7142   ZZ=            -14.1573
   XY=             -2.3350   XZ=              0.0420   YZ=             -0.1035

 Normal termination of Gaussian 09 at Wed Aug 26 22:26:11 2020.
