 Gaussian 09, Revision D.01,
 Gaussian 09:  ES64L-G09RevD.01 24-Apr-2013

 --------------------
 #p B2PLYPD3/Def2QZVP
 --------------------

 --------
 methanol
 --------
 Symbolic Z-matrix:
 Charge =  0 Multiplicity = 1

                         Standard orientation:
 ---------------------------------------------------------------------
 Center     Atomic      Atomic             Coordinates (Angstroms)
 Number     Number       Type             X           Y           Z
 ---------------------------------------------------------------------
      1          6           0       -0.688085   -0.003971    0.010825
      2          8           0        0.764908    0.088948   -0.017048
      3          1           0       -1.068583   -0.336752    1.009268
      4          1           0       -1.005867   -0.745733   -0.862373
      5          1           0       -1.011907    0.997912   -0.210077
      6          1           0        1.095596   -0.603191    0.134617
 ---------------------------------------------------------------------

 SCF Done:  E(RB2PLYPD3) =  -115.501402271     A.U. after   11 cycles
 E2(B2PLYPD3) =    -0.1452082868D+00 E(B2PLYPD3) =    -0.11564661055780D+03

 The electronic state is 1-A.
 Alpha  occ. eigenvalues --  -19.70484 -10.67504  -1.19966  -0.80108  -0.59874
 Alpha  occ. eigenvalues --   -0.50952  -0.50195  -0.41664  -0.35769
 Alpha virt. eigenvalues --    0.05378   0.08799   0.11710   0.12294   0.14374
 Alpha virt. eigenvalues --    0.16833   0.17910   0.28845   0.31302   0.33163
 Alpha virt. eigenvalues --    0.36444   0.39085   0.39949   0.40511   0.42814

 Mulliken charges:
               1
     1  C    0.060444
     2  O   -0.350190
     3  H    0.058750
     4  H    0.046321
     5  H    0.085757
     6  H    0.098917
 Sum of Mulliken charges =   0.00000

 Dipole moment (field-independent basis, Debye):
    X=             -1.0537    Y=             -1.2314    Z=              0.3351  Tot=              1.6550
 Quadrupole moment (field-independent basis, Debye-Ang):
   XX=            -13.2468   YY=            -12.4219   ZZ=            -13.4818
   XY=             -2.0379   XZ=              0.2868   YZ=             -0.2704

 Normal termination of Gaussian 09 at Wed Aug 26 14:56:47 2020.
