 Gaussian 09, Revision D.01,
 Gaussian 09:  ES64L-G09RevD.01 24-Apr-2013

 --------------------
 #p B2PLYPD3/Def2QZVP
 --------------------

 --------
 methanol
 --------
 Symbolic Z-matrix:
 Charge =  0 Multiplicity = 1

                         Standard orientation:
 ---------------------------------------------------------------------
 Center     Atomic      Atomic             Coordinates (Angstroms)
 Number     Number       Type             X           Y           Z
 ---------------------------------------------------------------------
      1          6           0        0.669039    0.030529   -0.000393
      2          8           0       -0.742937   -0.148104   -0.001176
      3          1           0        0.986907    0.520305    0.844483
      4          1           0        0.973427    0.562812   -0.828649
      5          1           0        1.127739   -0.944022   -0.016151
      6          1           0       -1.158807    0.862563    0.012076
 ---------------------------------------------------------------------

 SCF Done:  E(RB2PLYPD3) =  -115.532557052     A.U. after   11 cycles
 E2(B2PLYPD3) =    -0.1492798744D+00 E(B2PLYPD3) =    -0.11568183692669D+03

 The electronic state is 1-A.
 Alpha  occ. eigenvalues --  -19.73363 -10.63858  -1.13806  -0.78880  -0.57037
 Alpha  occ. eigenvalues --   -0.52857  -0.49340  -0.40881  -0.35218
 Alpha virt. eigenvalues --    0.03867   0.07936   0.12520   0.12674   0.14852
 Alpha virt. eigenvalues --    0.17595   0.17987   0.29035   0.30353   0.33404
 Alpha virt. eigenvalues --    0.33863   0.39237   0.40032   0.42584   0.44115

 Mulliken charges:
               1
     1  C    0.088141
     2  O   -0.491545
     3  H    0.046053
     4  H    0.045674
     5  H    0.064162
     6  H    0.247515
 Sum of Mulliken charges =   0.00000

 Dipole moment (field-independent basis, Debye):
    X=              0.9490    Y=              1.6672    Z=              0.0256  Tot=              1.9186
 Quadrupole moment (field-independent basis, Debye-Ang):
   XX=            -13.0147   YY=            -11.9422   ZZ=            -13.8185
   XY=             -2.3745   XZ=             -0.0129   YZ=              0.0103

 Normal termination of Gaussian 09 at Thu Aug 27 00:15:19 2020.
