 Gaussian 09, Revision D.01,
 Gaussian 09:  ES64L-G09RevD.01 24-Apr-2013

 --------------------
 #p B2PLYPD3/Def2QZVP
 --------------------

 --------
 methanol
 --------
 Symbolic Z-matrix:
 Charge =  0 Multiplicity = 1

                         Standard orientation:
 ---------------------------------------------------------------------
 Center     Atomic      Atomic             Coordinates (Angstroms)
 Number     Number       Type             X           Y           Z
 ---------------------------------------------------------------------
      1          6           0        0.680574   -0.004019    0.013341
      2          8           0       -0.766168   -0.064131   -0.043372
      3          1           0        1.025333   -0.003843    1.127665
      4          1           0        1.047491    1.053976   -0.552980
      5          1           0        1.159202   -0.889089   -0.538237
      6          1           0       -1.186126    0.376118    0.230487
 ---------------------------------------------------------------------

 SCF Done:  E(RB2PLYPD3) =  -115.355019536     A.U. after   11 cycles
 E2(B2PLYPD3) =    -0.1444591077D+00 E(B2PLYPD3) =    -0.11549947864399D+03

 The electronic state is 1-A.
 Alpha  occ. eigenvalues --  -19.69071 -10.70203  -1.24138  -0.81929  -0.61255
 Alpha  occ. eigenvalues --   -0.50808  -0.49956  -0.39713  -0.35782
 Alpha virt. eigenvalues --    0.05135   0.09067   0.11272   0.12010   0.13900
 Alpha virt. eigenvalues --    0.17050   0.17607   0.28694   0.30632   0.32278
 Alpha virt. eigenvalues --    0.35327   0.36694   0.37944   0.40985   0.42294

 Mulliken charges:
               1
     1  C    0.060043
     2  O   -0.239740
     3  H    0.058253
     4  H    0.041556
     5  H    0.095390
     6  H   -0.015502
 Sum of Mulliken charges =   0.00000

 Dipole moment (field-independent basis, Debye):
    X=              0.9396    Y=              0.8304    Z=              0.6334  Tot=              1.4048
 Quadrupole moment (field-independent basis, Debye-Ang):
   XX=            -12.6403   YY=            -13.0780   ZZ=            -13.3560
   XY=             -1.8393   XZ=             -1.0159   YZ=              0.3725

 Normal termination of Gaussian 09 at Wed Aug 26 22:48:04 2020.
