 Gaussian 09, Revision D.01,
 Gaussian 09:  ES64L-G09RevD.01 24-Apr-2013

 --------------------
 #p B2PLYPD3/Def2QZVP
 --------------------

 --------
 methanol
 --------
 Symbolic Z-matrix:
 Charge =  0 Multiplicity = 1

                         Standard orientation:
 ---------------------------------------------------------------------
 Center     Atomic      Atomic             Coordinates (Angstroms)
 Number     Number       Type             X           Y           Z
 ---------------------------------------------------------------------
      1          6           0        0.660975   -0.006532    0.004710
      2          8           0       -0.748952    0.095817   -0.006166
      3          1           0        1.063158   -0.650560   -0.887432
      4          1           0        1.058493   -0.483778    0.961214
      5          1           0        1.068194    1.020263   -0.085539
      6          1           0       -1.164079   -0.613263    0.032825
 ---------------------------------------------------------------------

 SCF Done:  E(RB2PLYPD3) =  -115.524489117     A.U. after   10 cycles
 E2(B2PLYPD3) =    -0.1453868264D+00 E(B2PLYPD3) =    -0.11566987594372D+03

 The electronic state is 1-A.
 Alpha  occ. eigenvalues --  -19.71293 -10.67572  -1.19613  -0.79774  -0.60539
 Alpha  occ. eigenvalues --   -0.50767  -0.50562  -0.40716  -0.35402
 Alpha virt. eigenvalues --    0.05365   0.08599   0.12066   0.12265   0.14799
 Alpha virt. eigenvalues --    0.17036   0.17941   0.28994   0.32927   0.33436
 Alpha virt. eigenvalues --    0.36879   0.38913   0.39398   0.39739   0.42314

 Mulliken charges:
               1
     1  C    0.060687
     2  O   -0.374955
     3  H    0.040052
     4  H    0.047742
     5  H    0.081173
     6  H    0.145299
 Sum of Mulliken charges =   0.00000

 Dipole moment (field-independent basis, Debye):
    X=              0.7632    Y=             -1.2865    Z=              0.1003  Tot=              1.4992
 Quadrupole moment (field-independent basis, Debye-Ang):
   XX=            -12.8277   YY=            -12.5090   ZZ=            -13.8210
   XY=              2.1548   XZ=             -0.0876   YZ=             -0.0904

 Normal termination of Gaussian 09 at Wed Aug 26 14:28:22 2020.
