 Gaussian 09, Revision D.01,
 Gaussian 09:  ES64L-G09RevD.01 24-Apr-2013

 --------------------
 #p B2PLYPD3/Def2QZVP
 --------------------

 --------
 methanol
 --------
 Symbolic Z-matrix:
 Charge =  0 Multiplicity = 1

                         Standard orientation:
 ---------------------------------------------------------------------
 Center     Atomic      Atomic             Coordinates (Angstroms)
 Number     Number       Type             X           Y           Z
 ---------------------------------------------------------------------
      1          6           0        0.658712   -0.007782   -0.002508
      2          8           0       -0.750002    0.095008   -0.006012
      3          1           0        1.070712   -0.630219   -0.873277
      4          1           0        1.037048   -0.489304    0.962202
      5          1           0        1.043916    1.038896   -0.054680
      6          1           0       -1.103928   -0.632740    0.028900
 ---------------------------------------------------------------------

 SCF Done:  E(RB2PLYPD3) =  -115.520892967     A.U. after   10 cycles
 E2(B2PLYPD3) =    -0.1451716573D+00 E(B2PLYPD3) =    -0.11566606462475D+03

 The electronic state is 1-A.
 Alpha  occ. eigenvalues --  -19.71244 -10.67323  -1.20371  -0.79673  -0.60756
 Alpha  occ. eigenvalues --   -0.51047  -0.50357  -0.41333  -0.35551
 Alpha virt. eigenvalues --    0.05356   0.08764   0.12061   0.12181   0.14883
 Alpha virt. eigenvalues --    0.17012   0.17902   0.28951   0.32989   0.33508
 Alpha virt. eigenvalues --    0.37267   0.39099   0.39274   0.39889   0.42521

 Mulliken charges:
               1
     1  C    0.059049
     2  O   -0.357936
     3  H    0.044999
     4  H    0.044935
     5  H    0.077570
     6  H    0.131382
 Sum of Mulliken charges =   0.00000

 Dipole moment (field-independent basis, Debye):
    X=              0.8466    Y=             -1.3243    Z=              0.0676  Tot=              1.5733
 Quadrupole moment (field-independent basis, Debye-Ang):
   XX=            -13.1219   YY=            -12.3587   ZZ=            -13.7818
   XY=              2.0423   XZ=             -0.1222   YZ=             -0.0318

 Normal termination of Gaussian 09 at Thu Aug 27 00:10:35 2020.
