 Gaussian 09, Revision D.01,
 Gaussian 09:  ES64L-G09RevD.01 24-Apr-2013

 --------------------
 #p B2PLYPD3/Def2QZVP
 --------------------

 --------
 methanol
 --------
 Symbolic Z-matrix:
 Charge =  0 Multiplicity = 1

                         Standard orientation:
 ---------------------------------------------------------------------
 Center     Atomic      Atomic             Coordinates (Angstroms)
 Number     Number       Type             X           Y           Z
 ---------------------------------------------------------------------
      1          6           0        0.644229   -0.026598    0.014081
      2          8           0       -0.742150    0.087284   -0.021418
      3          1           0        0.997154   -0.855765   -0.761237
      4          1           0        1.088906   -0.220213    1.020094
      5          1           0        1.116949    1.032827   -0.323767
      6          1           0       -1.131185   -0.495534    0.151764
 ---------------------------------------------------------------------

 SCF Done:  E(RB2PLYPD3) =  -115.443259857     A.U. after   11 cycles
 E2(B2PLYPD3) =    -0.1441824703D+00 E(B2PLYPD3) =    -0.11558744232759D+03

 The electronic state is 1-A.
 Alpha  occ. eigenvalues --  -19.70388 -10.68562  -1.23990  -0.81230  -0.62162
 Alpha  occ. eigenvalues --   -0.51875  -0.50075  -0.39728  -0.36012
 Alpha virt. eigenvalues --    0.05315   0.09008   0.11749   0.12061   0.14591
 Alpha virt. eigenvalues --    0.17027   0.18099   0.28619   0.32662   0.34201
 Alpha virt. eigenvalues --    0.35502   0.37701   0.39792   0.40496   0.42387

 Mulliken charges:
               1
     1  C    0.045064
     2  O   -0.251736
     3  H    0.042215
     4  H    0.058129
     5  H    0.066815
     6  H    0.039513
 Sum of Mulliken charges =   0.00000

 Dipole moment (field-independent basis, Debye):
    X=              0.7006    Y=             -1.1782    Z=              0.4283  Tot=              1.4361
 Quadrupole moment (field-independent basis, Debye-Ang):
   XX=            -12.8621   YY=            -12.8375   ZZ=            -13.5965
   XY=              1.9226   XZ=             -0.3772   YZ=             -0.1988

 Normal termination of Gaussian 09 at Wed Aug 26 11:39:39 2020.
