 Gaussian 09, Revision D.01,
 Gaussian 09:  ES64L-G09RevD.01 24-Apr-2013

 --------------------
 #p B2PLYPD3/Def2QZVP
 --------------------

 --------
 methanol
 --------
 Symbolic Z-matrix:
 Charge =  0 Multiplicity = 1

                         Standard orientation:
 ---------------------------------------------------------------------
 Center     Atomic      Atomic             Coordinates (Angstroms)
 Number     Number       Type             X           Y           Z
 ---------------------------------------------------------------------
      1          6           0        0.661254   -0.014235    0.007880
      2          8           0       -0.753050    0.109020   -0.006336
      3          1           0        1.049773   -0.643855   -0.853226
      4          1           0        1.018980   -0.466455    0.931910
      5          1           0        1.089400    1.013747   -0.094141
      6          1           0       -1.101276   -0.690188    0.018871
 ---------------------------------------------------------------------

 SCF Done:  E(RB2PLYPD3) =  -115.543805567     A.U. after   10 cycles
 E2(B2PLYPD3) =    -0.1460246310D+00 E(B2PLYPD3) =    -0.11568983019835D+03

 The electronic state is 1-A.
 Alpha  occ. eigenvalues --  -19.71883 -10.66547  -1.18400  -0.79054  -0.59997
 Alpha  occ. eigenvalues --   -0.51510  -0.49923  -0.41372  -0.35585
 Alpha virt. eigenvalues --    0.05250   0.08551   0.12165   0.12313   0.14867
 Alpha virt. eigenvalues --    0.17295   0.17921   0.29071   0.33060   0.33378
 Alpha virt. eigenvalues --    0.37100   0.38509   0.39440   0.40598   0.43242

 Mulliken charges:
               1
     1  C    0.066750
     2  O   -0.413481
     3  H    0.041421
     4  H    0.052051
     5  H    0.071829
     6  H    0.181430
 Sum of Mulliken charges =   0.00000

 Dipole moment (field-independent basis, Debye):
    X=              0.9081    Y=             -1.4288    Z=              0.0835  Tot=              1.6950
 Quadrupole moment (field-independent basis, Debye-Ang):
   XX=            -13.1323   YY=            -12.2885   ZZ=            -13.7841
   XY=              2.1262   XZ=             -0.0556   YZ=             -0.0801

 Normal termination of Gaussian 09 at Thu Aug 27 00:13:47 2020.
