 Gaussian 09, Revision D.01,
 Gaussian 09:  ES64L-G09RevD.01 24-Apr-2013

 --------------------
 #p B2PLYPD3/Def2QZVP
 --------------------

 --------
 methanol
 --------
 Symbolic Z-matrix:
 Charge =  0 Multiplicity = 1

                         Standard orientation:
 ---------------------------------------------------------------------
 Center     Atomic      Atomic             Coordinates (Angstroms)
 Number     Number       Type             X           Y           Z
 ---------------------------------------------------------------------
      1          6           0        0.692695   -0.038356    0.014464
      2          8           0       -0.761418    0.060842   -0.007406
      3          1           0        1.048718   -0.766575   -0.852365
      4          1           0        1.066157   -0.326795    1.026365
      5          1           0        1.030235    1.202942   -0.245268
      6          1           0       -1.209936   -0.366173    0.043735
 ---------------------------------------------------------------------

 SCF Done:  E(RB2PLYPD3) =  -115.244589272     A.U. after   11 cycles
 E2(B2PLYPD3) =    -0.1444827200D+00 E(B2PLYPD3) =    -0.11538907199164D+03

 The electronic state is 1-A.
 Alpha  occ. eigenvalues --  -19.68022 -10.70873  -1.25554  -0.82866  -0.61703
 Alpha  occ. eigenvalues --   -0.51589  -0.47940  -0.38316  -0.36649
 Alpha virt. eigenvalues --    0.04800   0.09326   0.10600   0.11735   0.14097
 Alpha virt. eigenvalues --    0.16357   0.17818   0.28502   0.30542   0.32560
 Alpha virt. eigenvalues --    0.33161   0.36644   0.39327   0.40394   0.41958

 Mulliken charges:
               1
     1  C    0.046116
     2  O   -0.197028
     3  H    0.065171
     4  H    0.079790
     5  H    0.074559
     6  H   -0.068609
 Sum of Mulliken charges =   0.00000

 Dipole moment (field-independent basis, Debye):
    X=              0.9127    Y=             -1.1209    Z=              0.1988  Tot=              1.4591
 Quadrupole moment (field-independent basis, Debye-Ang):
   XX=            -12.6185   YY=            -12.8357   ZZ=            -13.3946
   XY=              1.4995   XZ=             -0.0755   YZ=             -0.0478

 Normal termination of Gaussian 09 at Wed Aug 26 22:05:01 2020.
