 Gaussian 09, Revision D.01,
 Gaussian 09:  ES64L-G09RevD.01 24-Apr-2013

 --------------------
 #p B2PLYPD3/Def2QZVP
 --------------------

 --------
 methanol
 --------
 Symbolic Z-matrix:
 Charge =  0 Multiplicity = 1

                         Standard orientation:
 ---------------------------------------------------------------------
 Center     Atomic      Atomic             Coordinates (Angstroms)
 Number     Number       Type             X           Y           Z
 ---------------------------------------------------------------------
      1          6           0        0.671546   -0.004678    0.003013
      2          8           0       -0.742016    0.093649   -0.008027
      3          1           0        1.053177   -0.610474   -0.896383
      4          1           0        0.995513   -0.502975    0.958392
      5          1           0        0.981288    1.025959   -0.041655
      6          1           0       -1.123129   -0.633637    0.025782
 ---------------------------------------------------------------------

 SCF Done:  E(RB2PLYPD3) =  -115.526168687     A.U. after   10 cycles
 E2(B2PLYPD3) =    -0.1451059415D+00 E(B2PLYPD3) =    -0.11567127462892D+03

 The electronic state is 1-A.
 Alpha  occ. eigenvalues --  -19.70834 -10.66733  -1.19474  -0.80013  -0.60197
 Alpha  occ. eigenvalues --   -0.51354  -0.50566  -0.41224  -0.35364
 Alpha virt. eigenvalues --    0.05383   0.08869   0.12054   0.12285   0.14781
 Alpha virt. eigenvalues --    0.16740   0.17796   0.29075   0.32935   0.33291
 Alpha virt. eigenvalues --    0.37532   0.39536   0.39645   0.40200   0.43222

 Mulliken charges:
               1
     1  C    0.063013
     2  O   -0.378872
     3  H    0.044635
     4  H    0.048170
     5  H    0.082953
     6  H    0.140101
 Sum of Mulliken charges =   0.00000

 Dipole moment (field-independent basis, Debye):
    X=              0.8416    Y=             -1.3121    Z=              0.0869  Tot=              1.5612
 Quadrupole moment (field-independent basis, Debye-Ang):
   XX=            -13.1564   YY=            -12.2851   ZZ=            -13.6591
   XY=              2.0616   XZ=             -0.1164   YZ=             -0.0564

 Normal termination of Gaussian 09 at Wed Aug 26 12:34:29 2020.
