 Gaussian 09, Revision D.01,
 Gaussian 09:  ES64L-G09RevD.01 24-Apr-2013

 --------------------
 #p B2PLYPD3/Def2QZVP
 --------------------

 --------
 methanol
 --------
 Symbolic Z-matrix:
 Charge =  0 Multiplicity = 1

                         Standard orientation:
 ---------------------------------------------------------------------
 Center     Atomic      Atomic             Coordinates (Angstroms)
 Number     Number       Type             X           Y           Z
 ---------------------------------------------------------------------
      1          6           0        0.668054   -0.025599    0.003336
      2          8           0       -0.757888    0.092800   -0.007720
      3          1           0        0.944234   -0.756952   -0.818577
      4          1           0        1.068815   -0.336556    0.975191
      5          1           0        1.071630    1.075178   -0.213111
      6          1           0       -1.029902   -0.570472    0.098237
 ---------------------------------------------------------------------

 SCF Done:  E(RB2PLYPD3) =  -115.452013265     A.U. after   10 cycles
 E2(B2PLYPD3) =    -0.1443123687D+00 E(B2PLYPD3) =    -0.11559632563345D+03

 The electronic state is 1-A.
 Alpha  occ. eigenvalues --  -19.70081 -10.67728  -1.23349  -0.80225  -0.61410
 Alpha  occ. eigenvalues --   -0.52384  -0.49156  -0.41560  -0.36283
 Alpha virt. eigenvalues --    0.05317   0.09155   0.11636   0.12042   0.14599
 Alpha virt. eigenvalues --    0.17028   0.17745   0.28692   0.31876   0.33318
 Alpha virt. eigenvalues --    0.36113   0.38440   0.40214   0.40653   0.42950

 Mulliken charges:
               1
     1  C    0.057054
     2  O   -0.277979
     3  H    0.052177
     4  H    0.058715
     5  H    0.068318
     6  H    0.041714
 Sum of Mulliken charges =   0.00000

 Dipole moment (field-independent basis, Debye):
    X=              1.0473    Y=             -1.3266    Z=              0.2441  Tot=              1.7077
 Quadrupole moment (field-independent basis, Debye-Ang):
   XX=            -13.4287   YY=            -12.3488   ZZ=            -13.5210
   XY=              1.8540   XZ=             -0.1256   YZ=             -0.1238

 Normal termination of Gaussian 09 at Wed Aug 26 14:20:31 2020.
