 Gaussian 09, Revision D.01,
 Gaussian 09:  ES64L-G09RevD.01 24-Apr-2013

 --------------------
 #p B2PLYPD3/Def2QZVP
 --------------------

 --------
 methanol
 --------
 Symbolic Z-matrix:
 Charge =  0 Multiplicity = 1

                         Standard orientation:
 ---------------------------------------------------------------------
 Center     Atomic      Atomic             Coordinates (Angstroms)
 Number     Number       Type             X           Y           Z
 ---------------------------------------------------------------------
      1          6           0        0.668955   -0.008952    0.005963
      2          8           0       -0.750795    0.102397   -0.012866
      3          1           0        1.076447   -0.670531   -0.874683
      4          1           0        1.076896   -0.416017    0.983088
      5          1           0        1.050488    0.976999   -0.118636
      6          1           0       -1.211198   -0.655911    0.077378
 ---------------------------------------------------------------------

 SCF Done:  E(RB2PLYPD3) =  -115.542595225     A.U. after   10 cycles
 E2(B2PLYPD3) =    -0.1464721442D+00 E(B2PLYPD3) =    -0.11568906736934D+03

 The electronic state is 1-A.
 Alpha  occ. eigenvalues --  -19.71915 -10.67014  -1.17226  -0.79278  -0.59344
 Alpha  occ. eigenvalues --   -0.50651  -0.50512  -0.40500  -0.35305
 Alpha virt. eigenvalues --    0.05280   0.08211   0.12080   0.12530   0.14742
 Alpha virt. eigenvalues --    0.16954   0.18256   0.28976   0.32980   0.33277
 Alpha virt. eigenvalues --    0.36215   0.38548   0.39350   0.40250   0.42914

 Mulliken charges:
               1
     1  C    0.063068
     2  O   -0.434091
     3  H    0.041576
     4  H    0.049600
     5  H    0.082130
     6  H    0.197717
 Sum of Mulliken charges =   0.00000

 Dipole moment (field-independent basis, Debye):
    X=              0.7417    Y=             -1.3034    Z=              0.1968  Tot=              1.5125
 Quadrupole moment (field-independent basis, Debye-Ang):
   XX=            -12.6437   YY=            -12.5630   ZZ=            -13.7988
   XY=              2.2864   XZ=             -0.2142   YZ=             -0.1491

 Normal termination of Gaussian 09 at Wed Aug 26 13:11:55 2020.
