 Gaussian 09, Revision D.01,
 Gaussian 09:  ES64L-G09RevD.01 24-Apr-2013

 --------------------
 #p B2PLYPD3/Def2QZVP
 --------------------

 --------
 methanol
 --------
 Symbolic Z-matrix:
 Charge =  0 Multiplicity = 1

                         Standard orientation:
 ---------------------------------------------------------------------
 Center     Atomic      Atomic             Coordinates (Angstroms)
 Number     Number       Type             X           Y           Z
 ---------------------------------------------------------------------
      1          6           0        0.678695    0.033835    0.010426
      2          8           0       -0.745513   -0.152741   -0.014254
      3          1           0        0.935417    0.416745    0.879436
      4          1           0        1.022781    0.588280   -0.816821
      5          1           0        1.080811   -0.908625   -0.057207
      6          1           0       -1.147077    0.922523    0.046074
 ---------------------------------------------------------------------

 SCF Done:  E(RB2PLYPD3) =  -115.513975165     A.U. after   11 cycles
 E2(B2PLYPD3) =    -0.1505359654D+00 E(B2PLYPD3) =    -0.11566451112994D+03

 The electronic state is 1-A.
 Alpha  occ. eigenvalues --  -19.73645 -10.63082  -1.12754  -0.79325  -0.56133
 Alpha  occ. eigenvalues --   -0.53581  -0.48915  -0.40799  -0.35335
 Alpha virt. eigenvalues --    0.03257   0.07887   0.12510   0.12690   0.14643
 Alpha virt. eigenvalues --    0.17412   0.18261   0.27869   0.29615   0.33279
 Alpha virt. eigenvalues --    0.33634   0.39311   0.40442   0.42844   0.44056

 Mulliken charges:
               1
     1  C    0.090342
     2  O   -0.499640
     3  H    0.051641
     4  H    0.046930
     5  H    0.062723
     6  H    0.248004
 Sum of Mulliken charges =   0.00000

 Dipole moment (field-independent basis, Debye):
    X=              1.0606    Y=              1.6480    Z=              0.1428  Tot=              1.9650
 Quadrupole moment (field-independent basis, Debye-Ang):
   XX=            -13.1577   YY=            -11.8562   ZZ=            -13.6704
   XY=             -2.3828   XZ=             -0.1451   YZ=              0.0857

 Normal termination of Gaussian 09 at Wed Aug 26 12:12:47 2020.
