 Gaussian 09, Revision D.01,
 Gaussian 09:  ES64L-G09RevD.01 24-Apr-2013

 --------------------
 #p B2PLYPD3/Def2QZVP
 --------------------

 --------
 methanol
 --------
 Symbolic Z-matrix:
 Charge =  0 Multiplicity = 1

                         Standard orientation:
 ---------------------------------------------------------------------
 Center     Atomic      Atomic             Coordinates (Angstroms)
 Number     Number       Type             X           Y           Z
 ---------------------------------------------------------------------
      1          6           0        0.662559   -0.013413   -0.004483
      2          8           0       -0.751953    0.105598    0.002070
      3          1           0        1.073619   -0.544770   -0.880677
      4          1           0        1.025576   -0.568714    0.906225
      5          1           0        1.059460    1.031847    0.013486
      6          1           0       -1.118390   -0.682672   -0.028698
 ---------------------------------------------------------------------

 SCF Done:  E(RB2PLYPD3) =  -115.543250467     A.U. after   10 cycles
 E2(B2PLYPD3) =    -0.1460079011D+00 E(B2PLYPD3) =    -0.11568925836792D+03

 The electronic state is 1-A.
 Alpha  occ. eigenvalues --  -19.71839 -10.66627  -1.18370  -0.79121  -0.60148
 Alpha  occ. eigenvalues --   -0.51234  -0.49860  -0.41392  -0.35518
 Alpha virt. eigenvalues --    0.05267   0.08532   0.12156   0.12305   0.14976
 Alpha virt. eigenvalues --    0.17116   0.17954   0.29093   0.32987   0.33625
 Alpha virt. eigenvalues --    0.37370   0.38444   0.39635   0.40125   0.42802

 Mulliken charges:
               1
     1  C    0.064569
     2  O   -0.411836
     3  H    0.048870
     4  H    0.045344
     5  H    0.073142
     6  H    0.179911
 Sum of Mulliken charges =   0.00000

 Dipole moment (field-independent basis, Debye):
    X=              0.8731    Y=             -1.4222    Z=             -0.0783  Tot=              1.6706
 Quadrupole moment (field-independent basis, Debye-Ang):
   XX=            -13.0649   YY=            -12.2770   ZZ=            -13.8253
   XY=              2.0945   XZ=              0.0037   YZ=              0.0639

 Normal termination of Gaussian 09 at Wed Aug 26 09:51:31 2020.
