 Gaussian 09, Revision D.01,
 Gaussian 09:  ES64L-G09RevD.01 24-Apr-2013

 --------------------
 #p B2PLYPD3/Def2QZVP
 --------------------

 --------
 methanol
 --------
 Symbolic Z-matrix:
 Charge =  0 Multiplicity = 1

                         Standard orientation:
 ---------------------------------------------------------------------
 Center     Atomic      Atomic             Coordinates (Angstroms)
 Number     Number       Type             X           Y           Z
 ---------------------------------------------------------------------
      1          6           0        0.649161   -0.017117   -0.027696
      2          8           0       -0.759842    0.076018    0.007314
      3          1           0        1.046781   -0.644368   -0.835426
      4          1           0        1.175010   -0.459770    0.968730
      5          1           0        1.011071    1.151173   -0.067144
      6          1           0       -1.049088   -0.552474    0.041499
 ---------------------------------------------------------------------

 SCF Done:  E(RB2PLYPD3) =  -115.402266233     A.U. after   11 cycles
 E2(B2PLYPD3) =    -0.1444178355D+00 E(B2PLYPD3) =    -0.11554668406824D+03

 The electronic state is 1-A.
 Alpha  occ. eigenvalues --  -19.70468 -10.68816  -1.25430  -0.80779  -0.62734
 Alpha  occ. eigenvalues --   -0.51172  -0.49417  -0.41450  -0.36027
 Alpha virt. eigenvalues --    0.05217   0.08912   0.11289   0.12063   0.15153
 Alpha virt. eigenvalues --    0.16741   0.18011   0.28614   0.32238   0.33062
 Alpha virt. eigenvalues --    0.35581   0.36910   0.40135   0.40875   0.41454

 Mulliken charges:
               1
     1  C    0.042186
     2  O   -0.227233
     3  H    0.062116
     4  H    0.037130
     5  H    0.068181
     6  H    0.017621
 Sum of Mulliken charges =   0.00000

 Dipole moment (field-independent basis, Debye):
    X=              0.8796    Y=             -1.2963    Z=             -0.0443  Tot=              1.5671
 Quadrupole moment (field-independent basis, Debye-Ang):
   XX=            -13.2481   YY=            -12.3715   ZZ=            -13.8606
   XY=              1.6689   XZ=             -0.1236   YZ=              0.1200

 Normal termination of Gaussian 09 at Wed Aug 26 23:27:33 2020.
