 Gaussian 09, Revision D.01,
 Gaussian 09:  ES64L-G09RevD.01 24-Apr-2013

 --------------------
 #p B2PLYPD3/Def2QZVP
 --------------------

 --------
 methanol
 --------
 Symbolic Z-matrix:
 Charge =  0 Multiplicity = 1

                         Standard orientation:
 ---------------------------------------------------------------------
 Center     Atomic      Atomic             Coordinates (Angstroms)
 Number     Number       Type             X           Y           Z
 ---------------------------------------------------------------------
      1          6           0       -0.675590   -0.036588    0.019630
      2          8           0        0.762195    0.081190   -0.029459
      3          1           0       -1.001089   -0.313614    0.998692
      4          1           0       -1.069402   -0.749599   -0.829778
      5          1           0       -1.092230    1.115972   -0.193896
      6          1           0        1.118701   -0.482747    0.142872
 ---------------------------------------------------------------------

 SCF Done:  E(RB2PLYPD3) =  -115.397554502     A.U. after   11 cycles
 E2(B2PLYPD3) =    -0.1442607783D+00 E(B2PLYPD3) =    -0.11554181528008D+03

 The electronic state is 1-A.
 Alpha  occ. eigenvalues --  -19.69523 -10.68733  -1.23936  -0.81184  -0.61779
 Alpha  occ. eigenvalues --   -0.52023  -0.48675  -0.40307  -0.36588
 Alpha virt. eigenvalues --    0.05227   0.09131   0.11373   0.11896   0.14443
 Alpha virt. eigenvalues --    0.16832   0.17991   0.28699   0.31593   0.33236
 Alpha virt. eigenvalues --    0.34424   0.37489   0.40393   0.41280   0.42194

 Mulliken charges:
               1
     1  C    0.050533
     2  O   -0.249597
     3  H    0.069792
     4  H    0.058251
     5  H    0.066157
     6  H    0.004864
 Sum of Mulliken charges =   0.00000

 Dipole moment (field-independent basis, Debye):
    X=             -0.9669    Y=             -1.2328    Z=              0.4707  Tot=              1.6359
 Quadrupole moment (field-independent basis, Debye-Ang):
   XX=            -13.0003   YY=            -12.7084   ZZ=            -13.3906
   XY=             -1.7525   XZ=              0.4551   YZ=             -0.1911

 Normal termination of Gaussian 09 at Wed Aug 26 13:12:18 2020.
