 Gaussian 09, Revision D.01,
 Gaussian 09:  ES64L-G09RevD.01 24-Apr-2013

 --------------------
 #p B2PLYPD3/Def2QZVP
 --------------------

 --------
 methanol
 --------
 Symbolic Z-matrix:
 Charge =  0 Multiplicity = 1

                         Standard orientation:
 ---------------------------------------------------------------------
 Center     Atomic      Atomic             Coordinates (Angstroms)
 Number     Number       Type             X           Y           Z
 ---------------------------------------------------------------------
      1          6           0       -0.679357    0.029899    0.001943
      2          8           0        0.733178   -0.209200   -0.006427
      3          1           0       -1.030282    0.481722   -0.715272
      4          1           0       -0.762269    0.626913    0.718545
      5          1           0       -1.158023   -0.808577    0.080177
      6          1           0        1.161291    1.194151   -0.043695
 ---------------------------------------------------------------------

 SCF Done:  E(RB2PLYPD3) =  -115.387236829     A.U. after   12 cycles
 E2(B2PLYPD3) =    -0.1570402469D+00 E(B2PLYPD3) =    -0.11554427707635D+03

 The electronic state is 1-A.
 Alpha  occ. eigenvalues --  -19.75290 -10.60172  -1.11337  -0.81459  -0.56578
 Alpha  occ. eigenvalues --   -0.54253  -0.48033  -0.39422  -0.34934
 Alpha virt. eigenvalues --   -0.02754   0.07607   0.12380   0.13151   0.14359
 Alpha virt. eigenvalues --    0.17566   0.18185   0.21729   0.29757   0.32074
 Alpha virt. eigenvalues --    0.34263   0.39303   0.39755   0.44286   0.45319

 Mulliken charges:
               1
     1  C    0.106653
     2  O   -0.476805
     3  H    0.039715
     4  H    0.055921
     5  H    0.056380
     6  H    0.218136
 Sum of Mulliken charges =   0.00000

 Dipole moment (field-independent basis, Debye):
    X=             -1.2810    Y=              1.8167    Z=             -0.0548  Tot=              2.2236
 Quadrupole moment (field-independent basis, Debye-Ang):
   XX=            -13.2827   YY=            -11.0156   ZZ=            -14.0104
   XY=              2.4302   XZ=              0.1722   YZ=             -0.0397

 Normal termination of Gaussian 09 at Wed Aug 26 23:03:16 2020.
