 Gaussian 09, Revision D.01,
 Gaussian 09:  ES64L-G09RevD.01 24-Apr-2013

 --------------------
 #p B2PLYPD3/Def2QZVP
 --------------------

 --------
 methanol
 --------
 Symbolic Z-matrix:
 Charge =  0 Multiplicity = 1

                         Standard orientation:
 ---------------------------------------------------------------------
 Center     Atomic      Atomic             Coordinates (Angstroms)
 Number     Number       Type             X           Y           Z
 ---------------------------------------------------------------------
      1          6           0       -0.659594   -0.005693    0.024069
      2          8           0        0.765202   -0.070570   -0.042461
      3          1           0       -1.056134    1.088178   -0.556984
      4          1           0       -1.008845    0.034327    1.026882
      5          1           0       -1.189776   -0.949215   -0.483420
      6          1           0        1.090699    0.425429    0.208797
 ---------------------------------------------------------------------

 SCF Done:  E(RB2PLYPD3) =  -115.310024578     A.U. after   11 cycles
 E2(B2PLYPD3) =    -0.1440056324D+00 E(B2PLYPD3) =    -0.11545403021003D+03

 The electronic state is 1-A.
 Alpha  occ. eigenvalues --  -19.69570 -10.69553  -1.26738  -0.82099  -0.62818
 Alpha  occ. eigenvalues --   -0.50744  -0.50395  -0.40865  -0.35979
 Alpha virt. eigenvalues --    0.05031   0.09200   0.11031   0.12040   0.14444
 Alpha virt. eigenvalues --    0.17106   0.17770   0.28434   0.31076   0.32288
 Alpha virt. eigenvalues --    0.34776   0.35465   0.40179   0.41659   0.42809

 Mulliken charges:
               1
     1  C    0.056580
     2  O   -0.206979
     3  H    0.023962
     4  H    0.067134
     5  H    0.083238
     6  H   -0.023935
 Sum of Mulliken charges =   0.00000

 Dipole moment (field-independent basis, Debye):
    X=             -0.9645    Y=              0.8825    Z=              0.7310  Tot=              1.4978
 Quadrupole moment (field-independent basis, Debye-Ang):
   XX=            -12.9810   YY=            -12.8401   ZZ=            -13.5031
   XY=              1.9432   XZ=              0.6654   YZ=              0.4170

 Normal termination of Gaussian 09 at Wed Aug 26 19:58:01 2020.
