 Gaussian 09, Revision D.01,
 Gaussian 09:  ES64L-G09RevD.01 24-Apr-2013

 --------------------
 #p B2PLYPD3/Def2QZVP
 --------------------

 --------
 methanol
 --------
 Symbolic Z-matrix:
 Charge =  0 Multiplicity = 1

                         Standard orientation:
 ---------------------------------------------------------------------
 Center     Atomic      Atomic             Coordinates (Angstroms)
 Number     Number       Type             X           Y           Z
 ---------------------------------------------------------------------
      1          6           0        0.656044    0.030673    0.003171
      2          8           0       -0.738869   -0.148108   -0.004564
      3          1           0        0.993377    0.493107    0.846304
      4          1           0        1.019862    0.571549   -0.813587
      5          1           0        1.109260   -0.949111   -0.030080
      6          1           0       -1.147807    0.885279    0.014850
 ---------------------------------------------------------------------

 SCF Done:  E(RB2PLYPD3) =  -115.528877027     A.U. after   11 cycles
 E2(B2PLYPD3) =    -0.1495534794D+00 E(B2PLYPD3) =    -0.11567843050656D+03

 The electronic state is 1-A.
 Alpha  occ. eigenvalues --  -19.73742 -10.63789  -1.14291  -0.78705  -0.57267
 Alpha  occ. eigenvalues --   -0.52682  -0.49475  -0.40761  -0.35242
 Alpha virt. eigenvalues --    0.03595   0.07882   0.12519   0.12750   0.15017
 Alpha virt. eigenvalues --    0.17573   0.18182   0.28651   0.29930   0.33501
 Alpha virt. eigenvalues --    0.34694   0.38861   0.39935   0.42560   0.44283

 Mulliken charges:
               1
     1  C    0.084379
     2  O   -0.481861
     3  H    0.045158
     4  H    0.042027
     5  H    0.060372
     6  H    0.249925
 Sum of Mulliken charges =   0.00000

 Dipole moment (field-independent basis, Debye):
    X=              0.8968    Y=              1.6777    Z=              0.0536  Tot=              1.9031
 Quadrupole moment (field-independent basis, Debye-Ang):
   XX=            -13.0485   YY=            -11.9208   ZZ=            -13.8804
   XY=             -2.3224   XZ=             -0.0374   YZ=              0.0331

 Normal termination of Gaussian 09 at Thu Aug 27 00:01:42 2020.
