 Gaussian 09, Revision D.01,
 Gaussian 09:  ES64L-G09RevD.01 24-Apr-2013

 --------------------
 #p B2PLYPD3/Def2QZVP
 --------------------

 --------
 methanol
 --------
 Symbolic Z-matrix:
 Charge =  0 Multiplicity = 1

                         Standard orientation:
 ---------------------------------------------------------------------
 Center     Atomic      Atomic             Coordinates (Angstroms)
 Number     Number       Type             X           Y           Z
 ---------------------------------------------------------------------
      1          6           0       -0.670138    0.015531    0.001918
      2          8           0        0.742748   -0.137057   -0.007882
      3          1           0       -1.050189    0.558979   -0.848013
      4          1           0       -1.016129    0.516163    0.855805
      5          1           0       -1.027670   -0.941903    0.008059
      6          1           0        1.172831    0.870027    0.035696
 ---------------------------------------------------------------------

 SCF Done:  E(RB2PLYPD3) =  -115.532889759     A.U. after   11 cycles
 E2(B2PLYPD3) =    -0.1494567790D+00 E(B2PLYPD3) =    -0.11568234653849D+03

 The electronic state is 1-A.
 Alpha  occ. eigenvalues --  -19.73473 -10.64016  -1.13824  -0.78792  -0.57420
 Alpha  occ. eigenvalues --   -0.51705  -0.49678  -0.41213  -0.35042
 Alpha virt. eigenvalues --    0.03839   0.07923   0.12572   0.12656   0.15064
 Alpha virt. eigenvalues --    0.17125   0.18164   0.28963   0.30539   0.33472
 Alpha virt. eigenvalues --    0.34088   0.38975   0.40097   0.41478   0.44159

 Mulliken charges:
               1
     1  C    0.079022
     2  O   -0.487876
     3  H    0.044152
     4  H    0.044406
     5  H    0.072161
     6  H    0.248135
 Sum of Mulliken charges =   0.00000

 Dipole moment (field-independent basis, Debye):
    X=             -0.9017    Y=              1.5938    Z=              0.1042  Tot=              1.8342
 Quadrupole moment (field-independent basis, Debye-Ang):
   XX=            -12.9938   YY=            -11.8912   ZZ=            -13.8920
   XY=              2.3415   XZ=              0.0757   YZ=              0.0521

 Normal termination of Gaussian 09 at Thu Aug 27 00:15:21 2020.
