 Gaussian 09, Revision D.01,
 Gaussian 09:  ES64L-G09RevD.01 24-Apr-2013

 --------------------
 #p B2PLYPD3/Def2QZVP
 --------------------

 --------
 methanol
 --------
 Symbolic Z-matrix:
 Charge =  0 Multiplicity = 1

                         Standard orientation:
 ---------------------------------------------------------------------
 Center     Atomic      Atomic             Coordinates (Angstroms)
 Number     Number       Type             X           Y           Z
 ---------------------------------------------------------------------
      1          6           0        0.658439   -0.014656   -0.007537
      2          8           0       -0.751511    0.095159    0.000758
      3          1           0        1.018235   -0.629071   -0.883604
      4          1           0        1.106648   -0.468523    0.959649
      5          1           0        1.048902    1.046138   -0.078184
      6          1           0       -1.112332   -0.621882    0.041295
 ---------------------------------------------------------------------

 SCF Done:  E(RB2PLYPD3) =  -115.516742520     A.U. after   10 cycles
 E2(B2PLYPD3) =    -0.1451855203D+00 E(B2PLYPD3) =    -0.11566192803998D+03

 The electronic state is 1-A.
 Alpha  occ. eigenvalues --  -19.71230 -10.67498  -1.20528  -0.79699  -0.60826
 Alpha  occ. eigenvalues --   -0.51295  -0.49973  -0.41094  -0.35710
 Alpha virt. eigenvalues --    0.05373   0.08719   0.12072   0.12118   0.14837
 Alpha virt. eigenvalues --    0.16989   0.18034   0.28885   0.32947   0.33505
 Alpha virt. eigenvalues --    0.37012   0.38905   0.39323   0.39921   0.42444

 Mulliken charges:
               1
     1  C    0.056075
     2  O   -0.351119
     3  H    0.049917
     4  H    0.045200
     5  H    0.074842
     6  H    0.125085
 Sum of Mulliken charges =   0.00000

 Dipole moment (field-independent basis, Debye):
    X=              0.8368    Y=             -1.3262    Z=              0.0413  Tot=              1.5687
 Quadrupole moment (field-independent basis, Debye-Ang):
   XX=            -13.0620   YY=            -12.4399   ZZ=            -13.7551
   XY=              2.0324   XZ=             -0.0774   YZ=             -0.0114

 Normal termination of Gaussian 09 at Wed Aug 26 12:17:23 2020.
