 Gaussian 09, Revision D.01,
 Gaussian 09:  ES64L-G09RevD.01 24-Apr-2013

 --------------------
 #p B2PLYPD3/Def2QZVP
 --------------------

 --------
 methanol
 --------
 Symbolic Z-matrix:
 Charge =  0 Multiplicity = 1

                         Standard orientation:
 ---------------------------------------------------------------------
 Center     Atomic      Atomic             Coordinates (Angstroms)
 Number     Number       Type             X           Y           Z
 ---------------------------------------------------------------------
      1          6           0        0.675536    0.019915   -0.006273
      2          8           0       -0.741616   -0.149247    0.000241
      3          1           0        1.004750    0.498000    0.878232
      4          1           0        0.971969    0.586140   -0.821707
      5          1           0        1.093291   -0.896728   -0.035756
      6          1           0       -1.190298    0.887076    0.014937
 ---------------------------------------------------------------------

 SCF Done:  E(RB2PLYPD3) =  -115.523769887     A.U. after   11 cycles
 E2(B2PLYPD3) =    -0.1498987444D+00 E(B2PLYPD3) =    -0.11567366863159D+03

 The electronic state is 1-A.
 Alpha  occ. eigenvalues --  -19.73473 -10.63503  -1.13105  -0.79070  -0.56610
 Alpha  occ. eigenvalues --   -0.52274  -0.49961  -0.40845  -0.34951
 Alpha virt. eigenvalues --    0.03443   0.07877   0.12599   0.12775   0.14791
 Alpha virt. eigenvalues --    0.17460   0.18049   0.28523   0.29835   0.33321
 Alpha virt. eigenvalues --    0.33678   0.39346   0.40920   0.41990   0.43882

 Mulliken charges:
               1
     1  C    0.089026
     2  O   -0.499193
     3  H    0.043915
     4  H    0.044614
     5  H    0.070202
     6  H    0.251437
 Sum of Mulliken charges =   0.00000

 Dipole moment (field-independent basis, Debye):
    X=              0.9399    Y=              1.6251    Z=              0.0046  Tot=              1.8773
 Quadrupole moment (field-independent basis, Debye-Ang):
   XX=            -12.9103   YY=            -11.8970   ZZ=            -13.8292
   XY=             -2.4974   XZ=             -0.0338   YZ=             -0.0135

 Normal termination of Gaussian 09 at Thu Aug 27 00:02:13 2020.
