 Gaussian 09, Revision D.01,
 Gaussian 09:  ES64L-G09RevD.01 24-Apr-2013

 --------------------
 #p B2PLYPD3/Def2QZVP
 --------------------

 --------
 methanol
 --------
 Symbolic Z-matrix:
 Charge =  0 Multiplicity = 1

                         Standard orientation:
 ---------------------------------------------------------------------
 Center     Atomic      Atomic             Coordinates (Angstroms)
 Number     Number       Type             X           Y           Z
 ---------------------------------------------------------------------
      1          6           0       -0.651345    0.008145   -0.009557
      2          8           0        0.732417   -0.155138    0.011028
      3          1           0       -1.031511    0.466595   -0.843846
      4          1           0       -0.977138    0.620416    0.845852
      5          1           0       -1.100276   -0.844383    0.047750
      6          1           0        1.157654    0.949603   -0.080637
 ---------------------------------------------------------------------

 SCF Done:  E(RB2PLYPD3) =  -115.501977345     A.U. after   11 cycles
 E2(B2PLYPD3) =    -0.1507255600D+00 E(B2PLYPD3) =    -0.11565270290491D+03

 The electronic state is 1-A.
 Alpha  occ. eigenvalues --  -19.74188 -10.63036  -1.13945  -0.79150  -0.56637
 Alpha  occ. eigenvalues --   -0.51946  -0.50835  -0.40705  -0.34657
 Alpha virt. eigenvalues --    0.02404   0.07795   0.12631   0.12956   0.14912
 Alpha virt. eigenvalues --    0.17840   0.18230   0.26634   0.29614   0.33053
 Alpha virt. eigenvalues --    0.35064   0.38811   0.41070   0.42120   0.43872

 Mulliken charges:
               1
     1  C    0.085969
     2  O   -0.481328
     3  H    0.037892
     4  H    0.032002
     5  H    0.067845
     6  H    0.257620
 Sum of Mulliken charges =   0.00000

 Dipole moment (field-independent basis, Debye):
    X=             -0.8695    Y=              1.6145    Z=             -0.2090  Tot=              1.8456
 Quadrupole moment (field-independent basis, Debye-Ang):
   XX=            -13.0211   YY=            -11.8012   ZZ=            -13.9311
   XY=              2.5510   XZ=             -0.0511   YZ=             -0.1668

 Normal termination of Gaussian 09 at Wed Aug 26 13:16:42 2020.
