 Gaussian 09, Revision D.01,
 Gaussian 09:  ES64L-G09RevD.01 24-Apr-2013

 --------------------
 #p B2PLYPD3/Def2QZVP
 --------------------

 --------
 methanol
 --------
 Symbolic Z-matrix:
 Charge =  0 Multiplicity = 1

                         Standard orientation:
 ---------------------------------------------------------------------
 Center     Atomic      Atomic             Coordinates (Angstroms)
 Number     Number       Type             X           Y           Z
 ---------------------------------------------------------------------
      1          6           0        0.682135   -0.016914    0.018103
      2          8           0       -0.757258    0.083942   -0.018494
      3          1           0        1.087861   -0.716390   -0.855638
      4          1           0        0.995888   -0.388888    0.993861
      5          1           0        1.036080    1.078368   -0.163996
      6          1           0       -1.154575   -0.543142    0.065112
 ---------------------------------------------------------------------

 SCF Done:  E(RB2PLYPD3) =  -115.471158861     A.U. after   11 cycles
 E2(B2PLYPD3) =    -0.1447241293D+00 E(B2PLYPD3) =    -0.11561588299067D+03

 The electronic state is 1-A.
 Alpha  occ. eigenvalues --  -19.69958 -10.68253  -1.21180  -0.80637  -0.60793
 Alpha  occ. eigenvalues --   -0.51356  -0.49350  -0.40548  -0.35962
 Alpha virt. eigenvalues --    0.05372   0.08926   0.11739   0.11990   0.14540
 Alpha virt. eigenvalues --    0.16697   0.17831   0.28905   0.31851   0.32992
 Alpha virt. eigenvalues --    0.36501   0.37673   0.40192   0.40463   0.42049

 Mulliken charges:
               1
     1  C    0.057243
     2  O   -0.309502
     3  H    0.047417
     4  H    0.064954
     5  H    0.080235
     6  H    0.059653
 Sum of Mulliken charges =   0.00000

 Dipole moment (field-independent basis, Debye):
    X=              0.9124    Y=             -1.2422    Z=              0.2582  Tot=              1.5627
 Quadrupole moment (field-independent basis, Debye-Ang):
   XX=            -12.9381   YY=            -12.5427   ZZ=            -13.5602
   XY=              1.9455   XZ=             -0.2295   YZ=             -0.1789

 Normal termination of Gaussian 09 at Wed Aug 26 12:30:24 2020.
