 Gaussian 09, Revision D.01,
 Gaussian 09:  ES64L-G09RevD.01 24-Apr-2013

 --------------------
 #p B2PLYPD3/Def2QZVP
 --------------------

 --------
 methanol
 --------
 Symbolic Z-matrix:
 Charge =  0 Multiplicity = 1

                         Standard orientation:
 ---------------------------------------------------------------------
 Center     Atomic      Atomic             Coordinates (Angstroms)
 Number     Number       Type             X           Y           Z
 ---------------------------------------------------------------------
      1          6           0        0.670782   -0.043379    0.021685
      2          8           0       -0.775508    0.059594   -0.006816
      3          1           0        1.051791   -0.854602   -0.815286
      4          1           0        1.135314   -0.256517    1.036881
      5          1           0        1.159946    1.193946   -0.342085
      6          1           0       -1.167674   -0.299303    0.044909
 ---------------------------------------------------------------------

 SCF Done:  E(RB2PLYPD3) =  -114.923901170     A.U. after   12 cycles
 E2(B2PLYPD3) =    -0.1447645373D+00 E(B2PLYPD3) =    -0.11506866570688D+03

 The electronic state is 1-A.
 Alpha  occ. eigenvalues --  -19.68535 -10.72382  -1.30871  -0.84224  -0.62934
 Alpha  occ. eigenvalues --   -0.51241  -0.48021  -0.38069  -0.37279
 Alpha virt. eigenvalues --    0.04248   0.09412   0.10053   0.11530   0.14018
 Alpha virt. eigenvalues --    0.16701   0.17980   0.28214   0.30094   0.30381
 Alpha virt. eigenvalues --    0.32786   0.35503   0.37990   0.40938   0.41970

 Mulliken charges:
               1
     1  C    0.045935
     2  O   -0.090422
     3  H    0.060899
     4  H    0.083855
     5  H    0.061956
     6  H   -0.162223
 Sum of Mulliken charges =   0.00000

 Dipole moment (field-independent basis, Debye):
    X=              0.9670    Y=             -1.0803    Z=              0.2584  Tot=              1.4727
 Quadrupole moment (field-independent basis, Debye-Ang):
   XX=            -12.5065   YY=            -13.0377   ZZ=            -13.4400
   XY=              1.4467   XZ=             -0.0170   YZ=             -0.0206

 Normal termination of Gaussian 09 at Wed Aug 26 19:48:05 2020.
