 Gaussian 09, Revision D.01,
 Gaussian 09:  ES64L-G09RevD.01 24-Apr-2013

 --------------------
 #p B2PLYPD3/Def2QZVP
 --------------------

 --------
 methanol
 --------
 Symbolic Z-matrix:
 Charge =  0 Multiplicity = 1

                         Standard orientation:
 ---------------------------------------------------------------------
 Center     Atomic      Atomic             Coordinates (Angstroms)
 Number     Number       Type             X           Y           Z
 ---------------------------------------------------------------------
      1          6           0        0.657349    0.025920    0.000077
      2          8           0       -0.736476   -0.144235   -0.009168
      3          1           0        0.982210    0.431782    0.896440
      4          1           0        0.989208    0.584219   -0.835070
      5          1           0        1.072216   -0.910174   -0.044342
      6          1           0       -1.095918    0.892537    0.055850
 ---------------------------------------------------------------------

 SCF Done:  E(RB2PLYPD3) =  -115.529985879     A.U. after   11 cycles
 E2(B2PLYPD3) =    -0.1492714046D+00 E(B2PLYPD3) =    -0.11567925728369D+03

 The electronic state is 1-A.
 Alpha  occ. eigenvalues --  -19.73496 -10.63475  -1.14586  -0.78811  -0.57156
 Alpha  occ. eigenvalues --   -0.53164  -0.49857  -0.40923  -0.35210
 Alpha virt. eigenvalues --    0.03754   0.08084   0.12444   0.12787   0.14759
 Alpha virt. eigenvalues --    0.17552   0.18288   0.28787   0.30091   0.33330
 Alpha virt. eigenvalues --    0.34707   0.39315   0.40830   0.42543   0.43889

 Mulliken charges:
               1
     1  C    0.081209
     2  O   -0.479443
     3  H    0.044272
     4  H    0.043425
     5  H    0.062624
     6  H    0.247913
 Sum of Mulliken charges =   0.00000

 Dipole moment (field-independent basis, Debye):
    X=              0.9705    Y=              1.6043    Z=              0.1228  Tot=              1.8790
 Quadrupole moment (field-independent basis, Debye-Ang):
   XX=            -13.3137   YY=            -11.9090   ZZ=            -13.6930
   XY=             -2.3228   XZ=             -0.1150   YZ=              0.0583

 Normal termination of Gaussian 09 at Wed Aug 26 15:00:08 2020.
