 Gaussian 09, Revision D.01,
 Gaussian 09:  ES64L-G09RevD.01 24-Apr-2013

 --------------------
 #p B2PLYPD3/Def2QZVP
 --------------------

 --------
 methanol
 --------
 Symbolic Z-matrix:
 Charge =  0 Multiplicity = 1

                         Standard orientation:
 ---------------------------------------------------------------------
 Center     Atomic      Atomic             Coordinates (Angstroms)
 Number     Number       Type             X           Y           Z
 ---------------------------------------------------------------------
      1          6           0        0.643678    0.010701    0.012038
      2          8           0       -0.718769   -0.174637   -0.013829
      3          1           0        1.035410    0.304993    0.898154
      4          1           0        0.869733    0.718576   -0.794483
      5          1           0        1.115467   -0.727744   -0.195238
      6          1           0       -1.132530    1.037063    0.129972
 ---------------------------------------------------------------------

 SCF Done:  E(RB2PLYPD3) =  -115.451940963     A.U. after   11 cycles
 E2(B2PLYPD3) =    -0.1524554502D+00 E(B2PLYPD3) =    -0.11560439641300D+03

 The electronic state is 1-A.
 Alpha  occ. eigenvalues --  -19.74557 -10.61848  -1.13978  -0.79888  -0.55645
 Alpha  occ. eigenvalues --   -0.53215  -0.51333  -0.39502  -0.34592
 Alpha virt. eigenvalues --    0.00509   0.07781   0.12399   0.13230   0.14560
 Alpha virt. eigenvalues --    0.18226   0.18412   0.24092   0.29305   0.32803
 Alpha virt. eigenvalues --    0.34866   0.38822   0.41754   0.43443   0.44387

 Mulliken charges:
               1
     1  C    0.068797
     2  O   -0.470937
     3  H    0.040191
     4  H    0.029224
     5  H    0.075810
     6  H    0.256916
 Sum of Mulliken charges =   0.00000

 Dipole moment (field-independent basis, Debye):
    X=              0.9185    Y=              1.6045    Z=              0.2266  Tot=              1.8627
 Quadrupole moment (field-independent basis, Debye-Ang):
   XX=            -13.2128   YY=            -11.7217   ZZ=            -13.7441
   XY=             -2.6929   XZ=             -0.1334   YZ=              0.2449

 Normal termination of Gaussian 09 at Wed Aug 26 23:52:38 2020.
