 Gaussian 09, Revision D.01,
 Gaussian 09:  ES64L-G09RevD.01 24-Apr-2013

 --------------------
 #p B2PLYPD3/Def2QZVP
 --------------------

 --------
 methanol
 --------
 Symbolic Z-matrix:
 Charge =  0 Multiplicity = 1

                         Standard orientation:
 ---------------------------------------------------------------------
 Center     Atomic      Atomic             Coordinates (Angstroms)
 Number     Number       Type             X           Y           Z
 ---------------------------------------------------------------------
      1          6           0       -0.674440    0.021061    0.005114
      2          8           0        0.751169   -0.163632   -0.016722
      3          1           0       -1.110545    0.598367   -0.773885
      4          1           0       -0.978214    0.504564    0.801923
      5          1           0       -1.119975   -0.899090    0.019996
      6          1           0        1.246023    0.978855    0.055052
 ---------------------------------------------------------------------

 SCF Done:  E(RB2PLYPD3) =  -115.488862534     A.U. after   11 cycles
 E2(B2PLYPD3) =    -0.1525937723D+00 E(B2PLYPD3) =    -0.11564145630598D+03

 The electronic state is 1-A.
 Alpha  occ. eigenvalues --  -19.74625 -10.63107  -1.11808  -0.79600  -0.55776
 Alpha  occ. eigenvalues --   -0.51350  -0.49267  -0.40709  -0.35044
 Alpha virt. eigenvalues --    0.01597   0.07437   0.12541   0.13052   0.14935
 Alpha virt. eigenvalues --    0.17551   0.18247   0.25162   0.29644   0.33217
 Alpha virt. eigenvalues --    0.33934   0.39139   0.39543   0.41553   0.44173

 Mulliken charges:
               1
     1  C    0.095221
     2  O   -0.499347
     3  H    0.040459
     4  H    0.044840
     5  H    0.065664
     6  H    0.253163
 Sum of Mulliken charges =   0.00000

 Dipole moment (field-independent basis, Debye):
    X=             -0.9577    Y=              1.7211    Z=              0.1984  Tot=              1.9796
 Quadrupole moment (field-independent basis, Debye-Ang):
   XX=            -12.6463   YY=            -11.7028   ZZ=            -14.1214
   XY=              2.5053   XZ=              0.1192   YZ=              0.1057

 Normal termination of Gaussian 09 at Wed Aug 26 15:30:31 2020.
