 Gaussian 09, Revision D.01,
 Gaussian 09:  ES64L-G09RevD.01 24-Apr-2013

 --------------------
 #p B2PLYPD3/Def2QZVP
 --------------------

 --------
 methanol
 --------
 Symbolic Z-matrix:
 Charge =  0 Multiplicity = 1

                         Standard orientation:
 ---------------------------------------------------------------------
 Center     Atomic      Atomic             Coordinates (Angstroms)
 Number     Number       Type             X           Y           Z
 ---------------------------------------------------------------------
      1          6           0        0.671030    0.022763    0.007391
      2          8           0       -0.747132   -0.147793   -0.011716
      3          1           0        1.011616    0.432464    0.883922
      4          1           0        1.054870    0.624533   -0.810434
      5          1           0        1.098289   -0.901720   -0.072805
      6          1           0       -1.213894    0.890486    0.048699
 ---------------------------------------------------------------------

 SCF Done:  E(RB2PLYPD3) =  -115.522410053     A.U. after   11 cycles
 E2(B2PLYPD3) =    -0.1503229483D+00 E(B2PLYPD3) =    -0.11567273300152D+03

 The electronic state is 1-A.
 Alpha  occ. eigenvalues --  -19.73846 -10.63862  -1.13005  -0.78986  -0.56332
 Alpha  occ. eigenvalues --   -0.51856  -0.49795  -0.40693  -0.35153
 Alpha virt. eigenvalues --    0.03312   0.07685   0.12621   0.12789   0.14870
 Alpha virt. eigenvalues --    0.17414   0.18350   0.28109   0.29684   0.33526
 Alpha virt. eigenvalues --    0.33784   0.38979   0.40333   0.41749   0.43783

 Mulliken charges:
               1
     1  C    0.083169
     2  O   -0.496128
     3  H    0.049106
     4  H    0.041877
     5  H    0.067806
     6  H    0.254171
 Sum of Mulliken charges =   0.00000

 Dipole moment (field-independent basis, Debye):
    X=              0.9000    Y=              1.6129    Z=              0.1439  Tot=              1.8527
 Quadrupole moment (field-independent basis, Debye-Ang):
   XX=            -12.7463   YY=            -12.0061   ZZ=            -13.8922
   XY=             -2.5015   XZ=             -0.1139   YZ=              0.0988

 Normal termination of Gaussian 09 at Wed Aug 26 19:48:52 2020.
