 Gaussian 09, Revision D.01,
 Gaussian 09:  ES64L-G09RevD.01 24-Apr-2013

 --------------------
 #p B2PLYPD3/Def2QZVP
 --------------------

 --------
 methanol
 --------
 Symbolic Z-matrix:
 Charge =  0 Multiplicity = 1

                         Standard orientation:
 ---------------------------------------------------------------------
 Center     Atomic      Atomic             Coordinates (Angstroms)
 Number     Number       Type             X           Y           Z
 ---------------------------------------------------------------------
      1          6           0        0.660480    0.007924    0.001264
      2          8           0       -0.760307   -0.174008   -0.010894
      3          1           0        1.023219    0.425162    0.858362
      4          1           0        1.208886    0.564495   -0.744146
      5          1           0        1.054226   -0.807392   -0.040705
      6          1           0       -1.166756    1.162257    0.006053
 ---------------------------------------------------------------------

 SCF Done:  E(RB2PLYPD3) =  -115.426700719     A.U. after   12 cycles
 E2(B2PLYPD3) =    -0.1564266004D+00 E(B2PLYPD3) =    -0.11558312731992D+03

 The electronic state is 1-A.
 Alpha  occ. eigenvalues --  -19.76004 -10.62332  -1.11657  -0.80690  -0.55037
 Alpha  occ. eigenvalues --   -0.51009  -0.49386  -0.40179  -0.35244
 Alpha virt. eigenvalues --   -0.01437   0.07206   0.12637   0.13014   0.14781
 Alpha virt. eigenvalues --    0.17617   0.18749   0.22198   0.29475   0.32867
 Alpha virt. eigenvalues --    0.34646   0.37517   0.39927   0.41891   0.43409

 Mulliken charges:
               1
     1  C    0.073516
     2  O   -0.474824
     3  H    0.042545
     4  H    0.035087
     5  H    0.079570
     6  H    0.244106
 Sum of Mulliken charges =   0.00000

 Dipole moment (field-independent basis, Debye):
    X=              1.1228    Y=              1.6755    Z=              0.0806  Tot=              2.0185
 Quadrupole moment (field-independent basis, Debye-Ang):
   XX=            -13.0492   YY=            -11.3643   ZZ=            -14.1917
   XY=             -2.4462   XZ=             -0.0745   YZ=              0.0591

 Normal termination of Gaussian 09 at Wed Aug 26 22:10:37 2020.
