 Gaussian 09, Revision D.01,
 Gaussian 09:  ES64L-G09RevD.01 24-Apr-2013

 --------------------
 #p B2PLYPD3/Def2QZVP
 --------------------

 --------
 methanol
 --------
 Symbolic Z-matrix:
 Charge =  0 Multiplicity = 1

                         Standard orientation:
 ---------------------------------------------------------------------
 Center     Atomic      Atomic             Coordinates (Angstroms)
 Number     Number       Type             X           Y           Z
 ---------------------------------------------------------------------
      1          6           0        0.663682    0.010651    0.014744
      2          8           0       -0.747767   -0.078898   -0.050303
      3          1           0        1.005773   -0.002158    1.093322
      4          1           0        1.072504    0.970637   -0.595274
      5          1           0        1.088853   -0.896070   -0.459087
      6          1           0       -1.167082    0.494865    0.275000
 ---------------------------------------------------------------------

 SCF Done:  E(RB2PLYPD3) =  -115.498913840     A.U. after   10 cycles
 E2(B2PLYPD3) =    -0.1449071272D+00 E(B2PLYPD3) =    -0.11564382096744D+03

 The electronic state is 1-A.
 Alpha  occ. eigenvalues --  -19.70680 -10.67988  -1.20755  -0.80448  -0.60585
 Alpha  occ. eigenvalues --   -0.51189  -0.50675  -0.40093  -0.35666
 Alpha virt. eigenvalues --    0.05402   0.08762   0.11751   0.12430   0.14321
 Alpha virt. eigenvalues --    0.17010   0.18151   0.28749   0.32747   0.33055
 Alpha virt. eigenvalues --    0.36174   0.38715   0.39692   0.40297   0.42745

 Mulliken charges:
               1
     1  C    0.055956
     2  O   -0.334951
     3  H    0.053679
     4  H    0.042009
     5  H    0.081134
     6  H    0.102173
 Sum of Mulliken charges =   0.00000

 Dipole moment (field-independent basis, Debye):
    X=              0.7708    Y=              1.0097    Z=              0.6708  Tot=              1.4365
 Quadrupole moment (field-independent basis, Debye-Ang):
   XX=            -12.8074   YY=            -12.9254   ZZ=            -13.4107
   XY=             -1.9301   XZ=             -1.0261   YZ=              0.3497

 Normal termination of Gaussian 09 at Wed Aug 26 12:18:06 2020.
