 Gaussian 09, Revision D.01,
 Gaussian 09:  ES64L-G09RevD.01 24-Apr-2013

 --------------------
 #p B2PLYPD3/Def2QZVP
 --------------------

 --------
 methanol
 --------
 Symbolic Z-matrix:
 Charge =  0 Multiplicity = 1

                         Standard orientation:
 ---------------------------------------------------------------------
 Center     Atomic      Atomic             Coordinates (Angstroms)
 Number     Number       Type             X           Y           Z
 ---------------------------------------------------------------------
      1          6           0       -0.650378   -0.025802    0.010863
      2          8           0        0.745019    0.110311   -0.011819
      3          1           0       -0.989266   -0.499754    0.903355
      4          1           0       -1.047505   -0.604209   -0.877759
      5          1           0       -1.112203    1.042086   -0.037630
      6          1           0        1.091091   -0.665799    0.041407
 ---------------------------------------------------------------------

 SCF Done:  E(RB2PLYPD3) =  -115.535827667     A.U. after   10 cycles
 E2(B2PLYPD3) =    -0.1455549110D+00 E(B2PLYPD3) =    -0.11568138257785D+03

 The electronic state is 1-A.
 Alpha  occ. eigenvalues --  -19.71740 -10.66603  -1.19613  -0.79168  -0.60771
 Alpha  occ. eigenvalues --   -0.52133  -0.49786  -0.40941  -0.35715
 Alpha virt. eigenvalues --    0.05274   0.08679   0.12066   0.12309   0.14880
 Alpha virt. eigenvalues --    0.17368   0.17949   0.28964   0.33163   0.33849
 Alpha virt. eigenvalues --    0.36848   0.38059   0.39752   0.41065   0.43485

 Mulliken charges:
               1
     1  C    0.063571
     2  O   -0.390352
     3  H    0.053137
     4  H    0.043781
     5  H    0.063350
     6  H    0.166512
 Sum of Mulliken charges =   0.00000

 Dipole moment (field-independent basis, Debye):
    X=             -0.8383    Y=             -1.4515    Z=              0.1630  Tot=              1.6841
 Quadrupole moment (field-independent basis, Debye-Ang):
   XX=            -13.1548   YY=            -12.3760   ZZ=            -13.7350
   XY=             -2.0581   XZ=              0.1042   YZ=             -0.1132

 Normal termination of Gaussian 09 at Wed Aug 26 10:44:39 2020.
