 Gaussian 09, Revision D.01,
 Gaussian 09:  ES64L-G09RevD.01 24-Apr-2013

 --------------------
 #p B2PLYPD3/Def2QZVP
 --------------------

 --------
 methanol
 --------
 Symbolic Z-matrix:
 Charge =  0 Multiplicity = 1

                         Standard orientation:
 ---------------------------------------------------------------------
 Center     Atomic      Atomic             Coordinates (Angstroms)
 Number     Number       Type             X           Y           Z
 ---------------------------------------------------------------------
      1          6           0        0.669152   -0.015045   -0.007804
      2          8           0       -0.756891    0.101831    0.003043
      3          1           0        1.073127   -0.523765   -0.900975
      4          1           0        1.019958   -0.600788    0.909211
      5          1           0        1.078998    1.042485    0.047669
      6          1           0       -1.131869   -0.642308   -0.033421
 ---------------------------------------------------------------------

 SCF Done:  E(RB2PLYPD3) =  -115.530999672     A.U. after   10 cycles
 E2(B2PLYPD3) =    -0.1456622305D+00 E(B2PLYPD3) =    -0.11567666190234D+03

 The electronic state is 1-A.
 Alpha  occ. eigenvalues --  -19.71377 -10.67209  -1.18955  -0.79410  -0.60312
 Alpha  occ. eigenvalues --   -0.51122  -0.49728  -0.41206  -0.35659
 Alpha virt. eigenvalues --    0.05336   0.08603   0.12077   0.12185   0.14809
 Alpha virt. eigenvalues --    0.17089   0.17908   0.29044   0.32575   0.33392
 Alpha virt. eigenvalues --    0.37267   0.38576   0.39445   0.40016   0.42457

 Mulliken charges:
               1
     1  C    0.063760
     2  O   -0.390720
     3  H    0.053693
     4  H    0.045982
     5  H    0.074790
     6  H    0.152495
 Sum of Mulliken charges =   0.00000

 Dipole moment (field-independent basis, Debye):
    X=              0.9000    Y=             -1.3817    Z=             -0.1027  Tot=              1.6522
 Quadrupole moment (field-independent basis, Debye-Ang):
   XX=            -12.9907   YY=            -12.3760   ZZ=            -13.7781
   XY=              2.0918   XZ=              0.0054   YZ=              0.0937

 Normal termination of Gaussian 09 at Wed Aug 26 21:53:42 2020.
