 Gaussian 09, Revision D.01,
 Gaussian 09:  ES64L-G09RevD.01 24-Apr-2013

 --------------------
 #p B2PLYPD3/Def2QZVP
 --------------------

 --------
 methanol
 --------
 Symbolic Z-matrix:
 Charge =  0 Multiplicity = 1

                         Standard orientation:
 ---------------------------------------------------------------------
 Center     Atomic      Atomic             Coordinates (Angstroms)
 Number     Number       Type             X           Y           Z
 ---------------------------------------------------------------------
      1          6           0       -0.660347    0.020553   -0.004841
      2          8           0        0.741553   -0.134619    0.003714
      3          1           0       -1.057663    0.497540   -0.862182
      4          1           0       -0.980655    0.580480    0.874231
      5          1           0       -1.090172   -0.942745    0.036057
      6          1           0        1.158149    0.818352   -0.048773
 ---------------------------------------------------------------------

 SCF Done:  E(RB2PLYPD3) =  -115.544512404     A.U. after   11 cycles
 E2(B2PLYPD3) =    -0.1483897455D+00 E(B2PLYPD3) =    -0.11569290214957D+03

 The electronic state is 1-A.
 Alpha  occ. eigenvalues --  -19.73194 -10.64629  -1.14993  -0.78609  -0.57881
 Alpha  occ. eigenvalues --   -0.51978  -0.50034  -0.40937  -0.35129
 Alpha virt. eigenvalues --    0.04358   0.08017   0.12520   0.12633   0.14924
 Alpha virt. eigenvalues --    0.17417   0.18198   0.29148   0.31996   0.33209
 Alpha virt. eigenvalues --    0.34443   0.39228   0.39941   0.41523   0.44082

 Mulliken charges:
               1
     1  C    0.074270
     2  O   -0.475250
     3  H    0.045814
     4  H    0.042658
     5  H    0.068403
     6  H    0.244105
 Sum of Mulliken charges =   0.00000

 Dipole moment (field-independent basis, Debye):
    X=             -0.8501    Y=              1.5612    Z=             -0.1141  Tot=              1.7813
 Quadrupole moment (field-independent basis, Debye-Ang):
   XX=            -12.9587   YY=            -12.1109   ZZ=            -13.8425
   XY=              2.3712   XZ=             -0.0162   YZ=             -0.0876

 Normal termination of Gaussian 09 at Thu Aug 27 00:06:24 2020.
