 Gaussian 09, Revision D.01,
 Gaussian 09:  ES64L-G09RevD.01 24-Apr-2013

 --------------------
 #p B2PLYPD3/Def2QZVP
 --------------------

 --------
 methanol
 --------
 Symbolic Z-matrix:
 Charge =  0 Multiplicity = 1

                         Standard orientation:
 ---------------------------------------------------------------------
 Center     Atomic      Atomic             Coordinates (Angstroms)
 Number     Number       Type             X           Y           Z
 ---------------------------------------------------------------------
      1          6           0       -0.662509   -0.025822    0.002946
      2          8           0        0.740670    0.107173   -0.012371
      3          1           0       -0.951139   -0.480245    0.969262
      4          1           0       -1.028904   -0.608289   -0.890771
      5          1           0       -1.104498    1.008717   -0.038959
      6          1           0        1.134232   -0.622632    0.041761
 ---------------------------------------------------------------------

 SCF Done:  E(RB2PLYPD3) =  -115.531023722     A.U. after   10 cycles
 E2(B2PLYPD3) =    -0.1451442852D+00 E(B2PLYPD3) =    -0.11567616800718D+03

 The electronic state is 1-A.
 Alpha  occ. eigenvalues --  -19.71039 -10.66748  -1.19487  -0.79678  -0.60204
 Alpha  occ. eigenvalues --   -0.52267  -0.50250  -0.40428  -0.35614
 Alpha virt. eigenvalues --    0.05394   0.08786   0.12079   0.12373   0.14479
 Alpha virt. eigenvalues --    0.17194   0.17961   0.28938   0.33006   0.33541
 Alpha virt. eigenvalues --    0.37212   0.39066   0.39840   0.40457   0.43562

 Mulliken charges:
               1
     1  C    0.063784
     2  O   -0.385850
     3  H    0.050964
     4  H    0.049521
     5  H    0.071740
     6  H    0.149840
 Sum of Mulliken charges =   0.00000

 Dipole moment (field-independent basis, Debye):
    X=             -0.8182    Y=             -1.3563    Z=              0.1257  Tot=              1.5889
 Quadrupole moment (field-independent basis, Debye-Ang):
   XX=            -13.0027   YY=            -12.5292   ZZ=            -13.5704
   XY=             -2.1785   XZ=              0.1981   YZ=             -0.0497

 Normal termination of Gaussian 09 at Wed Aug 26 21:11:25 2020.
