 Gaussian 09, Revision D.01,
 Gaussian 09:  ES64L-G09RevD.01 24-Apr-2013

 --------------------
 #p B2PLYPD3/Def2QZVP
 --------------------

 --------
 methanol
 --------
 Symbolic Z-matrix:
 Charge =  0 Multiplicity = 1

                         Standard orientation:
 ---------------------------------------------------------------------
 Center     Atomic      Atomic             Coordinates (Angstroms)
 Number     Number       Type             X           Y           Z
 ---------------------------------------------------------------------
      1          6           0        0.659337   -0.025592    0.014447
      2          8           0       -0.739470    0.090205   -0.012558
      3          1           0        0.965086   -0.791250   -0.813985
      4          1           0        1.031106   -0.349967    0.966344
      5          1           0        1.075881    1.095349   -0.226862
      6          1           0       -1.112340   -0.522220    0.088285
 ---------------------------------------------------------------------

 SCF Done:  E(RB2PLYPD3) =  -115.446330161     A.U. after   11 cycles
 E2(B2PLYPD3) =    -0.1440106096D+00 E(B2PLYPD3) =    -0.11559034077039D+03

 The electronic state is 1-A.
 Alpha  occ. eigenvalues --  -19.69888 -10.68010  -1.23382  -0.81141  -0.62019
 Alpha  occ. eigenvalues --   -0.52193  -0.49558  -0.40304  -0.35923
 Alpha virt. eigenvalues --    0.05277   0.09233   0.11532   0.12121   0.14736
 Alpha virt. eigenvalues --    0.16846   0.17648   0.28848   0.32525   0.33609
 Alpha virt. eigenvalues --    0.35550   0.38053   0.40462   0.41379   0.42274

 Mulliken charges:
               1
     1  C    0.054490
     2  O   -0.266073
     3  H    0.043040
     4  H    0.061376
     5  H    0.068808
     6  H    0.038359
 Sum of Mulliken charges =   0.00000

 Dipole moment (field-independent basis, Debye):
    X=              0.7893    Y=             -1.2813    Z=              0.3019  Tot=              1.5349
 Quadrupole moment (field-independent basis, Debye-Ang):
   XX=            -13.0957   YY=            -12.5144   ZZ=            -13.5853
   XY=              1.8964   XZ=             -0.1296   YZ=             -0.1762

 Normal termination of Gaussian 09 at Wed Aug 26 12:11:06 2020.
