 Gaussian 09, Revision D.01,
 Gaussian 09:  ES64L-G09RevD.01 24-Apr-2013

 --------------------
 #p B2PLYPD3/Def2QZVP
 --------------------

 --------
 methanol
 --------
 Symbolic Z-matrix:
 Charge =  0 Multiplicity = 1

                         Standard orientation:
 ---------------------------------------------------------------------
 Center     Atomic      Atomic             Coordinates (Angstroms)
 Number     Number       Type             X           Y           Z
 ---------------------------------------------------------------------
      1          6           0        0.650348    0.006784   -0.035092
      2          8           0       -0.712217   -0.188315    0.026550
      3          1           0        1.047091    0.624216    0.847004
      4          1           0        0.967302    0.491151   -0.759914
      5          1           0        1.077335   -0.747414    0.008895
      6          1           0       -1.296085    1.097865   -0.097832
 ---------------------------------------------------------------------

 SCF Done:  E(RB2PLYPD3) =  -115.390393054     A.U. after   11 cycles
 E2(B2PLYPD3) =    -0.1551529087D+00 E(B2PLYPD3) =    -0.11554554596229D+03

 The electronic state is 1-A.
 Alpha  occ. eigenvalues --  -19.75279 -10.61140  -1.13255  -0.80979  -0.57305
 Alpha  occ. eigenvalues --   -0.51349  -0.50754  -0.39585  -0.34135
 Alpha virt. eigenvalues --   -0.02024   0.07482   0.12895   0.13107   0.14927
 Alpha virt. eigenvalues --    0.17916   0.18301   0.21974   0.29707   0.32593
 Alpha virt. eigenvalues --    0.35793   0.37783   0.40691   0.41873   0.46155

 Mulliken charges:
               1
     1  C    0.057549
     2  O   -0.471426
     3  H    0.023879
     4  H    0.043989
     5  H    0.100101
     6  H    0.245908
 Sum of Mulliken charges =   0.00000

 Dipole moment (field-independent basis, Debye):
    X=              0.7717    Y=              1.6403    Z=             -0.3853  Tot=              1.8533
 Quadrupole moment (field-independent basis, Debye-Ang):
   XX=            -12.6287   YY=            -11.5252   ZZ=            -14.0716
   XY=             -2.8219   XZ=              0.0027   YZ=             -0.3111

 Normal termination of Gaussian 09 at Wed Aug 26 18:39:13 2020.
