 Gaussian 09, Revision D.01,
 Gaussian 09:  ES64L-G09RevD.01 24-Apr-2013

 --------------------
 #p B2PLYPD3/Def2QZVP
 --------------------

 --------
 methanol
 --------
 Symbolic Z-matrix:
 Charge =  0 Multiplicity = 1

                         Standard orientation:
 ---------------------------------------------------------------------
 Center     Atomic      Atomic             Coordinates (Angstroms)
 Number     Number       Type             X           Y           Z
 ---------------------------------------------------------------------
      1          6           0       -0.656453   -0.027141    0.009836
      2          8           0        0.763945    0.084384   -0.045358
      3          1           0       -0.901443   -0.270240    1.090957
      4          1           0       -1.158486   -0.780004   -0.774421
      5          1           0       -1.186218    1.038847   -0.184042
      6          1           0        1.073313   -0.500831    0.171351
 ---------------------------------------------------------------------

 SCF Done:  E(RB2PLYPD3) =  -115.408632522     A.U. after   11 cycles
 E2(B2PLYPD3) =    -0.1445551827D+00 E(B2PLYPD3) =    -0.11555318770516D+03

 The electronic state is 1-A.
 Alpha  occ. eigenvalues --  -19.70218 -10.69104  -1.24719  -0.80460  -0.61573
 Alpha  occ. eigenvalues --   -0.51739  -0.49818  -0.40324  -0.36411
 Alpha virt. eigenvalues --    0.05241   0.08873   0.11639   0.11912   0.14072
 Alpha virt. eigenvalues --    0.17365   0.18129   0.28352   0.31921   0.33105
 Alpha virt. eigenvalues --    0.34777   0.36691   0.39180   0.40196   0.43817

 Mulliken charges:
               1
     1  C    0.047336
     2  O   -0.245261
     3  H    0.055221
     4  H    0.053045
     5  H    0.067497
     6  H    0.022161
 Sum of Mulliken charges =   0.00000

 Dipole moment (field-independent basis, Debye):
    X=             -0.9639    Y=             -1.1515    Z=              0.5072  Tot=              1.5850
 Quadrupole moment (field-independent basis, Debye-Ang):
   XX=            -13.0882   YY=            -12.8643   ZZ=            -13.4718
   XY=             -1.8554   XZ=              0.7976   YZ=             -0.1865

 Normal termination of Gaussian 09 at Wed Aug 26 21:03:41 2020.
