 Gaussian 09, Revision D.01,
 Gaussian 09:  ES64L-G09RevD.01 24-Apr-2013

 --------------------
 #p B2PLYPD3/Def2QZVP
 --------------------

 --------
 methanol
 --------
 Symbolic Z-matrix:
 Charge =  0 Multiplicity = 1

                         Standard orientation:
 ---------------------------------------------------------------------
 Center     Atomic      Atomic             Coordinates (Angstroms)
 Number     Number       Type             X           Y           Z
 ---------------------------------------------------------------------
      1          6           0        0.662597    0.042666   -0.018658
      2          8           0       -0.716880   -0.168917    0.006378
      3          1           0        1.068523    0.442830    0.855388
      4          1           0        0.796479    0.647494   -0.773673
      5          1           0        1.161904   -0.873030   -0.087837
      6          1           0       -1.267450    0.878046    0.067044
 ---------------------------------------------------------------------

 SCF Done:  E(RB2PLYPD3) =  -115.501970466     A.U. after   11 cycles
 E2(B2PLYPD3) =    -0.1503739505D+00 E(B2PLYPD3) =    -0.11565234441640D+03

 The electronic state is 1-A.
 Alpha  occ. eigenvalues --  -19.73514 -10.62714  -1.13549  -0.78835  -0.56574
 Alpha  occ. eigenvalues --   -0.53961  -0.49620  -0.39643  -0.34623
 Alpha virt. eigenvalues --    0.02598   0.07755   0.12688   0.12933   0.14817
 Alpha virt. eigenvalues --    0.17522   0.18197   0.26874   0.29546   0.32488
 Alpha virt. eigenvalues --    0.34915   0.39954   0.40241   0.43074   0.43945

 Mulliken charges:
               1
     1  C    0.087429
     2  O   -0.494857
     3  H    0.039558
     4  H    0.048146
     5  H    0.064670
     6  H    0.255055
 Sum of Mulliken charges =   0.00000

 Dipole moment (field-independent basis, Debye):
    X=              0.7459    Y=              1.6774    Z=              0.0533  Tot=              1.8366
 Quadrupole moment (field-independent basis, Debye-Ang):
   XX=            -12.5255   YY=            -12.0401   ZZ=            -13.8556
   XY=             -2.6919   XZ=              0.0358   YZ=             -0.0320

 Normal termination of Gaussian 09 at Wed Aug 26 22:43:56 2020.
