 Gaussian 09, Revision D.01,
 Gaussian 09:  ES64L-G09RevD.01 24-Apr-2013

 --------------------
 #p B2PLYPD3/Def2QZVP
 --------------------

 --------
 methanol
 --------
 Symbolic Z-matrix:
 Charge =  0 Multiplicity = 1

                         Standard orientation:
 ---------------------------------------------------------------------
 Center     Atomic      Atomic             Coordinates (Angstroms)
 Number     Number       Type             X           Y           Z
 ---------------------------------------------------------------------
      1          6           0       -0.670589    0.016953    0.006928
      2          8           0        0.741608   -0.137617   -0.008872
      3          1           0       -1.068237    0.571233   -0.838496
      4          1           0       -1.000651    0.528065    0.845357
      5          1           0       -1.044406   -0.953486   -0.001584
      6          1           0        1.203964    0.853407    0.024129
 ---------------------------------------------------------------------

 SCF Done:  E(RB2PLYPD3) =  -115.533754677     A.U. after   11 cycles
 E2(B2PLYPD3) =    -0.1493911233D+00 E(B2PLYPD3) =    -0.11568314579985D+03

 The electronic state is 1-A.
 Alpha  occ. eigenvalues --  -19.73425 -10.64191  -1.13765  -0.78719  -0.57517
 Alpha  occ. eigenvalues --   -0.51521  -0.49679  -0.41037  -0.34969
 Alpha virt. eigenvalues --    0.03867   0.07861   0.12499   0.12741   0.15113
 Alpha virt. eigenvalues --    0.17140   0.18100   0.29062   0.30568   0.33422
 Alpha virt. eigenvalues --    0.34095   0.39049   0.39707   0.41376   0.44337

 Mulliken charges:
               1
     1  C    0.079997
     2  O   -0.489930
     3  H    0.042063
     4  H    0.046227
     5  H    0.072512
     6  H    0.249131
 Sum of Mulliken charges =   0.00000

 Dipole moment (field-independent basis, Debye):
    X=             -0.8499    Y=              1.6012    Z=              0.1036  Tot=              1.8157
 Quadrupole moment (field-independent basis, Debye-Ang):
   XX=            -12.8357   YY=            -11.9346   ZZ=            -13.9533
   XY=              2.3745   XZ=              0.0636   YZ=              0.0701

 Normal termination of Gaussian 09 at Thu Aug 27 00:12:53 2020.
