 Gaussian 09, Revision D.01,
 Gaussian 09:  ES64L-G09RevD.01 24-Apr-2013

 --------------------
 #p B2PLYPD3/Def2QZVP
 --------------------

 --------
 methanol
 --------
 Symbolic Z-matrix:
 Charge =  0 Multiplicity = 1

                         Standard orientation:
 ---------------------------------------------------------------------
 Center     Atomic      Atomic             Coordinates (Angstroms)
 Number     Number       Type             X           Y           Z
 ---------------------------------------------------------------------
      1          6           0        0.664602    0.019875    0.002333
      2          8           0       -0.749284   -0.140084   -0.001658
      3          1           0        1.043580    0.501078    0.865132
      4          1           0        1.052299    0.540943   -0.849639
      5          1           0        1.061190   -0.930465   -0.021100
      6          1           0       -1.150406    0.889865    0.004875
 ---------------------------------------------------------------------

 SCF Done:  E(RB2PLYPD3) =  -115.531734056     A.U. after   11 cycles
 E2(B2PLYPD3) =    -0.1498187392D+00 E(B2PLYPD3) =    -0.11568155279536D+03

 The electronic state is 1-A.
 Alpha  occ. eigenvalues --  -19.73815 -10.64140  -1.13812  -0.78765  -0.56993
 Alpha  occ. eigenvalues --   -0.51781  -0.49627  -0.41159  -0.35259
 Alpha virt. eigenvalues --    0.03716   0.07816   0.12600   0.12643   0.14972
 Alpha virt. eigenvalues --    0.17339   0.18366   0.28674   0.30164   0.33604
 Alpha virt. eigenvalues --    0.34052   0.38858   0.40161   0.41582   0.43881

 Mulliken charges:
               1
     1  C    0.077117
     2  O   -0.484427
     3  H    0.046118
     4  H    0.043732
     5  H    0.067344
     6  H    0.250115
 Sum of Mulliken charges =   0.00000

 Dipole moment (field-independent basis, Debye):
    X=              0.9422    Y=              1.6047    Z=              0.0195  Tot=              1.8609
 Quadrupole moment (field-independent basis, Debye-Ang):
   XX=            -13.0347   YY=            -11.9395   ZZ=            -13.8904
   XY=             -2.3467   XZ=             -0.0113   YZ=              0.0207

 Normal termination of Gaussian 09 at Thu Aug 27 00:13:41 2020.
