 Gaussian 09, Revision D.01,
 Gaussian 09:  ES64L-G09RevD.01 24-Apr-2013

 --------------------
 #p B2PLYPD3/Def2QZVP
 --------------------

 --------
 methanol
 --------
 Symbolic Z-matrix:
 Charge =  0 Multiplicity = 1

                         Standard orientation:
 ---------------------------------------------------------------------
 Center     Atomic      Atomic             Coordinates (Angstroms)
 Number     Number       Type             X           Y           Z
 ---------------------------------------------------------------------
      1          6           0        0.652692    0.055899    0.005382
      2          8           0       -0.710601   -0.191975   -0.014023
      3          1           0        0.862716    0.394297    0.894947
      4          1           0        1.012356    0.580196   -0.766782
      5          1           0        1.167180   -0.798948   -0.064776
      6          1           0       -1.273599    1.024862    0.016505
 ---------------------------------------------------------------------

 SCF Done:  E(RB2PLYPD3) =  -115.455484227     A.U. after   11 cycles
 E2(B2PLYPD3) =    -0.1533469786D+00 E(B2PLYPD3) =    -0.11560883120571D+03

 The electronic state is 1-A.
 Alpha  occ. eigenvalues --  -19.74543 -10.61452  -1.13066  -0.79474  -0.55147
 Alpha  occ. eigenvalues --   -0.54282  -0.50002  -0.38597  -0.35060
 Alpha virt. eigenvalues --   -0.00171   0.07630   0.12639   0.13142   0.14531
 Alpha virt. eigenvalues --    0.17909   0.18585   0.23206   0.29280   0.33166
 Alpha virt. eigenvalues --    0.35391   0.40101   0.40884   0.43243   0.44589

 Mulliken charges:
               1
     1  C    0.095167
     2  O   -0.483614
     3  H    0.050758
     4  H    0.043336
     5  H    0.048483
     6  H    0.245869
 Sum of Mulliken charges =   0.00000

 Dipole moment (field-independent basis, Debye):
    X=              0.8677    Y=              1.6999    Z=              0.0568  Tot=              1.9093
 Quadrupole moment (field-independent basis, Debye-Ang):
   XX=            -12.6628   YY=            -11.9460   ZZ=            -13.6846
   XY=             -2.7083   XZ=             -0.2063   YZ=             -0.0060

 Normal termination of Gaussian 09 at Wed Aug 26 23:51:55 2020.
