 Gaussian 09, Revision D.01,
 Gaussian 09:  ES64L-G09RevD.01 24-Apr-2013

 --------------------
 #p B2PLYPD3/Def2QZVP
 --------------------

 --------
 methanol
 --------
 Symbolic Z-matrix:
 Charge =  0 Multiplicity = 1

                         Standard orientation:
 ---------------------------------------------------------------------
 Center     Atomic      Atomic             Coordinates (Angstroms)
 Number     Number       Type             X           Y           Z
 ---------------------------------------------------------------------
      1          6           0        0.669038    0.037378   -0.002273
      2          8           0       -0.744433   -0.165145    0.002962
      3          1           0        1.033282    0.478819    0.837142
      4          1           0        0.925579    0.568896   -0.812252
      5          1           0        1.176317   -0.884358   -0.054071
      6          1           0       -1.193943    0.933535    0.019123
 ---------------------------------------------------------------------

 SCF Done:  E(RB2PLYPD3) =  -115.506770271     A.U. after   11 cycles
 E2(B2PLYPD3) =    -0.1510654486D+00 E(B2PLYPD3) =    -0.11565783571919D+03

 The electronic state is 1-A.
 Alpha  occ. eigenvalues --  -19.74053 -10.63079  -1.12625  -0.79305  -0.55548
 Alpha  occ. eigenvalues --   -0.53332  -0.49348  -0.40317  -0.35279
 Alpha virt. eigenvalues --    0.02613   0.07650   0.12704   0.12779   0.14653
 Alpha virt. eigenvalues --    0.17902   0.18237   0.26702   0.29537   0.33172
 Alpha virt. eigenvalues --    0.33853   0.39672   0.40272   0.43027   0.43331

 Mulliken charges:
               1
     1  C    0.095019
     2  O   -0.498666
     3  H    0.045865
     4  H    0.045942
     5  H    0.058540
     6  H    0.253299
 Sum of Mulliken charges =   0.00000

 Dipole moment (field-independent basis, Debye):
    X=              0.9801    Y=              1.7181    Z=              0.0110  Tot=              1.9780
 Quadrupole moment (field-independent basis, Debye-Ang):
   XX=            -12.8402   YY=            -11.9238   ZZ=            -13.8288
   XY=             -2.5171   XZ=              0.0355   YZ=             -0.0029

 Normal termination of Gaussian 09 at Wed Aug 26 14:31:04 2020.
