 Gaussian 09, Revision D.01,
 Gaussian 09:  ES64L-G09RevD.01 24-Apr-2013

 --------------------
 #p B2PLYPD3/Def2QZVP
 --------------------

 --------
 methanol
 --------
 Symbolic Z-matrix:
 Charge =  0 Multiplicity = 1

                         Standard orientation:
 ---------------------------------------------------------------------
 Center     Atomic      Atomic             Coordinates (Angstroms)
 Number     Number       Type             X           Y           Z
 ---------------------------------------------------------------------
      1          6           0        0.666298    0.029146    0.003206
      2          8           0       -0.747772   -0.147922   -0.008497
      3          1           0        1.000277    0.459463    0.848871
      4          1           0        1.009432    0.603724   -0.802484
      5          1           0        1.113042   -0.947264   -0.044428
      6          1           0       -1.138364    0.892580    0.046777
 ---------------------------------------------------------------------

 SCF Done:  E(RB2PLYPD3) =  -115.527090871     A.U. after   11 cycles
 E2(B2PLYPD3) =    -0.1498284648D+00 E(B2PLYPD3) =    -0.11567691933561D+03

 The electronic state is 1-A.
 Alpha  occ. eigenvalues --  -19.73723 -10.63779  -1.13638  -0.78985  -0.56905
 Alpha  occ. eigenvalues --   -0.52668  -0.49129  -0.41058  -0.35336
 Alpha virt. eigenvalues --    0.03616   0.07864   0.12466   0.12727   0.14924
 Alpha virt. eigenvalues --    0.17558   0.18151   0.28628   0.29948   0.33528
 Alpha virt. eigenvalues --    0.33951   0.38959   0.39893   0.42471   0.44227

 Mulliken charges:
               1
     1  C    0.088328
     2  O   -0.489040
     3  H    0.046692
     4  H    0.043511
     5  H    0.061878
     6  H    0.248632
 Sum of Mulliken charges =   0.00000

 Dipole moment (field-independent basis, Debye):
    X=              0.9903    Y=              1.6795    Z=              0.1267  Tot=              1.9539
 Quadrupole moment (field-independent basis, Debye-Ang):
   XX=            -13.0975   YY=            -11.8665   ZZ=            -13.8642
   XY=             -2.3083   XZ=             -0.0729   YZ=              0.0678

 Normal termination of Gaussian 09 at Thu Aug 27 00:10:44 2020.
