 Gaussian 09, Revision D.01,
 Gaussian 09:  ES64L-G09RevD.01 24-Apr-2013

 --------------------
 #p B2PLYPD3/Def2QZVP
 --------------------

 --------
 methanol
 --------
 Symbolic Z-matrix:
 Charge =  0 Multiplicity = 1

                         Standard orientation:
 ---------------------------------------------------------------------
 Center     Atomic      Atomic             Coordinates (Angstroms)
 Number     Number       Type             X           Y           Z
 ---------------------------------------------------------------------
      1          6           0        0.700599   -0.008864    0.010572
      2          8           0       -0.777098   -0.005233    0.055576
      3          1           0        1.125572    1.093388   -0.349747
      4          1           0        1.005752   -0.903807   -0.737441
      5          1           0        0.907546   -0.214107    1.050283
      6          1           0       -1.025680    0.119571   -0.471133
 ---------------------------------------------------------------------

 SCF Done:  E(RB2PLYPD3) =  -115.192526541     A.U. after   11 cycles
 E2(B2PLYPD3) =    -0.1439715940D+00 E(B2PLYPD3) =    -0.11533649813476D+03

 The electronic state is 1-A.
 Alpha  occ. eigenvalues --  -19.68298 -10.69501  -1.28015  -0.82028  -0.60689
 Alpha  occ. eigenvalues --   -0.50771  -0.49902  -0.42262  -0.36358
 Alpha virt. eigenvalues --    0.05130   0.09096   0.11035   0.12042   0.13967
 Alpha virt. eigenvalues --    0.16378   0.17685   0.28265   0.29652   0.32595
 Alpha virt. eigenvalues --    0.33961   0.36907   0.40258   0.41697   0.42131

 Mulliken charges:
               1
     1  C    0.045191
     2  O   -0.175057
     3  H    0.052792
     4  H    0.058361
     5  H    0.103091
     6  H   -0.084378
 Sum of Mulliken charges =   0.00000

 Dipole moment (field-independent basis, Debye):
    X=              1.2385    Y=              0.2168    Z=             -1.0350  Tot=              1.6285
 Quadrupole moment (field-independent basis, Debye-Ang):
   XX=            -13.5673   YY=            -13.2485   ZZ=            -12.3468
   XY=             -0.3016   XZ=              1.6875   YZ=             -0.2088

 Normal termination of Gaussian 09 at Wed Aug 26 21:52:17 2020.
