 Gaussian 09, Revision D.01,
 Gaussian 09:  ES64L-G09RevD.01 24-Apr-2013

 --------------------
 #p B2PLYPD3/Def2QZVP
 --------------------

 --------
 methanol
 --------
 Symbolic Z-matrix:
 Charge =  0 Multiplicity = 1

                         Standard orientation:
 ---------------------------------------------------------------------
 Center     Atomic      Atomic             Coordinates (Angstroms)
 Number     Number       Type             X           Y           Z
 ---------------------------------------------------------------------
      1          6           0        0.643675   -0.027279    0.006267
      2          8           0       -0.737322    0.113878   -0.004447
      3          1           0        1.046094   -0.573422   -0.903132
      4          1           0        0.989952   -0.546947    0.916136
      5          1           0        1.164333    1.010449   -0.012926
      6          1           0       -1.163855   -0.637428   -0.002102
 ---------------------------------------------------------------------

 SCF Done:  E(RB2PLYPD3) =  -115.538629143     A.U. after   10 cycles
 E2(B2PLYPD3) =    -0.1456513859D+00 E(B2PLYPD3) =    -0.11568428052895D+03

 The electronic state is 1-A.
 Alpha  occ. eigenvalues --  -19.71850 -10.66971  -1.19368  -0.79134  -0.60724
 Alpha  occ. eigenvalues --   -0.51944  -0.50247  -0.39934  -0.35474
 Alpha virt. eigenvalues --    0.05292   0.08438   0.12273   0.12343   0.14719
 Alpha virt. eigenvalues --    0.17478   0.18063   0.28929   0.33022   0.34528
 Alpha virt. eigenvalues --    0.36058   0.38615   0.39589   0.40535   0.43211

 Mulliken charges:
               1
     1  C    0.060247
     2  O   -0.398596
     3  H    0.043008
     4  H    0.049054
     5  H    0.065710
     6  H    0.180577
 Sum of Mulliken charges =   0.00000

 Dipole moment (field-independent basis, Debye):
    X=              0.6646    Y=             -1.4096    Z=              0.0346  Tot=              1.5588
 Quadrupole moment (field-independent basis, Debye-Ang):
   XX=            -12.7706   YY=            -12.6335   ZZ=            -13.7929
   XY=              2.2264   XZ=             -0.0238   YZ=             -0.0362

 Normal termination of Gaussian 09 at Wed Aug 26 14:26:22 2020.
