 Gaussian 09, Revision D.01,
 Gaussian 09:  ES64L-G09RevD.01 24-Apr-2013

 --------------------
 #p B2PLYPD3/Def2QZVP
 --------------------

 --------
 methanol
 --------
 Symbolic Z-matrix:
 Charge =  0 Multiplicity = 1

                         Standard orientation:
 ---------------------------------------------------------------------
 Center     Atomic      Atomic             Coordinates (Angstroms)
 Number     Number       Type             X           Y           Z
 ---------------------------------------------------------------------
      1          6           0       -0.679687   -0.014025    0.014239
      2          8           0        0.757797    0.097721   -0.011362
      3          1           0       -1.087805   -0.442121    0.907717
      4          1           0       -0.980653   -0.691356   -0.882709
      5          1           0       -1.040201    1.061914   -0.125064
      6          1           0        1.124402   -0.626055    0.105516
 ---------------------------------------------------------------------

 SCF Done:  E(RB2PLYPD3) =  -115.521890962     A.U. after   10 cycles
 E2(B2PLYPD3) =    -0.1455887339D+00 E(B2PLYPD3) =    -0.11566747969606D+03

 The electronic state is 1-A.
 Alpha  occ. eigenvalues --  -19.71002 -10.67257  -1.19015  -0.79618  -0.60419
 Alpha  occ. eigenvalues --   -0.51179  -0.49270  -0.41464  -0.35606
 Alpha virt. eigenvalues --    0.05312   0.08712   0.11907   0.12108   0.14799
 Alpha virt. eigenvalues --    0.16882   0.17810   0.29070   0.31804   0.33563
 Alpha virt. eigenvalues --    0.37432   0.37892   0.39721   0.40816   0.42091

 Mulliken charges:
               1
     1  C    0.062776
     2  O   -0.381626
     3  H    0.059848
     4  H    0.045375
     5  H    0.076440
     6  H    0.137187
 Sum of Mulliken charges =   0.00000

 Dipole moment (field-independent basis, Debye):
    X=             -0.9459    Y=             -1.3570    Z=              0.3018  Tot=              1.6815
 Quadrupole moment (field-independent basis, Debye-Ang):
   XX=            -13.1008   YY=            -12.3204   ZZ=            -13.7082
   XY=             -2.0216   XZ=              0.1004   YZ=             -0.2285

 Normal termination of Gaussian 09 at Wed Aug 26 13:15:15 2020.
