 Gaussian 09, Revision D.01,
 Gaussian 09:  ES64L-G09RevD.01 24-Apr-2013

 --------------------
 #p B2PLYPD3/Def2QZVP
 --------------------

 --------
 methanol
 --------
 Symbolic Z-matrix:
 Charge =  0 Multiplicity = 1

                         Standard orientation:
 ---------------------------------------------------------------------
 Center     Atomic      Atomic             Coordinates (Angstroms)
 Number     Number       Type             X           Y           Z
 ---------------------------------------------------------------------
      1          6           0       -0.638469    0.003943    0.008967
      2          8           0        0.736282   -0.156869   -0.010495
      3          1           0       -1.106272    0.537190   -0.847921
      4          1           0       -1.009632    0.497389    0.852702
      5          1           0       -1.067979   -0.827566    0.004323
      6          1           0        1.124440    1.024281    0.021054
 ---------------------------------------------------------------------

 SCF Done:  E(RB2PLYPD3) =  -115.480627332     A.U. after   11 cycles
 E2(B2PLYPD3) =    -0.1521287350D+00 E(B2PLYPD3) =    -0.11563275606718D+03

 The electronic state is 1-A.
 Alpha  occ. eigenvalues --  -19.74948 -10.62944  -1.14124  -0.79282  -0.56277
 Alpha  occ. eigenvalues --   -0.51508  -0.50985  -0.40561  -0.34764
 Alpha virt. eigenvalues --    0.01370   0.07591   0.12674   0.12987   0.15017
 Alpha virt. eigenvalues --    0.17844   0.18514   0.24995   0.29475   0.33188
 Alpha virt. eigenvalues --    0.35488   0.38237   0.40895   0.41775   0.43419

 Mulliken charges:
               1
     1  C    0.075826
     2  O   -0.470843
     3  H    0.029520
     4  H    0.036294
     5  H    0.070699
     6  H    0.258504
 Sum of Mulliken charges =   0.00000

 Dipole moment (field-independent basis, Debye):
    X=             -0.8914    Y=              1.6136    Z=              0.1216  Tot=              1.8475
 Quadrupole moment (field-independent basis, Debye-Ang):
   XX=            -13.1802   YY=            -11.6663   ZZ=            -14.0357
   XY=              2.4972   XZ=              0.0319   YZ=              0.0863

 Normal termination of Gaussian 09 at Wed Aug 26 12:08:31 2020.
