 Gaussian 09, Revision D.01,
 Gaussian 09:  ES64L-G09RevD.01 24-Apr-2013

 --------------------
 #p B2PLYPD3/Def2QZVP
 --------------------

 --------
 methanol
 --------
 Symbolic Z-matrix:
 Charge =  0 Multiplicity = 1

                         Standard orientation:
 ---------------------------------------------------------------------
 Center     Atomic      Atomic             Coordinates (Angstroms)
 Number     Number       Type             X           Y           Z
 ---------------------------------------------------------------------
      1          6           0       -0.658209   -0.016117   -0.004758
      2          8           0        0.757665    0.109461   -0.004203
      3          1           0       -1.075069   -0.512629    0.922756
      4          1           0       -0.986931   -0.587060   -0.917237
      5          1           0       -1.134304    0.994051   -0.014439
      6          1           0        1.084241   -0.673348    0.071091
 ---------------------------------------------------------------------

 SCF Done:  E(RB2PLYPD3) =  -115.537256881     A.U. after   10 cycles
 E2(B2PLYPD3) =    -0.1458960711D+00 E(B2PLYPD3) =    -0.11568315295237D+03

 The electronic state is 1-A.
 Alpha  occ. eigenvalues --  -19.71833 -10.66960  -1.19100  -0.79033  -0.60011
 Alpha  occ. eigenvalues --   -0.51689  -0.50018  -0.41204  -0.35723
 Alpha virt. eigenvalues --    0.05294   0.08550   0.12060   0.12354   0.14587
 Alpha virt. eigenvalues --    0.17531   0.18040   0.28920   0.32594   0.33555
 Alpha virt. eigenvalues --    0.36699   0.38593   0.39591   0.40101   0.43488

 Mulliken charges:
               1
     1  C    0.062445
     2  O   -0.396030
     3  H    0.044695
     4  H    0.049445
     5  H    0.071572
     6  H    0.167874
 Sum of Mulliken charges =   0.00000

 Dipole moment (field-independent basis, Debye):
    X=             -0.9409    Y=             -1.3865    Z=              0.1356  Tot=              1.6811
 Quadrupole moment (field-independent basis, Debye-Ang):
   XX=            -13.1484   YY=            -12.4330   ZZ=            -13.7233
   XY=             -2.1654   XZ=              0.0953   YZ=             -0.0596

 Normal termination of Gaussian 09 at Wed Aug 26 16:16:52 2020.
