 Gaussian 09, Revision D.01,
 Gaussian 09:  ES64L-G09RevD.01 24-Apr-2013

 --------------------
 #p B2PLYPD3/Def2QZVP
 --------------------

 --------
 methanol
 --------
 Symbolic Z-matrix:
 Charge =  0 Multiplicity = 1

                         Standard orientation:
 ---------------------------------------------------------------------
 Center     Atomic      Atomic             Coordinates (Angstroms)
 Number     Number       Type             X           Y           Z
 ---------------------------------------------------------------------
      1          6           0        0.665690   -0.012909    0.011756
      2          8           0       -0.746194    0.131321   -0.015529
      3          1           0        1.068990   -0.623322   -0.808025
      4          1           0        0.937572   -0.489469    0.857528
      5          1           0        1.065748    0.977480   -0.034806
      6          1           0       -1.096896   -0.837798    0.039006
 ---------------------------------------------------------------------

 SCF Done:  E(RB2PLYPD3) =  -115.541009977     A.U. after   10 cycles
 E2(B2PLYPD3) =    -0.1483753297D+00 E(B2PLYPD3) =    -0.11568938530672D+03

 The electronic state is 1-A.
 Alpha  occ. eigenvalues --  -19.73069 -10.64380  -1.15019  -0.78842  -0.58384
 Alpha  occ. eigenvalues --   -0.52024  -0.49460  -0.41748  -0.35117
 Alpha virt. eigenvalues --    0.04379   0.08174   0.12307   0.12646   0.15090
 Alpha virt. eigenvalues --    0.17368   0.17841   0.29277   0.31996   0.33268
 Alpha virt. eigenvalues --    0.34306   0.39030   0.39816   0.41235   0.44963

 Mulliken charges:
               1
     1  C    0.082387
     2  O   -0.475153
     3  H    0.037191
     4  H    0.047318
     5  H    0.070055
     6  H    0.238202
 Sum of Mulliken charges =   0.00000

 Dipole moment (field-independent basis, Debye):
    X=              0.9777    Y=             -1.5997    Z=              0.1733  Tot=              1.8828
 Quadrupole moment (field-independent basis, Debye-Ang):
   XX=            -13.2876   YY=            -11.8256   ZZ=            -13.8897
   XY=              2.2017   XZ=             -0.1220   YZ=             -0.1277

 Normal termination of Gaussian 09 at Wed Aug 26 16:13:20 2020.
