 Gaussian 09, Revision D.01,
 Gaussian 09:  ES64L-G09RevD.01 24-Apr-2013

 --------------------
 #p B2PLYPD3/Def2QZVP
 --------------------

 --------
 methanol
 --------
 Symbolic Z-matrix:
 Charge =  0 Multiplicity = 1

                         Standard orientation:
 ---------------------------------------------------------------------
 Center     Atomic      Atomic             Coordinates (Angstroms)
 Number     Number       Type             X           Y           Z
 ---------------------------------------------------------------------
      1          6           0       -0.631749    0.040552    0.013109
      2          8           0        0.714702   -0.198138   -0.019352
      3          1           0       -0.928041    0.666343   -0.800152
      4          1           0       -1.095049    0.331835    0.804549
      5          1           0       -1.181445   -0.744016   -0.084231
      6          1           0        1.277410    1.087625    0.155995
 ---------------------------------------------------------------------

 SCF Done:  E(RB2PLYPD3) =  -115.425853170     A.U. after   11 cycles
 E2(B2PLYPD3) =    -0.1552216828D+00 E(B2PLYPD3) =    -0.11558107485229D+03

 The electronic state is 1-A.
 Alpha  occ. eigenvalues --  -19.75557 -10.61591  -1.13644  -0.80519  -0.54110
 Alpha  occ. eigenvalues --   -0.53660  -0.50628  -0.38183  -0.34988
 Alpha virt. eigenvalues --   -0.01987   0.07364   0.12736   0.13224   0.14817
 Alpha virt. eigenvalues --    0.18030   0.19073   0.21893   0.29353   0.33229
 Alpha virt. eigenvalues --    0.35908   0.39191   0.39931   0.43210   0.44977

 Mulliken charges:
               1
     1  C    0.087395
     2  O   -0.462828
     3  H    0.035923
     4  H    0.040856
     5  H    0.052744
     6  H    0.245910
 Sum of Mulliken charges =   0.00000

 Dipole moment (field-independent basis, Debye):
    X=             -0.8330    Y=              1.6564    Z=              0.3233  Tot=              1.8821
 Quadrupole moment (field-independent basis, Debye-Ang):
   XX=            -12.5248   YY=            -11.8850   ZZ=            -13.9589
   XY=              2.7982   XZ=              0.0785   YZ=              0.1669

 Normal termination of Gaussian 09 at Wed Aug 26 21:54:12 2020.
