 Gaussian 09, Revision D.01,
 Gaussian 09:  ES64L-G09RevD.01 24-Apr-2013

 --------------------
 #p B2PLYPD3/Def2QZVP
 --------------------

 --------
 methanol
 --------
 Symbolic Z-matrix:
 Charge =  0 Multiplicity = 1

                         Standard orientation:
 ---------------------------------------------------------------------
 Center     Atomic      Atomic             Coordinates (Angstroms)
 Number     Number       Type             X           Y           Z
 ---------------------------------------------------------------------
      1          6           0       -0.664209    0.016592    0.025697
      2          8           0        0.713447   -0.200069   -0.036001
      3          1           0       -1.085776    0.656224   -0.770874
      4          1           0       -0.865707    0.406247    0.772953
      5          1           0       -1.047516   -0.736763    0.012114
      6          1           0        1.276674    1.175291    0.119632
 ---------------------------------------------------------------------

 SCF Done:  E(RB2PLYPD3) =  -115.336591201     A.U. after   13 cycles
 E2(B2PLYPD3) =    -0.1569936001D+00 E(B2PLYPD3) =    -0.11549358480088D+03

 The electronic state is 1-A.
 Alpha  occ. eigenvalues --  -19.75408 -10.59818  -1.12549  -0.82133  -0.57810
 Alpha  occ. eigenvalues --   -0.52430  -0.49736  -0.39012  -0.34834
 Alpha virt. eigenvalues --   -0.03280   0.07536   0.12869   0.13017   0.14797
 Alpha virt. eigenvalues --    0.17476   0.18407   0.21402   0.29586   0.32699
 Alpha virt. eigenvalues --    0.35220   0.38301   0.41266   0.41474   0.46888

 Mulliken charges:
               1
     1  C    0.001687
     2  O   -0.470973
     3  H    0.041438
     4  H    0.081554
     5  H    0.121425
     6  H    0.224869
 Sum of Mulliken charges =   0.00000

 Dipole moment (field-independent basis, Debye):
    X=             -1.0118    Y=              1.6557    Z=              0.4027  Tot=              1.9817
 Quadrupole moment (field-independent basis, Debye-Ang):
   XX=            -12.8411   YY=            -11.2755   ZZ=            -13.8710
   XY=              2.6669   XZ=              0.1442   YZ=              0.2421

 Normal termination of Gaussian 09 at Wed Aug 26 23:35:54 2020.
