 Gaussian 09, Revision D.01,
 Gaussian 09:  ES64L-G09RevD.01 24-Apr-2013

 --------------------
 #p B2PLYPD3/Def2QZVP
 --------------------

 --------
 methanol
 --------
 Symbolic Z-matrix:
 Charge =  0 Multiplicity = 1

                         Standard orientation:
 ---------------------------------------------------------------------
 Center     Atomic      Atomic             Coordinates (Angstroms)
 Number     Number       Type             X           Y           Z
 ---------------------------------------------------------------------
      1          6           0        0.663152    0.023801   -0.026311
      2          8           0       -0.732111   -0.163388    0.016189
      3          1           0        1.052934    0.567904    0.825735
      4          1           0        0.918015    0.523675   -0.777926
      5          1           0        1.085570   -0.903073    0.009399
      6          1           0       -1.178540    0.975788   -0.028852
 ---------------------------------------------------------------------

 SCF Done:  E(RB2PLYPD3) =  -115.486634949     A.U. after   11 cycles
 E2(B2PLYPD3) =    -0.1515791487D+00 E(B2PLYPD3) =    -0.11563821409740D+03

 The electronic state is 1-A.
 Alpha  occ. eigenvalues --  -19.74221 -10.62546  -1.13090  -0.79377  -0.57183
 Alpha  occ. eigenvalues --   -0.52318  -0.49385  -0.40744  -0.34818
 Alpha virt. eigenvalues --    0.01947   0.07752   0.12557   0.12903   0.15019
 Alpha virt. eigenvalues --    0.17537   0.18044   0.25773   0.29645   0.33062
 Alpha virt. eigenvalues --    0.34709   0.39107   0.40004   0.41905   0.45349

 Mulliken charges:
               1
     1  C    0.092908
     2  O   -0.490619
     3  H    0.034237
     4  H    0.048255
     5  H    0.065613
     6  H    0.249605
 Sum of Mulliken charges =   0.00000

 Dipole moment (field-independent basis, Debye):
    X=              0.9392    Y=              1.7018    Z=             -0.1763  Tot=              1.9518
 Quadrupole moment (field-independent basis, Debye-Ang):
   XX=            -13.0564   YY=            -11.6199   ZZ=            -13.9483
   XY=             -2.4434   XZ=              0.0549   YZ=             -0.1785

 Normal termination of Gaussian 09 at Wed Aug 26 12:21:26 2020.
