 Gaussian 09, Revision D.01,
 Gaussian 09:  ES64L-G09RevD.01 24-Apr-2013

 --------------------
 #p B2PLYPD3/Def2QZVP
 --------------------

 --------
 methanol
 --------
 Symbolic Z-matrix:
 Charge =  0 Multiplicity = 1

                         Standard orientation:
 ---------------------------------------------------------------------
 Center     Atomic      Atomic             Coordinates (Angstroms)
 Number     Number       Type             X           Y           Z
 ---------------------------------------------------------------------
      1          6           0       -0.666181   -0.001916    0.036493
      2          8           0        0.755898   -0.060827   -0.044823
      3          1           0       -1.055684    1.127921   -0.498005
      4          1           0       -0.895466   -0.056825    1.065212
      5          1           0       -1.175252   -0.940115   -0.579713
      6          1           0        1.076299    0.367136    0.152128
 ---------------------------------------------------------------------

 SCF Done:  E(RB2PLYPD3) =  -115.094416865     A.U. after   11 cycles
 E2(B2PLYPD3) =    -0.1434963820D+00 E(B2PLYPD3) =    -0.11523791324727D+03

 The electronic state is 1-A.
 Alpha  occ. eigenvalues --  -19.68425 -10.70117  -1.30091  -0.83722  -0.62557
 Alpha  occ. eigenvalues --   -0.51957  -0.50011  -0.40006  -0.36364
 Alpha virt. eigenvalues --    0.04870   0.09619   0.10648   0.11862   0.14104
 Alpha virt. eigenvalues --    0.16838   0.17498   0.28188   0.30917   0.31902
 Alpha virt. eigenvalues --    0.33792   0.34871   0.40613   0.42125   0.43323

 Mulliken charges:
               1
     1  C    0.057810
     2  O   -0.131900
     3  H    0.028584
     4  H    0.076176
     5  H    0.081450
     6  H   -0.112121
 Sum of Mulliken charges =   0.00000

 Dipole moment (field-independent basis, Debye):
    X=             -0.9841    Y=              0.8331    Z=              0.6416  Tot=              1.4402
 Quadrupole moment (field-independent basis, Debye-Ang):
   XX=            -13.1349   YY=            -12.8085   ZZ=            -13.2464
   XY=              1.8217   XZ=              0.7433   YZ=              0.3034

 Normal termination of Gaussian 09 at Wed Aug 26 20:05:21 2020.
