 Gaussian 09, Revision D.01,
 Gaussian 09:  ES64L-G09RevD.01 24-Apr-2013

 --------------------
 #p B2PLYPD3/Def2QZVP
 --------------------

 --------
 methanol
 --------
 Symbolic Z-matrix:
 Charge =  0 Multiplicity = 1

                         Standard orientation:
 ---------------------------------------------------------------------
 Center     Atomic      Atomic             Coordinates (Angstroms)
 Number     Number       Type             X           Y           Z
 ---------------------------------------------------------------------
      1          6           0       -0.672413    0.008609    0.010518
      2          8           0        0.749553   -0.160638   -0.014149
      3          1           0       -1.117775    0.581379   -0.825599
      4          1           0       -1.024657    0.484730    0.841956
      5          1           0       -1.074577   -0.830388   -0.010660
      6          1           0        1.255061    0.997725    0.044387
 ---------------------------------------------------------------------

 SCF Done:  E(RB2PLYPD3) =  -115.473953856     A.U. after   11 cycles
 E2(B2PLYPD3) =    -0.1529367718D+00 E(B2PLYPD3) =    -0.11562689062757D+03

 The electronic state is 1-A.
 Alpha  occ. eigenvalues --  -19.74774 -10.62969  -1.11897  -0.79902  -0.55623
 Alpha  occ. eigenvalues --   -0.50828  -0.50166  -0.40599  -0.34919
 Alpha virt. eigenvalues --    0.01236   0.07426   0.12789   0.12926   0.14867
 Alpha virt. eigenvalues --    0.17516   0.18470   0.24727   0.29509   0.33408
 Alpha virt. eigenvalues --    0.33850   0.38152   0.40558   0.41345   0.43602

 Mulliken charges:
               1
     1  C    0.081026
     2  O   -0.496889
     3  H    0.037181
     4  H    0.044183
     5  H    0.077945
     6  H    0.256554
 Sum of Mulliken charges =   0.00000

 Dipole moment (field-independent basis, Debye):
    X=             -0.9154    Y=              1.6302    Z=              0.1726  Tot=              1.8776
 Quadrupole moment (field-independent basis, Debye-Ang):
   XX=            -12.6104   YY=            -11.7648   ZZ=            -14.0605
   XY=              2.6418   XZ=              0.0756   YZ=              0.1195

 Normal termination of Gaussian 09 at Wed Aug 26 14:09:03 2020.
