 Gaussian 09, Revision D.01,
 Gaussian 09:  ES64L-G09RevD.01 24-Apr-2013

 --------------------
 #p B2PLYPD3/Def2QZVP
 --------------------

 --------
 methanol
 --------
 Symbolic Z-matrix:
 Charge =  0 Multiplicity = 1

                         Standard orientation:
 ---------------------------------------------------------------------
 Center     Atomic      Atomic             Coordinates (Angstroms)
 Number     Number       Type             X           Y           Z
 ---------------------------------------------------------------------
      1          6           0        0.693152   -0.035335    0.028300
      2          8           0       -0.762326    0.050940   -0.010699
      3          1           0        0.966702   -0.893865   -0.815273
      4          1           0        1.074225   -0.240508    1.017107
      5          1           0        1.046265    1.211354   -0.371809
      6          1           0       -1.147497   -0.272494    0.085762
 ---------------------------------------------------------------------

 SCF Done:  E(RB2PLYPD3) =  -114.810933915     A.U. after   12 cycles
 E2(B2PLYPD3) =    -0.1442313955D+00 E(B2PLYPD3) =    -0.11495516531079D+03

 The electronic state is 1-A.
 Alpha  occ. eigenvalues --  -19.67559 -10.71765  -1.31102  -0.84827  -0.62784
 Alpha  occ. eigenvalues --   -0.51696  -0.47988  -0.38430  -0.36757
 Alpha virt. eigenvalues --    0.04302   0.09787   0.10076   0.11446   0.13833
 Alpha virt. eigenvalues --    0.16376   0.17517   0.28176   0.29756   0.31058
 Alpha virt. eigenvalues --    0.32646   0.35649   0.39371   0.40910   0.42382

 Mulliken charges:
               1
     1  C    0.049630
     2  O   -0.089325
     3  H    0.063874
     4  H    0.088404
     5  H    0.073736
     6  H   -0.186319
 Sum of Mulliken charges =   0.00000

 Dipole moment (field-independent basis, Debye):
    X=              1.0333    Y=             -0.9825    Z=              0.4177  Tot=              1.4857
 Quadrupole moment (field-independent basis, Debye-Ang):
   XX=            -12.8148   YY=            -12.7394   ZZ=            -13.1906
   XY=              1.3787   XZ=             -0.1175   YZ=             -0.1316

 Normal termination of Gaussian 09 at Wed Aug 26 23:57:09 2020.
