 Gaussian 09, Revision D.01,
 Gaussian 09:  ES64L-G09RevD.01 24-Apr-2013

 --------------------
 #p B2PLYPD3/Def2QZVP
 --------------------

 --------
 methanol
 --------
 Symbolic Z-matrix:
 Charge =  0 Multiplicity = 1

                         Standard orientation:
 ---------------------------------------------------------------------
 Center     Atomic      Atomic             Coordinates (Angstroms)
 Number     Number       Type             X           Y           Z
 ---------------------------------------------------------------------
      1          6           0        0.644757    0.006683    0.012984
      2          8           0       -0.773140    0.066990   -0.022127
      3          1           0        1.165590   -0.855074   -0.747715
      4          1           0        0.974001   -0.343797    1.016428
      5          1           0        1.123575    1.115658   -0.225152
      6          1           0       -0.946591   -0.492806    0.055552
 ---------------------------------------------------------------------

 SCF Done:  E(RB2PLYPD3) =  -115.174961277     A.U. after   11 cycles
 E2(B2PLYPD3) =    -0.1438843338D+00 E(B2PLYPD3) =    -0.11531884561060D+03

 The electronic state is 1-A.
 Alpha  occ. eigenvalues --  -19.69724 -10.69833  -1.31082  -0.81200  -0.63162
 Alpha  occ. eigenvalues --   -0.51011  -0.50280  -0.42407  -0.36297
 Alpha virt. eigenvalues --    0.04971   0.09179   0.11002   0.11819   0.14952
 Alpha virt. eigenvalues --    0.16918   0.17646   0.27978   0.31272   0.32476
 Alpha virt. eigenvalues --    0.34609   0.35368   0.39732   0.40415   0.43455

 Mulliken charges:
               1
     1  C    0.052315
     2  O   -0.151717
     3  H    0.029882
     4  H    0.058236
     5  H    0.075112
     6  H   -0.063828
 Sum of Mulliken charges =   0.00000

 Dipole moment (field-independent basis, Debye):
    X=              1.1311    Y=             -1.1139    Z=              0.3159  Tot=              1.6186
 Quadrupole moment (field-independent basis, Debye-Ang):
   XX=            -13.5609   YY=            -12.2940   ZZ=            -13.7629
   XY=              1.6557   XZ=             -0.2042   YZ=             -0.2605

 Normal termination of Gaussian 09 at Wed Aug 26 18:40:21 2020.
