 Gaussian 09, Revision D.01,
 Gaussian 09:  ES64L-G09RevD.01 24-Apr-2013

 --------------------
 #p B2PLYPD3/Def2QZVP
 --------------------

 --------
 methanol
 --------
 Symbolic Z-matrix:
 Charge =  0 Multiplicity = 1

                         Standard orientation:
 ---------------------------------------------------------------------
 Center     Atomic      Atomic             Coordinates (Angstroms)
 Number     Number       Type             X           Y           Z
 ---------------------------------------------------------------------
      1          6           0        0.701004   -0.004061    0.036580
      2          8           0       -0.758337   -0.060661   -0.045554
      3          1           0        0.895294    0.010397    1.110344
      4          1           0        1.100821    1.002710   -0.597113
      5          1           0        1.051850   -0.920797   -0.537815
      6          1           0       -1.187293    0.417340    0.169533
 ---------------------------------------------------------------------

 SCF Done:  E(RB2PLYPD3) =  -115.372731451     A.U. after   11 cycles
 E2(B2PLYPD3) =    -0.1443099462D+00 E(B2PLYPD3) =    -0.11551704139754D+03

 The electronic state is 1-A.
 Alpha  occ. eigenvalues --  -19.68385 -10.69272  -1.22934  -0.82142  -0.60372
 Alpha  occ. eigenvalues --   -0.52359  -0.49281  -0.39473  -0.35824
 Alpha virt. eigenvalues --    0.05260   0.09137   0.11336   0.11953   0.13818
 Alpha virt. eigenvalues --    0.16565   0.17599   0.28764   0.30237   0.32187
 Alpha virt. eigenvalues --    0.35101   0.37886   0.40340   0.40774   0.42259

 Mulliken charges:
               1
     1  C    0.064382
     2  O   -0.260667
     3  H    0.075226
     4  H    0.041536
     5  H    0.094176
     6  H   -0.014653
 Sum of Mulliken charges =   0.00000

 Dipole moment (field-independent basis, Debye):
    X=              0.9808    Y=              0.9144    Z=              0.5705  Tot=              1.4573
 Quadrupole moment (field-independent basis, Debye-Ang):
   XX=            -12.8345   YY=            -12.9270   ZZ=            -13.1257
   XY=             -1.8147   XZ=             -0.8808   YZ=              0.3365

 Normal termination of Gaussian 09 at Wed Aug 26 22:39:55 2020.
