 Gaussian 09, Revision D.01,
 Gaussian 09:  ES64L-G09RevD.01 24-Apr-2013

 --------------------
 #p B2PLYPD3/Def2QZVP
 --------------------

 --------
 methanol
 --------
 Symbolic Z-matrix:
 Charge =  0 Multiplicity = 1

                         Standard orientation:
 ---------------------------------------------------------------------
 Center     Atomic      Atomic             Coordinates (Angstroms)
 Number     Number       Type             X           Y           Z
 ---------------------------------------------------------------------
      1          6           0        0.640619   -0.010649    0.002870
      2          8           0       -0.747726    0.091135    0.007080
      3          1           0        1.027050   -0.598185   -0.912976
      4          1           0        1.107416   -0.519002    0.929742
      5          1           0        1.057908    1.066065   -0.073932
      6          1           0       -1.054283   -0.614065   -0.016688
 ---------------------------------------------------------------------

 SCF Done:  E(RB2PLYPD3) =  -115.492894673     A.U. after   10 cycles
 E2(B2PLYPD3) =    -0.1447245278D+00 E(B2PLYPD3) =    -0.11563761920112D+03

 The electronic state is 1-A.
 Alpha  occ. eigenvalues --  -19.71247 -10.67848  -1.22857  -0.79813  -0.61743
 Alpha  occ. eigenvalues --   -0.51322  -0.50490  -0.41225  -0.35715
 Alpha virt. eigenvalues --    0.05325   0.08882   0.11933   0.12083   0.14960
 Alpha virt. eigenvalues --    0.17138   0.17929   0.28720   0.32888   0.34014
 Alpha virt. eigenvalues --    0.36729   0.38452   0.39059   0.40386   0.42482

 Mulliken charges:
               1
     1  C    0.049930
     2  O   -0.297996
     3  H    0.040102
     4  H    0.045807
     5  H    0.070342
     6  H    0.091816
 Sum of Mulliken charges =   0.00000

 Dipole moment (field-independent basis, Debye):
    X=              0.8108    Y=             -1.3095    Z=             -0.0566  Tot=              1.5413
 Quadrupole moment (field-independent basis, Debye-Ang):
   XX=            -13.2667   YY=            -12.4283   ZZ=            -13.8038
   XY=              1.9244   XZ=              0.1025   YZ=             -0.0042

 Normal termination of Gaussian 09 at Wed Aug 26 10:48:35 2020.
