 Gaussian 09, Revision D.01,
 Gaussian 09:  ES64L-G09RevD.01 24-Apr-2013

 --------------------
 #p B2PLYPD3/Def2QZVP
 --------------------

 --------
 methanol
 --------
 Symbolic Z-matrix:
 Charge =  0 Multiplicity = 1

                         Standard orientation:
 ---------------------------------------------------------------------
 Center     Atomic      Atomic             Coordinates (Angstroms)
 Number     Number       Type             X           Y           Z
 ---------------------------------------------------------------------
      1          6           0        0.678479    0.031156   -0.005398
      2          8           0       -0.733406   -0.172893    0.007536
      3          1           0        1.008871    0.533051    0.795436
      4          1           0        0.868775    0.575069   -0.787703
      5          1           0        1.135742   -0.880425   -0.040517
      6          1           0       -1.217012    0.968509    0.004889
 ---------------------------------------------------------------------

 SCF Done:  E(RB2PLYPD3) =  -115.485313861     A.U. after   11 cycles
 E2(B2PLYPD3) =    -0.1518135463D+00 E(B2PLYPD3) =    -0.11563712740773D+03

 The electronic state is 1-A.
 Alpha  occ. eigenvalues --  -19.73949 -10.62114  -1.12146  -0.79633  -0.56097
 Alpha  occ. eigenvalues --   -0.53386  -0.49151  -0.40412  -0.34852
 Alpha virt. eigenvalues --    0.01782   0.07752   0.12603   0.12940   0.14776
 Alpha virt. eigenvalues --    0.17713   0.17769   0.25530   0.29711   0.32981
 Alpha virt. eigenvalues --    0.34020   0.39766   0.40200   0.43276   0.44262

 Mulliken charges:
               1
     1  C    0.104109
     2  O   -0.503758
     3  H    0.041046
     4  H    0.045229
     5  H    0.065290
     6  H    0.248084
 Sum of Mulliken charges =   0.00000

 Dipole moment (field-independent basis, Debye):
    X=              0.9970    Y=              1.7432    Z=             -0.0299  Tot=              2.0084
 Quadrupole moment (field-independent basis, Debye-Ang):
   XX=            -12.8729   YY=            -11.6360   ZZ=            -13.8840
   XY=             -2.5481   XZ=              0.0884   YZ=             -0.0193

 Normal termination of Gaussian 09 at Wed Aug 26 15:14:06 2020.
