 Gaussian 09, Revision D.01,
 Gaussian 09:  ES64L-G09RevD.01 24-Apr-2013

 --------------------
 #p B2PLYPD3/Def2QZVP
 --------------------

 --------
 methanol
 --------
 Symbolic Z-matrix:
 Charge =  0 Multiplicity = 1

                         Standard orientation:
 ---------------------------------------------------------------------
 Center     Atomic      Atomic             Coordinates (Angstroms)
 Number     Number       Type             X           Y           Z
 ---------------------------------------------------------------------
      1          6           0        0.662474    0.016310   -0.006637
      2          8           0       -0.746236   -0.138256    0.006021
      3          1           0        1.094119    0.534116    0.849887
      4          1           0        1.022207    0.562838   -0.828287
      5          1           0        1.070169   -0.953158   -0.025008
      6          1           0       -1.191457    0.864393   -0.004945
 ---------------------------------------------------------------------

 SCF Done:  E(RB2PLYPD3) =  -115.534089307     A.U. after   11 cycles
 E2(B2PLYPD3) =    -0.1496150938D+00 E(B2PLYPD3) =    -0.11568370440089D+03

 The electronic state is 1-A.
 Alpha  occ. eigenvalues --  -19.73765 -10.64512  -1.14004  -0.78536  -0.57484
 Alpha  occ. eigenvalues --   -0.51180  -0.49723  -0.41093  -0.35021
 Alpha virt. eigenvalues --    0.03781   0.07744   0.12484   0.12766   0.15148
 Alpha virt. eigenvalues --    0.17303   0.18209   0.28921   0.30361   0.33461
 Alpha virt. eigenvalues --    0.34239   0.38963   0.39497   0.41127   0.44090

 Mulliken charges:
               1
     1  C    0.077320
     2  O   -0.483308
     3  H    0.040856
     4  H    0.044082
     5  H    0.069827
     6  H    0.251224
 Sum of Mulliken charges =   0.00000

 Dipole moment (field-independent basis, Debye):
    X=              0.8408    Y=              1.6123    Z=             -0.0596  Tot=              1.8193
 Quadrupole moment (field-independent basis, Debye-Ang):
   XX=            -12.8332   YY=            -11.9601   ZZ=            -14.0433
   XY=             -2.3708   XZ=              0.0246   YZ=             -0.0442

 Normal termination of Gaussian 09 at Thu Aug 27 00:04:09 2020.
