 Gaussian 09, Revision D.01,
 Gaussian 09:  ES64L-G09RevD.01 24-Apr-2013

 --------------------
 #p B2PLYPD3/Def2QZVP
 --------------------

 --------
 methanol
 --------
 Symbolic Z-matrix:
 Charge =  0 Multiplicity = 1

                         Standard orientation:
 ---------------------------------------------------------------------
 Center     Atomic      Atomic             Coordinates (Angstroms)
 Number     Number       Type             X           Y           Z
 ---------------------------------------------------------------------
      1          6           0       -0.658181    0.013019   -0.003682
      2          8           0        0.743750   -0.115000   -0.014518
      3          1           0       -0.875185    0.850341   -0.757275
      4          1           0       -1.076334    0.273863    1.034868
      5          1           0       -1.208238   -0.887930   -0.289148
      6          1           0        1.158844    0.605613    0.149794
 ---------------------------------------------------------------------

 SCF Done:  E(RB2PLYPD3) =  -115.531233873     A.U. after   11 cycles
 E2(B2PLYPD3) =    -0.1455948386D+00 E(B2PLYPD3) =    -0.11567682871196D+03

 The electronic state is 1-A.
 Alpha  occ. eigenvalues --  -19.71418 -10.67204  -1.19091  -0.79467  -0.60076
 Alpha  occ. eigenvalues --   -0.52060  -0.50719  -0.40032  -0.35191
 Alpha virt. eigenvalues --    0.05291   0.08454   0.11984   0.12713   0.14207
 Alpha virt. eigenvalues --    0.17691   0.17925   0.28941   0.32302   0.33202
 Alpha virt. eigenvalues --    0.36106   0.39025   0.39144   0.40941   0.43864

 Mulliken charges:
               1
     1  C    0.062806
     2  O   -0.394887
     3  H    0.039727
     4  H    0.042188
     5  H    0.080757
     6  H    0.169409
 Sum of Mulliken charges =   0.00000

 Dipole moment (field-independent basis, Debye):
    X=             -0.7796    Y=              1.2800    Z=              0.2715  Tot=              1.5231
 Quadrupole moment (field-independent basis, Debye-Ang):
   XX=            -12.7737   YY=            -12.7039   ZZ=            -13.7192
   XY=              2.4122   XZ=              0.4002   YZ=              0.1896

 Normal termination of Gaussian 09 at Wed Aug 26 18:48:20 2020.
