 Gaussian 09, Revision D.01,
 Gaussian 09:  ES64L-G09RevD.01 24-Apr-2013

 --------------------
 #p B2PLYPD3/Def2QZVP
 --------------------

 --------
 methanol
 --------
 Symbolic Z-matrix:
 Charge =  0 Multiplicity = 1

                         Standard orientation:
 ---------------------------------------------------------------------
 Center     Atomic      Atomic             Coordinates (Angstroms)
 Number     Number       Type             X           Y           Z
 ---------------------------------------------------------------------
      1          6           0       -0.659185   -0.024323   -0.004207
      2          8           0        0.749504    0.097399   -0.014655
      3          1           0       -1.032671   -0.384916    0.991736
      4          1           0       -0.954365   -0.765677   -0.811791
      5          1           0       -1.170384    1.043362   -0.158492
      6          1           0        1.116496   -0.526023    0.121030
 ---------------------------------------------------------------------

 SCF Done:  E(RB2PLYPD3) =  -115.462961387     A.U. after   10 cycles
 E2(B2PLYPD3) =    -0.1442392967D+00 E(B2PLYPD3) =    -0.11560720068332D+03

 The electronic state is 1-A.
 Alpha  occ. eigenvalues --  -19.70162 -10.68060  -1.22752  -0.80683  -0.61597
 Alpha  occ. eigenvalues --   -0.52032  -0.49823  -0.40442  -0.35914
 Alpha virt. eigenvalues --    0.05351   0.09033   0.11905   0.12062   0.14504
 Alpha virt. eigenvalues --    0.17175   0.17752   0.28825   0.32581   0.33337
 Alpha virt. eigenvalues --    0.35664   0.38662   0.39581   0.40387   0.42950

 Mulliken charges:
               1
     1  C    0.061231
     2  O   -0.287124
     3  H    0.049025
     4  H    0.050898
     5  H    0.072409
     6  H    0.053562
 Sum of Mulliken charges =   0.00000

 Dipole moment (field-independent basis, Debye):
    X=             -0.8714    Y=             -1.2742    Z=              0.2955  Tot=              1.5717
 Quadrupole moment (field-independent basis, Debye-Ang):
   XX=            -12.9570   YY=            -12.5870   ZZ=            -13.6377
   XY=             -2.0337   XZ=              0.3082   YZ=             -0.1064

 Normal termination of Gaussian 09 at Wed Aug 26 10:49:12 2020.
