 Gaussian 09, Revision D.01,
 Gaussian 09:  ES64L-G09RevD.01 24-Apr-2013

 --------------------
 #p B2PLYPD3/Def2QZVP
 --------------------

 --------
 methanol
 --------
 Symbolic Z-matrix:
 Charge =  0 Multiplicity = 1

                         Standard orientation:
 ---------------------------------------------------------------------
 Center     Atomic      Atomic             Coordinates (Angstroms)
 Number     Number       Type             X           Y           Z
 ---------------------------------------------------------------------
      1          6           0        0.663146    0.027044    0.001661
      2          8           0       -0.738632   -0.140676   -0.006750
      3          1           0        1.005039    0.448225    0.871479
      4          1           0        0.975837    0.622849   -0.812432
      5          1           0        1.078038   -0.960213   -0.066393
      6          1           0       -1.128734    0.852283    0.051376
 ---------------------------------------------------------------------

 SCF Done:  E(RB2PLYPD3) =  -115.537887069     A.U. after   11 cycles
 E2(B2PLYPD3) =    -0.1487927979D+00 E(B2PLYPD3) =    -0.11568667986684D+03

 The electronic state is 1-A.
 Alpha  occ. eigenvalues --  -19.73241 -10.63999  -1.14613  -0.78699  -0.57706
 Alpha  occ. eigenvalues --   -0.52786  -0.49394  -0.41063  -0.35201
 Alpha virt. eigenvalues --    0.04092   0.08096   0.12443   0.12647   0.14973
 Alpha virt. eigenvalues --    0.17372   0.18056   0.29121   0.31071   0.33342
 Alpha virt. eigenvalues --    0.34460   0.39099   0.39923   0.42425   0.44504

 Mulliken charges:
               1
     1  C    0.082706
     2  O   -0.480856
     3  H    0.046284
     4  H    0.043191
     5  H    0.064729
     6  H    0.243945
 Sum of Mulliken charges =   0.00000

 Dipole moment (field-independent basis, Debye):
    X=              0.9258    Y=              1.6308    Z=              0.1228  Tot=              1.8793
 Quadrupole moment (field-independent basis, Debye-Ang):
   XX=            -13.1738   YY=            -11.9187   ZZ=            -13.8011
   XY=             -2.2826   XZ=             -0.0655   YZ=              0.0671

 Normal termination of Gaussian 09 at Thu Aug 27 00:15:17 2020.
