 Gaussian 09, Revision D.01,
 Gaussian 09:  ES64L-G09RevD.01 24-Apr-2013

 --------------------
 #p B2PLYPD3/Def2QZVP
 --------------------

 --------
 methanol
 --------
 Symbolic Z-matrix:
 Charge =  0 Multiplicity = 1

                         Standard orientation:
 ---------------------------------------------------------------------
 Center     Atomic      Atomic             Coordinates (Angstroms)
 Number     Number       Type             X           Y           Z
 ---------------------------------------------------------------------
      1          6           0        0.663140   -0.008926   -0.000481
      2          8           0       -0.755219    0.098572    0.001703
      3          1           0        1.022931   -0.604081   -0.903928
      4          1           0        1.006704   -0.534094    0.959920
      5          1           0        1.106411    1.018244   -0.046391
      6          1           0       -1.073131   -0.615090   -0.020340
 ---------------------------------------------------------------------

 SCF Done:  E(RB2PLYPD3) =  -115.504929916     A.U. after   10 cycles
 E2(B2PLYPD3) =    -0.1448316131D+00 E(B2PLYPD3) =    -0.11564976152930D+03

 The electronic state is 1-A.
 Alpha  occ. eigenvalues --  -19.70831 -10.67489  -1.21169  -0.79816  -0.60714
 Alpha  occ. eigenvalues --   -0.51376  -0.50467  -0.41444  -0.35708
 Alpha virt. eigenvalues --    0.05365   0.08920   0.11926   0.12215   0.14572
 Alpha virt. eigenvalues --    0.17303   0.17707   0.28853   0.32663   0.33078
 Alpha virt. eigenvalues --    0.37150   0.38994   0.39307   0.39979   0.43127

 Mulliken charges:
               1
     1  C    0.062355
     2  O   -0.335187
     3  H    0.045141
     4  H    0.047042
     5  H    0.078475
     6  H    0.102174
 Sum of Mulliken charges =   0.00000

 Dipole moment (field-independent basis, Debye):
    X=              0.9598    Y=             -1.3091    Z=             -0.0561  Tot=              1.6242
 Quadrupole moment (field-independent basis, Debye-Ang):
   XX=            -13.2315   YY=            -12.3915   ZZ=            -13.6696
   XY=              2.0914   XZ=              0.0077   YZ=              0.0238

 Normal termination of Gaussian 09 at Thu Aug 27 00:03:23 2020.
