 Gaussian 09, Revision D.01,
 Gaussian 09:  ES64L-G09RevD.01 24-Apr-2013

 --------------------
 #p B2PLYPD3/Def2QZVP
 --------------------

 --------
 methanol
 --------
 Symbolic Z-matrix:
 Charge =  0 Multiplicity = 1

                         Standard orientation:
 ---------------------------------------------------------------------
 Center     Atomic      Atomic             Coordinates (Angstroms)
 Number     Number       Type             X           Y           Z
 ---------------------------------------------------------------------
      1          6           0       -0.674161   -0.020829    0.017720
      2          8           0        0.744553    0.083356   -0.015292
      3          1           0       -0.964105   -0.422612    1.024415
      4          1           0       -1.084581   -0.644423   -0.913988
      5          1           0       -1.026961    1.048996   -0.122776
      6          1           0        1.164194   -0.523836    0.028369
 ---------------------------------------------------------------------

 SCF Done:  E(RB2PLYPD3) =  -115.464289251     A.U. after   11 cycles
 E2(B2PLYPD3) =    -0.1443884038D+00 E(B2PLYPD3) =    -0.11560867765442D+03

 The electronic state is 1-A.
 Alpha  occ. eigenvalues --  -19.69763 -10.68174  -1.21808  -0.81161  -0.60620
 Alpha  occ. eigenvalues --   -0.51909  -0.49950  -0.39903  -0.35856
 Alpha virt. eigenvalues --    0.05424   0.09029   0.11774   0.12137   0.14247
 Alpha virt. eigenvalues --    0.16661   0.18052   0.28847   0.32436   0.32985
 Alpha virt. eigenvalues --    0.36291   0.38749   0.39786   0.40403   0.42558

 Mulliken charges:
               1
     1  C    0.053482
     2  O   -0.293081
     3  H    0.061413
     4  H    0.046666
     5  H    0.081149
     6  H    0.050372
 Sum of Mulliken charges =   0.00000

 Dipole moment (field-independent basis, Debye):
    X=             -0.8030    Y=             -1.1817    Z=              0.1525  Tot=              1.4368
 Quadrupole moment (field-independent basis, Debye-Ang):
   XX=            -12.8987   YY=            -12.7159   ZZ=            -13.4288
   XY=             -2.0102   XZ=              0.1909   YZ=             -0.1241

 Normal termination of Gaussian 09 at Wed Aug 26 15:01:59 2020.
