 Gaussian 09, Revision D.01,
 Gaussian 09:  ES64L-G09RevD.01 24-Apr-2013

 --------------------
 #p B2PLYPD3/Def2QZVP
 --------------------

 --------
 methanol
 --------
 Symbolic Z-matrix:
 Charge =  0 Multiplicity = 1

                         Standard orientation:
 ---------------------------------------------------------------------
 Center     Atomic      Atomic             Coordinates (Angstroms)
 Number     Number       Type             X           Y           Z
 ---------------------------------------------------------------------
      1          6           0       -0.678162   -0.005372    0.006515
      2          8           0        0.765768    0.085813   -0.026538
      3          1           0       -1.063446   -0.261935    1.031518
      4          1           0       -1.052234   -0.861311   -0.753641
      5          1           0       -1.106199    1.003406   -0.270793
      6          1           0        1.164704   -0.534430    0.166130
 ---------------------------------------------------------------------

 SCF Done:  E(RB2PLYPD3) =  -115.483823857     A.U. after   11 cycles
 E2(B2PLYPD3) =    -0.1450655384D+00 E(B2PLYPD3) =    -0.11562888939580D+03

 The electronic state is 1-A.
 Alpha  occ. eigenvalues --  -19.70443 -10.68496  -1.20660  -0.80331  -0.60689
 Alpha  occ. eigenvalues --   -0.50460  -0.50104  -0.40754  -0.35756
 Alpha virt. eigenvalues --    0.05348   0.08723   0.11763   0.12139   0.14485
 Alpha virt. eigenvalues --    0.17011   0.17836   0.28895   0.31603   0.32899
 Alpha virt. eigenvalues --    0.36455   0.37799   0.39386   0.40161   0.42081

 Mulliken charges:
               1
     1  C    0.061573
     2  O   -0.327188
     3  H    0.055930
     4  H    0.043536
     5  H    0.085581
     6  H    0.080569
 Sum of Mulliken charges =   0.00000

 Dipole moment (field-independent basis, Debye):
    X=             -0.9328    Y=             -1.1582    Z=              0.4478  Tot=              1.5531
 Quadrupole moment (field-independent basis, Debye-Ang):
   XX=            -12.7862   YY=            -12.6315   ZZ=            -13.6746
   XY=             -2.0572   XZ=              0.4962   YZ=             -0.2769

 Normal termination of Gaussian 09 at Wed Aug 26 11:53:56 2020.
