 Gaussian 09, Revision D.01,
 Gaussian 09:  ES64L-G09RevD.01 24-Apr-2013

 --------------------
 #p B2PLYPD3/Def2QZVP
 --------------------

 --------
 methanol
 --------
 Symbolic Z-matrix:
 Charge =  0 Multiplicity = 1

                         Standard orientation:
 ---------------------------------------------------------------------
 Center     Atomic      Atomic             Coordinates (Angstroms)
 Number     Number       Type             X           Y           Z
 ---------------------------------------------------------------------
      1          6           0        0.681830    0.056377   -0.004912
      2          8           0       -0.742984   -0.213884   -0.008112
      3          1           0        0.990202    0.420470    0.743750
      4          1           0        0.990033    0.626844   -0.659800
      5          1           0        1.202410   -0.831723   -0.038507
      6          1           0       -1.329751    1.157216    0.048929
 ---------------------------------------------------------------------

 SCF Done:  E(RB2PLYPD3) =  -115.377436919     A.U. after   12 cycles
 E2(B2PLYPD3) =    -0.1576939398D+00 E(B2PLYPD3) =    -0.11553513085880D+03

 The electronic state is 1-A.
 Alpha  occ. eigenvalues --  -19.75774 -10.60533  -1.10394  -0.82584  -0.54727
 Alpha  occ. eigenvalues --   -0.53565  -0.48337  -0.38972  -0.35639
 Alpha virt. eigenvalues --   -0.03088   0.07254   0.12459   0.13418   0.14584
 Alpha virt. eigenvalues --    0.17700   0.18508   0.21206   0.29567   0.33227
 Alpha virt. eigenvalues --    0.33818   0.38350   0.39602   0.44015   0.44829

 Mulliken charges:
               1
     1  C    0.096355
     2  O   -0.484249
     3  H    0.067321
     4  H    0.048640
     5  H    0.049866
     6  H    0.222067
 Sum of Mulliken charges =   0.00000

 Dipole moment (field-independent basis, Debye):
    X=              1.1549    Y=              1.8525    Z=              0.1329  Tot=              2.1870
 Quadrupole moment (field-independent basis, Debye-Ang):
   XX=            -12.4575   YY=            -11.3665   ZZ=            -14.0833
   XY=             -2.5458   XZ=             -0.0081   YZ=              0.0100

 Normal termination of Gaussian 09 at Wed Aug 26 18:35:07 2020.
