 Gaussian 09, Revision D.01,
 Gaussian 09:  ES64L-G09RevD.01 24-Apr-2013

 --------------------
 #p B2PLYPD3/Def2QZVP
 --------------------

 --------
 methanol
 --------
 Symbolic Z-matrix:
 Charge =  0 Multiplicity = 1

                         Standard orientation:
 ---------------------------------------------------------------------
 Center     Atomic      Atomic             Coordinates (Angstroms)
 Number     Number       Type             X           Y           Z
 ---------------------------------------------------------------------
      1          6           0        0.678615    0.024925    0.011324
      2          8           0       -0.759361   -0.185680   -0.013097
      3          1           0        1.180830    0.399287    0.725451
      4          1           0        0.972805    0.730036   -0.725840
      5          1           0        1.158294   -0.867771   -0.092211
      6          1           0       -1.308727    1.074336    0.129437
 ---------------------------------------------------------------------

 SCF Done:  E(RB2PLYPD3) =  -115.438035781     A.U. after   11 cycles
 E2(B2PLYPD3) =    -0.1561660343D+00 E(B2PLYPD3) =    -0.11559420181516D+03

 The electronic state is 1-A.
 Alpha  occ. eigenvalues --  -19.75729 -10.62883  -1.10679  -0.80735  -0.54693
 Alpha  occ. eigenvalues --   -0.51477  -0.47951  -0.40132  -0.34971
 Alpha virt. eigenvalues --   -0.01080   0.07127   0.12342   0.13135   0.14738
 Alpha virt. eigenvalues --    0.17624   0.18666   0.22399   0.29323   0.32149
 Alpha virt. eigenvalues --    0.34260   0.37741   0.38719   0.41664   0.45057

 Mulliken charges:
               1
     1  C    0.097690
     2  O   -0.485538
     3  H    0.046972
     4  H    0.034651
     5  H    0.061194
     6  H    0.245030
 Sum of Mulliken charges =   0.00000

 Dipole moment (field-independent basis, Debye):
    X=              0.9983    Y=              1.7690    Z=              0.2981  Tot=              2.0530
 Quadrupole moment (field-independent basis, Debye-Ang):
   XX=            -12.3850   YY=            -11.5513   ZZ=            -14.4102
   XY=             -2.6154   XZ=              0.0023   YZ=              0.1768

 Normal termination of Gaussian 09 at Wed Aug 26 23:11:38 2020.
