 Gaussian 09, Revision D.01,
 Gaussian 09:  ES64L-G09RevD.01 24-Apr-2013

 --------------------
 #p B2PLYPD3/Def2QZVP
 --------------------

 --------
 methanol
 --------
 Symbolic Z-matrix:
 Charge =  0 Multiplicity = 1

                         Standard orientation:
 ---------------------------------------------------------------------
 Center     Atomic      Atomic             Coordinates (Angstroms)
 Number     Number       Type             X           Y           Z
 ---------------------------------------------------------------------
      1          6           0        0.656010   -0.019429    0.011337
      2          8           0       -0.741391    0.113147   -0.020619
      3          1           0        1.043600   -0.727548   -0.807336
      4          1           0        0.994228   -0.367411    0.959084
      5          1           0        1.105072    0.987066   -0.151295
      6          1           0       -1.147830   -0.680714    0.096477
 ---------------------------------------------------------------------

 SCF Done:  E(RB2PLYPD3) =  -115.547423391     A.U. after   10 cycles
 E2(B2PLYPD3) =    -0.1461368449D+00 E(B2PLYPD3) =    -0.11569356023594D+03

 The electronic state is 1-A.
 Alpha  occ. eigenvalues --  -19.72010 -10.66210  -1.17933  -0.79044  -0.59876
 Alpha  occ. eigenvalues --   -0.51785  -0.50247  -0.40659  -0.35398
 Alpha virt. eigenvalues --    0.05205   0.08441   0.12219   0.12471   0.14836
 Alpha virt. eigenvalues --    0.17285   0.18052   0.29065   0.33074   0.34041
 Alpha virt. eigenvalues --    0.36357   0.38863   0.39196   0.41002   0.43844

 Mulliken charges:
               1
     1  C    0.067178
     2  O   -0.428786
     3  H    0.038800
     4  H    0.052611
     5  H    0.070306
     6  H    0.199891
 Sum of Mulliken charges =   0.00000

 Dipole moment (field-independent basis, Debye):
    X=              0.7760    Y=             -1.4071    Z=              0.2911  Tot=              1.6330
 Quadrupole moment (field-independent basis, Debye-Ang):
   XX=            -12.9287   YY=            -12.4228   ZZ=            -13.7454
   XY=              2.2273   XZ=             -0.2607   YZ=             -0.1792

 Normal termination of Gaussian 09 at Wed Aug 26 10:00:08 2020.
