 Gaussian 09, Revision D.01,
 Gaussian 09:  ES64L-G09RevD.01 24-Apr-2013

 --------------------
 #p B2PLYPD3/Def2QZVP
 --------------------

 --------
 methanol
 --------
 Symbolic Z-matrix:
 Charge =  0 Multiplicity = 1

                         Standard orientation:
 ---------------------------------------------------------------------
 Center     Atomic      Atomic             Coordinates (Angstroms)
 Number     Number       Type             X           Y           Z
 ---------------------------------------------------------------------
      1          6           0        0.667558   -0.001526   -0.012310
      2          8           0       -0.756240    0.085002   -0.024044
      3          1           0        1.092500   -0.819062   -0.737269
      4          1           0        1.059404   -0.234135    1.078780
      5          1           0        1.018202    0.976599   -0.241776
      6          1           0       -1.125533   -0.594260    0.166481
 ---------------------------------------------------------------------

 SCF Done:  E(RB2PLYPD3) =  -115.508536481     A.U. after   11 cycles
 E2(B2PLYPD3) =    -0.1452271667D+00 E(B2PLYPD3) =    -0.11565376364789D+03

 The electronic state is 1-A.
 Alpha  occ. eigenvalues --  -19.71040 -10.67654  -1.20271  -0.80175  -0.60330
 Alpha  occ. eigenvalues --   -0.51200  -0.50211  -0.41319  -0.35483
 Alpha virt. eigenvalues --    0.05375   0.08681   0.11778   0.12412   0.14671
 Alpha virt. eigenvalues --    0.16851   0.18101   0.28870   0.32674   0.32997
 Alpha virt. eigenvalues --    0.36177   0.38370   0.39831   0.40434   0.42966

 Mulliken charges:
               1
     1  C    0.058034
     2  O   -0.350217
     3  H    0.047219
     4  H    0.039979
     5  H    0.086639
     6  H    0.118345
 Sum of Mulliken charges =   0.00000

 Dipole moment (field-independent basis, Debye):
    X=              0.8678    Y=             -1.1930    Z=              0.3202  Tot=              1.5096
 Quadrupole moment (field-independent basis, Debye-Ang):
   XX=            -13.0322   YY=            -12.4646   ZZ=            -13.7216
   XY=              2.0159   XZ=             -0.6064   YZ=             -0.2111

 Normal termination of Gaussian 09 at Wed Aug 26 16:11:21 2020.
