 Gaussian 09, Revision D.01,
 Gaussian 09:  ES64L-G09RevD.01 24-Apr-2013

 --------------------
 #p B2PLYPD3/Def2QZVP
 --------------------

 --------
 methanol
 --------
 Symbolic Z-matrix:
 Charge =  0 Multiplicity = 1

                         Standard orientation:
 ---------------------------------------------------------------------
 Center     Atomic      Atomic             Coordinates (Angstroms)
 Number     Number       Type             X           Y           Z
 ---------------------------------------------------------------------
      1          6           0       -0.671494    0.037352   -0.021420
      2          8           0        0.756738   -0.195181    0.007859
      3          1           0       -1.163648    0.414228   -0.723716
      4          1           0       -0.954948    0.625889    0.788511
      5          1           0       -1.183168   -0.826146    0.091108
      6          1           0        1.276818    1.123369   -0.090261
 ---------------------------------------------------------------------

 SCF Done:  E(RB2PLYPD3) =  -115.425285596     A.U. after   11 cycles
 E2(B2PLYPD3) =    -0.1568365038D+00 E(B2PLYPD3) =    -0.11558212209952D+03

 The electronic state is 1-A.
 Alpha  occ. eigenvalues --  -19.75974 -10.62269  -1.10827  -0.81115  -0.53830
 Alpha  occ. eigenvalues --   -0.52271  -0.48646  -0.39472  -0.35418
 Alpha virt. eigenvalues --   -0.01867   0.07163   0.12602   0.13016   0.14538
 Alpha virt. eigenvalues --    0.17880   0.18812   0.21820   0.29349   0.32125
 Alpha virt. eigenvalues --    0.34754   0.38563   0.38754   0.41905   0.45301

 Mulliken charges:
               1
     1  C    0.100169
     2  O   -0.478129
     3  H    0.047228
     4  H    0.039371
     5  H    0.051163
     6  H    0.240198
 Sum of Mulliken charges =   0.00000

 Dipole moment (field-independent basis, Debye):
    X=             -1.0660    Y=              1.7741    Z=             -0.1875  Tot=              2.0782
 Quadrupole moment (field-independent basis, Debye-Ang):
   XX=            -12.5423   YY=            -11.6107   ZZ=            -14.1896
   XY=              2.6102   XZ=              0.0423   YZ=             -0.1393

 Normal termination of Gaussian 09 at Wed Aug 26 22:19:09 2020.
