 Gaussian 09, Revision D.01,
 Gaussian 09:  ES64L-G09RevD.01 24-Apr-2013

 --------------------
 #p B2PLYPD3/Def2QZVP
 --------------------

 --------
 methanol
 --------
 Symbolic Z-matrix:
 Charge =  0 Multiplicity = 1

                         Standard orientation:
 ---------------------------------------------------------------------
 Center     Atomic      Atomic             Coordinates (Angstroms)
 Number     Number       Type             X           Y           Z
 ---------------------------------------------------------------------
      1          6           0       -0.665875   -0.021408    0.007261
      2          8           0        0.755914    0.099676   -0.020773
      3          1           0       -0.915163   -0.438261    1.025175
      4          1           0       -1.088917   -0.660984   -0.869777
      5          1           0       -1.159669    1.007103   -0.080198
      6          1           0        1.111684   -0.576814    0.047416
 ---------------------------------------------------------------------

 SCF Done:  E(RB2PLYPD3) =  -115.491087643     A.U. after   10 cycles
 E2(B2PLYPD3) =    -0.1448296413D+00 E(B2PLYPD3) =    -0.11563591728397D+03

 The electronic state is 1-A.
 Alpha  occ. eigenvalues --  -19.70571 -10.67931  -1.21337  -0.80037  -0.60611
 Alpha  occ. eigenvalues --   -0.51851  -0.50108  -0.40527  -0.35902
 Alpha virt. eigenvalues --    0.05390   0.08824   0.11829   0.12280   0.14162
 Alpha virt. eigenvalues --    0.17372   0.17937   0.28729   0.32165   0.33188
 Alpha virt. eigenvalues --    0.36379   0.38324   0.39230   0.40208   0.43509

 Mulliken charges:
               1
     1  C    0.057860
     2  O   -0.323032
     3  H    0.053874
     4  H    0.048862
     5  H    0.075131
     6  H    0.087305
 Sum of Mulliken charges =   0.00000

 Dipole moment (field-independent basis, Debye):
    X=             -0.9287    Y=             -1.2744    Z=              0.1694  Tot=              1.5859
 Quadrupole moment (field-independent basis, Debye-Ang):
   XX=            -13.0142   YY=            -12.6602   ZZ=            -13.5558
   XY=             -2.1447   XZ=              0.3381   YZ=             -0.0737

 Normal termination of Gaussian 09 at Wed Aug 26 12:06:55 2020.
