 Gaussian 09, Revision D.01,
 Gaussian 09:  ES64L-G09RevD.01 24-Apr-2013

 --------------------
 #p B2PLYPD3/Def2QZVP
 --------------------

 --------
 methanol
 --------
 Symbolic Z-matrix:
 Charge =  0 Multiplicity = 1

                         Standard orientation:
 ---------------------------------------------------------------------
 Center     Atomic      Atomic             Coordinates (Angstroms)
 Number     Number       Type             X           Y           Z
 ---------------------------------------------------------------------
      1          6           0       -0.696371   -0.028862    0.016266
      2          8           0        0.770571    0.071498   -0.024944
      3          1           0       -0.973246   -0.245018    0.980836
      4          1           0       -1.056452   -0.847483   -0.739477
      5          1           0       -1.008249    1.177084   -0.262983
      6          1           0        1.051610   -0.483392    0.123575
 ---------------------------------------------------------------------

 SCF Done:  E(RB2PLYPD3) =  -115.299579591     A.U. after   11 cycles
 E2(B2PLYPD3) =    -0.1441032704D+00 E(B2PLYPD3) =    -0.11544368286115D+03

 The electronic state is 1-A.
 Alpha  occ. eigenvalues --  -19.68623 -10.68701  -1.25876  -0.81530  -0.61990
 Alpha  occ. eigenvalues --   -0.52335  -0.47666  -0.41289  -0.36858
 Alpha virt. eigenvalues --    0.04988   0.09271   0.10796   0.11918   0.14699
 Alpha virt. eigenvalues --    0.16379   0.17619   0.28585   0.30046   0.32773
 Alpha virt. eigenvalues --    0.33879   0.37336   0.40831   0.41734   0.42887

 Mulliken charges:
               1
     1  C    0.054266
     2  O   -0.221881
     3  H    0.074672
     4  H    0.059544
     5  H    0.071494
     6  H   -0.038096
 Sum of Mulliken charges =   0.00000

 Dipole moment (field-independent basis, Debye):
    X=             -1.1693    Y=             -1.2611    Z=              0.4571  Tot=              1.7795
 Quadrupole moment (field-independent basis, Debye-Ang):
   XX=            -13.4281   YY=            -12.2276   ZZ=            -13.4171
   XY=             -1.5545   XZ=              0.3310   YZ=             -0.1736

 Normal termination of Gaussian 09 at Wed Aug 26 23:13:46 2020.
