 Gaussian 09, Revision D.01,
 Gaussian 09:  ES64L-G09RevD.01 24-Apr-2013

 --------------------
 #p B2PLYPD3/Def2QZVP
 --------------------

 --------
 methanol
 --------
 Symbolic Z-matrix:
 Charge =  0 Multiplicity = 1

                         Standard orientation:
 ---------------------------------------------------------------------
 Center     Atomic      Atomic             Coordinates (Angstroms)
 Number     Number       Type             X           Y           Z
 ---------------------------------------------------------------------
      1          6           0        0.678502    0.018674    0.017614
      2          8           0       -0.726962   -0.173517   -0.008392
      3          1           0        1.075623    0.311212    0.863297
      4          1           0        0.962025    0.694915   -0.774577
      5          1           0        0.953421   -0.796407   -0.210273
      6          1           0       -1.246379    1.066372    0.083003
 ---------------------------------------------------------------------

 SCF Done:  E(RB2PLYPD3) =  -115.432740411     A.U. after   11 cycles
 E2(B2PLYPD3) =    -0.1543825598D+00 E(B2PLYPD3) =    -0.11558712297071D+03

 The electronic state is 1-A.
 Alpha  occ. eigenvalues --  -19.74740 -10.61543  -1.12079  -0.80159  -0.56796
 Alpha  occ. eigenvalues --   -0.52603  -0.48902  -0.39841  -0.34991
 Alpha virt. eigenvalues --   -0.00131   0.07667   0.12700   0.12952   0.14780
 Alpha virt. eigenvalues --    0.16856   0.18528   0.23262   0.29367   0.33205
 Alpha virt. eigenvalues --    0.34615   0.37499   0.41037   0.42935   0.44778

 Mulliken charges:
               1
     1  C    0.058720
     2  O   -0.488946
     3  H    0.051479
     4  H    0.037306
     5  H    0.102078
     6  H    0.239364
 Sum of Mulliken charges =   0.00000

 Dipole moment (field-independent basis, Debye):
    X=              1.0005    Y=              1.6168    Z=              0.1478  Tot=              1.9070
 Quadrupole moment (field-independent basis, Debye-Ang):
   XX=            -12.9638   YY=            -11.5756   ZZ=            -13.7857
   XY=             -2.5340   XZ=             -0.0315   YZ=              0.2130

 Normal termination of Gaussian 09 at Wed Aug 26 19:32:22 2020.
