 Gaussian 09, Revision D.01,
 Gaussian 09:  ES64L-G09RevD.01 24-Apr-2013

 --------------------
 #p B2PLYPD3/Def2QZVP
 --------------------

 --------
 methanol
 --------
 Symbolic Z-matrix:
 Charge =  0 Multiplicity = 1

                         Standard orientation:
 ---------------------------------------------------------------------
 Center     Atomic      Atomic             Coordinates (Angstroms)
 Number     Number       Type             X           Y           Z
 ---------------------------------------------------------------------
      1          6           0        0.662135   -0.020221    0.014868
      2          8           0       -0.742490    0.098286   -0.014544
      3          1           0        1.028126   -0.683214   -0.865062
      4          1           0        0.991239   -0.422632    0.960430
      5          1           0        1.070388    1.039869   -0.129809
      6          1           0       -1.122638   -0.598987    0.061587
 ---------------------------------------------------------------------

 SCF Done:  E(RB2PLYPD3) =  -115.513686326     A.U. after   10 cycles
 E2(B2PLYPD3) =    -0.1447580047D+00 E(B2PLYPD3) =    -0.11565844433049D+03

 The electronic state is 1-A.
 Alpha  occ. eigenvalues --  -19.70753 -10.67083  -1.20564  -0.80091  -0.60897
 Alpha  occ. eigenvalues --   -0.51983  -0.50034  -0.40707  -0.35696
 Alpha virt. eigenvalues --    0.05400   0.08927   0.12036   0.12178   0.14707
 Alpha virt. eigenvalues --    0.17017   0.17854   0.28952   0.32989   0.33470
 Alpha virt. eigenvalues --    0.37202   0.38515   0.39864   0.40907   0.43003

 Mulliken charges:
               1
     1  C    0.061887
     2  O   -0.351187
     3  H    0.042280
     4  H    0.056887
     5  H    0.072951
     6  H    0.117182
 Sum of Mulliken charges =   0.00000

 Dipole moment (field-independent basis, Debye):
    X=              0.8221    Y=             -1.3247    Z=              0.2206  Tot=              1.5746
 Quadrupole moment (field-independent basis, Debye-Ang):
   XX=            -13.0543   YY=            -12.4780   ZZ=            -13.6010
   XY=              2.0584   XZ=             -0.1621   YZ=             -0.1591

 Normal termination of Gaussian 09 at Thu Aug 27 00:14:28 2020.
