 Gaussian 09, Revision D.01,
 Gaussian 09:  ES64L-G09RevD.01 24-Apr-2013

 --------------------
 #p B2PLYPD3/Def2QZVP
 --------------------

 --------
 methanol
 --------
 Symbolic Z-matrix:
 Charge =  0 Multiplicity = 1

                         Standard orientation:
 ---------------------------------------------------------------------
 Center     Atomic      Atomic             Coordinates (Angstroms)
 Number     Number       Type             X           Y           Z
 ---------------------------------------------------------------------
      1          6           0        0.663467   -0.019998   -0.009057
      2          8           0       -0.750006    0.114671    0.004442
      3          1           0        1.060777   -0.515507   -0.881550
      4          1           0        1.013035   -0.585634    0.899207
      5          1           0        1.089115    1.010016    0.039513
      6          1           0       -1.143679   -0.706251   -0.038359
 ---------------------------------------------------------------------

 SCF Done:  E(RB2PLYPD3) =  -115.549829497     A.U. after   10 cycles
 E2(B2PLYPD3) =    -0.1465759481D+00 E(B2PLYPD3) =    -0.11569640544524D+03

 The electronic state is 1-A.
 Alpha  occ. eigenvalues --  -19.72184 -10.66243  -1.17209  -0.78881  -0.59549
 Alpha  occ. eigenvalues --   -0.51497  -0.49785  -0.41054  -0.35463
 Alpha virt. eigenvalues --    0.05164   0.08352   0.12283   0.12346   0.14884
 Alpha virt. eigenvalues --    0.17233   0.18066   0.29116   0.33032   0.33729
 Alpha virt. eigenvalues --    0.36373   0.38479   0.39487   0.40751   0.43272

 Mulliken charges:
               1
     1  C    0.067018
     2  O   -0.438201
     3  H    0.051991
     4  H    0.044393
     5  H    0.070402
     6  H    0.204396
 Sum of Mulliken charges =   0.00000

 Dipole moment (field-independent basis, Debye):
    X=              0.8506    Y=             -1.4628    Z=             -0.1180  Tot=              1.6962
 Quadrupole moment (field-independent basis, Debye-Ang):
   XX=            -12.9591   YY=            -12.3217   ZZ=            -13.8066
   XY=              2.1973   XZ=              0.0113   YZ=              0.1021

 Normal termination of Gaussian 09 at Wed Aug 26 14:45:51 2020.
