 Gaussian 09, Revision D.01,
 Gaussian 09:  ES64L-G09RevD.01 24-Apr-2013

 --------------------
 #p B2PLYPD3/Def2QZVP
 --------------------

 --------
 methanol
 --------
 Symbolic Z-matrix:
 Charge =  0 Multiplicity = 1

                         Standard orientation:
 ---------------------------------------------------------------------
 Center     Atomic      Atomic             Coordinates (Angstroms)
 Number     Number       Type             X           Y           Z
 ---------------------------------------------------------------------
      1          6           0        0.652273   -0.012112    0.000720
      2          8           0       -0.747693    0.099180   -0.007605
      3          1           0        1.061648   -0.663789   -0.842278
      4          1           0        1.018513   -0.457906    0.958752
      5          1           0        1.073257    1.040856   -0.090646
      6          1           0       -1.085507   -0.639921    0.030693
 ---------------------------------------------------------------------

 SCF Done:  E(RB2PLYPD3) =  -115.523034948     A.U. after   10 cycles
 E2(B2PLYPD3) =    -0.1451058005D+00 E(B2PLYPD3) =    -0.11566814074804D+03

 The electronic state is 1-A.
 Alpha  occ. eigenvalues --  -19.71364 -10.67123  -1.20647  -0.79532  -0.61028
 Alpha  occ. eigenvalues --   -0.51424  -0.50244  -0.41315  -0.35598
 Alpha virt. eigenvalues --    0.05338   0.08803   0.12034   0.12247   0.14932
 Alpha virt. eigenvalues --    0.17160   0.17865   0.28955   0.32995   0.33808
 Alpha virt. eigenvalues --    0.37365   0.38660   0.39513   0.40183   0.42757

 Mulliken charges:
               1
     1  C    0.060513
     2  O   -0.357337
     3  H    0.042361
     4  H    0.047349
     5  H    0.072302
     6  H    0.134811
 Sum of Mulliken charges =   0.00000

 Dipole moment (field-independent basis, Debye):
    X=              0.8476    Y=             -1.3629    Z=              0.0921  Tot=              1.6076
 Quadrupole moment (field-independent basis, Debye-Ang):
   XX=            -13.1726   YY=            -12.3411   ZZ=            -13.7871
   XY=              2.0254   XZ=             -0.1202   YZ=             -0.0560

 Normal termination of Gaussian 09 at Wed Aug 26 23:59:04 2020.
