 Gaussian 09, Revision D.01,
 Gaussian 09:  ES64L-G09RevD.01 24-Apr-2013

 --------------------
 #p B2PLYPD3/Def2QZVP
 --------------------

 --------
 methanol
 --------
 Symbolic Z-matrix:
 Charge =  0 Multiplicity = 1

                         Standard orientation:
 ---------------------------------------------------------------------
 Center     Atomic      Atomic             Coordinates (Angstroms)
 Number     Number       Type             X           Y           Z
 ---------------------------------------------------------------------
      1          6           0       -0.651992    0.020472    0.001653
      2          8           0        0.740452   -0.135961   -0.007605
      3          1           0       -1.000136    0.606195   -0.854643
      4          1           0       -1.062193    0.464011    0.880144
      5          1           0       -1.101306   -0.934627   -0.045427
      6          1           0        1.151975    0.829276    0.070846
 ---------------------------------------------------------------------

 SCF Done:  E(RB2PLYPD3) =  -115.542767316     A.U. after   11 cycles
 E2(B2PLYPD3) =    -0.1485793062D+00 E(B2PLYPD3) =    -0.11569134662213D+03

 The electronic state is 1-A.
 Alpha  occ. eigenvalues --  -19.73460 -10.64679  -1.15252  -0.78452  -0.57885
 Alpha  occ. eigenvalues --   -0.51938  -0.50163  -0.40798  -0.35132
 Alpha virt. eigenvalues --    0.04224   0.07941   0.12526   0.12684   0.14961
 Alpha virt. eigenvalues --    0.17509   0.18311   0.29062   0.31478   0.33285
 Alpha virt. eigenvalues --    0.34771   0.39132   0.39957   0.41436   0.43951

 Mulliken charges:
               1
     1  C    0.071841
     2  O   -0.470567
     3  H    0.041370
     4  H    0.043575
     5  H    0.066455
     6  H    0.247326
 Sum of Mulliken charges =   0.00000

 Dipole moment (field-independent basis, Debye):
    X=             -0.8186    Y=              1.5607    Z=              0.1579  Tot=              1.7694
 Quadrupole moment (field-independent basis, Debye-Ang):
   XX=            -12.9593   YY=            -12.1353   ZZ=            -13.8822
   XY=              2.3819   XZ=              0.0857   YZ=              0.0942

 Normal termination of Gaussian 09 at Thu Aug 27 00:00:09 2020.
