 Gaussian 09, Revision D.01,
 Gaussian 09:  ES64L-G09RevD.01 24-Apr-2013

 --------------------
 #p B2PLYPD3/Def2QZVP
 --------------------

 --------
 methanol
 --------
 Symbolic Z-matrix:
 Charge =  0 Multiplicity = 1

                         Standard orientation:
 ---------------------------------------------------------------------
 Center     Atomic      Atomic             Coordinates (Angstroms)
 Number     Number       Type             X           Y           Z
 ---------------------------------------------------------------------
      1          6           0        0.658160   -0.024549    0.002975
      2          8           0       -0.746919    0.097769   -0.005761
      3          1           0        1.006196   -0.653458   -0.869009
      4          1           0        1.053763   -0.421049    0.958951
      5          1           0        1.044729    1.062828   -0.117201
      6          1           0       -1.078299   -0.623177    0.055500
 ---------------------------------------------------------------------

 SCF Done:  E(RB2PLYPD3) =  -115.513031695     A.U. after   10 cycles
 E2(B2PLYPD3) =    -0.1449255110D+00 E(B2PLYPD3) =    -0.11565795720646D+03

 The electronic state is 1-A.
 Alpha  occ. eigenvalues --  -19.71001 -10.67159  -1.21012  -0.79689  -0.60971
 Alpha  occ. eigenvalues --   -0.52085  -0.49643  -0.41037  -0.35932
 Alpha virt. eigenvalues --    0.05362   0.08927   0.11941   0.12142   0.14767
 Alpha virt. eigenvalues --    0.17009   0.17999   0.28859   0.33088   0.33509
 Alpha virt. eigenvalues --    0.36995   0.38575   0.40301   0.40427   0.42688

 Mulliken charges:
               1
     1  C    0.056028
     2  O   -0.341672
     3  H    0.049389
     4  H    0.054270
     5  H    0.067513
     6  H    0.114473
 Sum of Mulliken charges =   0.00000

 Dipole moment (field-independent basis, Debye):
    X=              0.8748    Y=             -1.3696    Z=              0.1352  Tot=              1.6308
 Quadrupole moment (field-independent basis, Debye-Ang):
   XX=            -13.2532   YY=            -12.4051   ZZ=            -13.6165
   XY=              1.9499   XZ=             -0.0952   YZ=             -0.0770

 Normal termination of Gaussian 09 at Wed Aug 26 12:51:32 2020.
