 Gaussian 09, Revision D.01,
 Gaussian 09:  ES64L-G09RevD.01 24-Apr-2013

 --------------------
 #p B2PLYPD3/Def2QZVP
 --------------------

 --------
 methanol
 --------
 Symbolic Z-matrix:
 Charge =  0 Multiplicity = 1

                         Standard orientation:
 ---------------------------------------------------------------------
 Center     Atomic      Atomic             Coordinates (Angstroms)
 Number     Number       Type             X           Y           Z
 ---------------------------------------------------------------------
      1          6           0       -0.658651   -0.020349    0.006151
      2          8           0        0.757097    0.097409   -0.020916
      3          1           0       -0.987860   -0.407198    0.996118
      4          1           0       -1.067709   -0.663094   -0.870252
      5          1           0       -1.108040    1.023652   -0.092774
      6          1           0        1.058744   -0.610536    0.097329
 ---------------------------------------------------------------------

 SCF Done:  E(RB2PLYPD3) =  -115.501727337     A.U. after   10 cycles
 E2(B2PLYPD3) =    -0.1449097849D+00 E(B2PLYPD3) =    -0.11564663712189D+03

 The electronic state is 1-A.
 Alpha  occ. eigenvalues --  -19.70974 -10.67499  -1.21531  -0.79698  -0.60808
 Alpha  occ. eigenvalues --   -0.51801  -0.50078  -0.41208  -0.36050
 Alpha virt. eigenvalues --    0.05383   0.08881   0.11898   0.12194   0.14461
 Alpha virt. eigenvalues --    0.17324   0.18044   0.28678   0.32842   0.33101
 Alpha virt. eigenvalues --    0.36715   0.38542   0.39596   0.40222   0.43440

 Mulliken charges:
               1
     1  C    0.057112
     2  O   -0.327466
     3  H    0.053013
     4  H    0.048221
     5  H    0.070516
     6  H    0.098604
 Sum of Mulliken charges =   0.00000

 Dipole moment (field-independent basis, Debye):
    X=             -0.9684    Y=             -1.3016    Z=              0.2732  Tot=              1.6452
 Quadrupole moment (field-independent basis, Debye-Ang):
   XX=            -13.2565   YY=            -12.5218   ZZ=            -13.5571
   XY=             -2.0123   XZ=              0.3227   YZ=             -0.1421

 Normal termination of Gaussian 09 at Wed Aug 26 15:34:39 2020.
