 Gaussian 09, Revision D.01,
 Gaussian 09:  ES64L-G09RevD.01 24-Apr-2013

 --------------------
 #p B2PLYPD3/Def2QZVP
 --------------------

 --------
 methanol
 --------
 Symbolic Z-matrix:
 Charge =  0 Multiplicity = 1

                         Standard orientation:
 ---------------------------------------------------------------------
 Center     Atomic      Atomic             Coordinates (Angstroms)
 Number     Number       Type             X           Y           Z
 ---------------------------------------------------------------------
      1          6           0       -0.670349   -0.019466    0.011337
      2          8           0        0.736332   -0.064139   -0.048153
      3          1           0       -0.996313    1.086258   -0.501659
      4          1           0       -1.002095   -0.081898    1.069154
      5          1           0       -0.974215   -0.824300   -0.566421
      6          1           0        1.104060    0.449852    0.316122
 ---------------------------------------------------------------------

 SCF Done:  E(RB2PLYPD3) =  -115.448600838     A.U. after   11 cycles
 E2(B2PLYPD3) =    -0.1439264953D+00 E(B2PLYPD3) =    -0.11559252733300D+03

 The electronic state is 1-A.
 Alpha  occ. eigenvalues --  -19.69687 -10.67526  -1.22828  -0.81976  -0.60945
 Alpha  occ. eigenvalues --   -0.52401  -0.50872  -0.41103  -0.35104
 Alpha virt. eigenvalues --    0.05322   0.09262   0.11426   0.12446   0.14430
 Alpha virt. eigenvalues --    0.16706   0.17610   0.28807   0.31622   0.33217
 Alpha virt. eigenvalues --    0.35825   0.39543   0.40560   0.41167   0.43688

 Mulliken charges:
               1
     1  C    0.056364
     2  O   -0.274951
     3  H    0.026224
     4  H    0.054416
     5  H    0.094560
     6  H    0.043388
 Sum of Mulliken charges =   0.00000

 Dipole moment (field-independent basis, Debye):
    X=             -0.8084    Y=              0.8192    Z=              0.7899  Tot=              1.3959
 Quadrupole moment (field-independent basis, Debye-Ang):
   XX=            -13.2492   YY=            -12.8293   ZZ=            -13.1238
   XY=              1.8356   XZ=              1.0074   YZ=              0.5580

 Normal termination of Gaussian 09 at Wed Aug 26 23:03:55 2020.
