 Gaussian 09, Revision D.01,
 Gaussian 09:  ES64L-G09RevD.01 24-Apr-2013

 --------------------
 #p B2PLYPD3/Def2QZVP
 --------------------

 --------
 methanol
 --------
 Symbolic Z-matrix:
 Charge =  0 Multiplicity = 1

                         Standard orientation:
 ---------------------------------------------------------------------
 Center     Atomic      Atomic             Coordinates (Angstroms)
 Number     Number       Type             X           Y           Z
 ---------------------------------------------------------------------
      1          6           0        0.672037   -0.014800    0.015495
      2          8           0       -0.750541    0.098375   -0.016746
      3          1           0        1.025659   -0.737477   -0.829182
      4          1           0        0.977468   -0.368611    0.988238
      5          1           0        1.076187    1.016161   -0.187438
      6          1           0       -1.107202   -0.608272    0.069383
 ---------------------------------------------------------------------

 SCF Done:  E(RB2PLYPD3) =  -115.513098463     A.U. after   10 cycles
 E2(B2PLYPD3) =    -0.1449007523D+00 E(B2PLYPD3) =    -0.11565799921539D+03

 The electronic state is 1-A.
 Alpha  occ. eigenvalues --  -19.70644 -10.67095  -1.20171  -0.80011  -0.60433
 Alpha  occ. eigenvalues --   -0.51902  -0.50014  -0.41051  -0.35735
 Alpha virt. eigenvalues --    0.05394   0.08921   0.11954   0.12212   0.14570
 Alpha virt. eigenvalues --    0.17062   0.17751   0.28976   0.32654   0.32955
 Alpha virt. eigenvalues --    0.37178   0.38777   0.39685   0.40901   0.43166

 Mulliken charges:
               1
     1  C    0.065857
     2  O   -0.358228
     3  H    0.041806
     4  H    0.058733
     5  H    0.076903
     6  H    0.114929
 Sum of Mulliken charges =   0.00000

 Dipole moment (field-independent basis, Debye):
    X=              0.9316    Y=             -1.3134    Z=              0.2347  Tot=              1.6273
 Quadrupole moment (field-independent basis, Debye-Ang):
   XX=            -13.1461   YY=            -12.4211   ZZ=            -13.5629
   XY=              2.0859   XZ=             -0.2157   YZ=             -0.1787

 Normal termination of Gaussian 09 at Wed Aug 26 10:28:39 2020.
