 Gaussian 09, Revision D.01,
 Gaussian 09:  ES64L-G09RevD.01 24-Apr-2013

 --------------------
 #p B2PLYPD3/Def2QZVP
 --------------------

 --------
 methanol
 --------
 Symbolic Z-matrix:
 Charge =  0 Multiplicity = 1

                         Standard orientation:
 ---------------------------------------------------------------------
 Center     Atomic      Atomic             Coordinates (Angstroms)
 Number     Number       Type             X           Y           Z
 ---------------------------------------------------------------------
      1          6           0        0.681309    0.016457   -0.025476
      2          8           0       -0.732930   -0.157311   -0.008757
      3          1           0        1.034671    0.309078    1.007488
      4          1           0        0.845448    0.729409   -0.767459
      5          1           0        1.114473   -0.762089   -0.154981
      6          1           0       -1.219000    0.883349    0.137865
 ---------------------------------------------------------------------

 SCF Done:  E(RB2PLYPD3) =  -115.486420071     A.U. after   11 cycles
 E2(B2PLYPD3) =    -0.1504320317D+00 E(B2PLYPD3) =    -0.11563685210284D+03

 The electronic state is 1-A.
 Alpha  occ. eigenvalues --  -19.73372 -10.63168  -1.12808  -0.79888  -0.56174
 Alpha  occ. eigenvalues --   -0.52752  -0.50811  -0.39973  -0.34472
 Alpha virt. eigenvalues --    0.02940   0.07840   0.12175   0.13203   0.14291
 Alpha virt. eigenvalues --    0.17674   0.18261   0.27658   0.29501   0.32508
 Alpha virt. eigenvalues --    0.33134   0.38510   0.40820   0.42512   0.44731

 Mulliken charges:
               1
     1  C    0.065131
     2  O   -0.499188
     3  H    0.037593
     4  H    0.049700
     5  H    0.089313
     6  H    0.257451
 Sum of Mulliken charges =   0.00000

 Dipole moment (field-independent basis, Debye):
    X=              0.8688    Y=              1.5390    Z=              0.1159  Tot=              1.7711
 Quadrupole moment (field-independent basis, Debye-Ang):
   XX=            -12.8258   YY=            -12.0444   ZZ=            -13.7090
   XY=             -2.8043   XZ=             -0.3527   YZ=              0.0624

 Normal termination of Gaussian 09 at Wed Aug 26 21:56:33 2020.
