 Gaussian 09, Revision D.01,
 Gaussian 09:  ES64L-G09RevD.01 24-Apr-2013

 --------------------
 #p B2PLYPD3/Def2QZVP
 --------------------

 --------
 methanol
 --------
 Symbolic Z-matrix:
 Charge =  0 Multiplicity = 1

                         Standard orientation:
 ---------------------------------------------------------------------
 Center     Atomic      Atomic             Coordinates (Angstroms)
 Number     Number       Type             X           Y           Z
 ---------------------------------------------------------------------
      1          6           0       -0.667830   -0.013925   -0.001262
      2          8           0        0.749068    0.116604   -0.007441
      3          1           0       -1.018304   -0.459550    0.944047
      4          1           0       -0.973213   -0.623827   -0.881692
      5          1           0       -1.087369    0.956380   -0.063098
      6          1           0        1.093324   -0.722288    0.067845
 ---------------------------------------------------------------------

 SCF Done:  E(RB2PLYPD3) =  -115.549908491     A.U. after   10 cycles
 E2(B2PLYPD3) =    -0.1464064349D+00 E(B2PLYPD3) =    -0.11569631492574D+03

 The electronic state is 1-A.
 Alpha  occ. eigenvalues --  -19.71956 -10.65741  -1.17237  -0.79106  -0.58955
 Alpha  occ. eigenvalues --   -0.52021  -0.50427  -0.41348  -0.35398
 Alpha virt. eigenvalues --    0.05160   0.08538   0.12119   0.12586   0.14576
 Alpha virt. eigenvalues --    0.17391   0.17965   0.29067   0.32884   0.33335
 Alpha virt. eigenvalues --    0.36179   0.39248   0.40292   0.40850   0.44325

 Mulliken charges:
               1
     1  C    0.070465
     2  O   -0.440247
     3  H    0.046386
     4  H    0.046538
     5  H    0.074600
     6  H    0.202258
 Sum of Mulliken charges =   0.00000

 Dipole moment (field-independent basis, Debye):
    X=             -0.9587    Y=             -1.4239    Z=              0.1402  Tot=              1.7223
 Quadrupole moment (field-independent basis, Debye-Ang):
   XX=            -13.2270   YY=            -12.2511   ZZ=            -13.6436
   XY=             -2.2546   XZ=              0.1310   YZ=             -0.0822

 Normal termination of Gaussian 09 at Thu Aug 27 00:01:14 2020.
