 Gaussian 09, Revision D.01,
 Gaussian 09:  ES64L-G09RevD.01 24-Apr-2013

 --------------------
 #p B2PLYPD3/Def2QZVP
 --------------------

 --------
 methanol
 --------
 Symbolic Z-matrix:
 Charge =  0 Multiplicity = 1

                         Standard orientation:
 ---------------------------------------------------------------------
 Center     Atomic      Atomic             Coordinates (Angstroms)
 Number     Number       Type             X           Y           Z
 ---------------------------------------------------------------------
      1          6           0       -0.656045   -0.016842    0.028037
      2          8           0        0.750160    0.102123   -0.025590
      3          1           0       -1.021663   -0.355952    0.964457
      4          1           0       -1.125240   -0.692419   -0.859594
      5          1           0       -1.057148    1.002018   -0.163876
      6          1           0        1.139044   -0.669582    0.095510
 ---------------------------------------------------------------------

 SCF Done:  E(RB2PLYPD3) =  -115.537436932     A.U. after   11 cycles
 E2(B2PLYPD3) =    -0.1462184631D+00 E(B2PLYPD3) =    -0.11568365539546D+03

 The electronic state is 1-A.
 Alpha  occ. eigenvalues --  -19.72093 -10.66895  -1.18578  -0.79202  -0.60214
 Alpha  occ. eigenvalues --   -0.51408  -0.49915  -0.40806  -0.35579
 Alpha virt. eigenvalues --    0.05277   0.08356   0.12038   0.12334   0.14835
 Alpha virt. eigenvalues --    0.17081   0.18389   0.28830   0.32888   0.33668
 Alpha virt. eigenvalues --    0.36160   0.38502   0.39150   0.40888   0.43328

 Mulliken charges:
               1
     1  C    0.058007
     2  O   -0.407278
     3  H    0.060664
     4  H    0.033571
     5  H    0.071096
     6  H    0.183940
 Sum of Mulliken charges =   0.00000

 Dipole moment (field-independent basis, Debye):
    X=             -0.7779    Y=             -1.3243    Z=              0.3598  Tot=              1.5774
 Quadrupole moment (field-independent basis, Debye-Ang):
   XX=            -12.9653   YY=            -12.5669   ZZ=            -13.7047
   XY=             -2.1641   XZ=              0.2332   YZ=             -0.2787

 Normal termination of Gaussian 09 at Wed Aug 26 14:10:55 2020.
