 Gaussian 09, Revision D.01,
 Gaussian 09:  ES64L-G09RevD.01 24-Apr-2013

 --------------------
 #p B2PLYPD3/Def2QZVP
 --------------------

 --------
 methanol
 --------
 Symbolic Z-matrix:
 Charge =  0 Multiplicity = 1

                         Standard orientation:
 ---------------------------------------------------------------------
 Center     Atomic      Atomic             Coordinates (Angstroms)
 Number     Number       Type             X           Y           Z
 ---------------------------------------------------------------------
      1          6           0        0.662247   -0.008918    0.002174
      2          8           0       -0.748281    0.106040   -0.009653
      3          1           0        1.075619   -0.648720   -0.860512
      4          1           0        1.045418   -0.445851    0.964284
      5          1           0        1.052766    0.985688   -0.088034
      6          1           0       -1.161035   -0.685935    0.048438
 ---------------------------------------------------------------------

 SCF Done:  E(RB2PLYPD3) =  -115.546653469     A.U. after   10 cycles
 E2(B2PLYPD3) =    -0.1463235462D+00 E(B2PLYPD3) =    -0.11569297701527D+03

 The electronic state is 1-A.
 Alpha  occ. eigenvalues --  -19.72044 -10.66565  -1.17651  -0.79134  -0.59581
 Alpha  occ. eigenvalues --   -0.50910  -0.50572  -0.40965  -0.35316
 Alpha virt. eigenvalues --    0.05236   0.08353   0.12184   0.12478   0.14873
 Alpha virt. eigenvalues --    0.17077   0.18131   0.29042   0.33128   0.33672
 Alpha virt. eigenvalues --    0.36442   0.38780   0.39715   0.40010   0.43185

 Mulliken charges:
               1
     1  C    0.063928
     2  O   -0.428858
     3  H    0.041601
     4  H    0.046827
     5  H    0.078390
     6  H    0.198113
 Sum of Mulliken charges =   0.00000

 Dipole moment (field-independent basis, Debye):
    X=              0.7882    Y=             -1.3653    Z=              0.1257  Tot=              1.5815
 Quadrupole moment (field-independent basis, Debye-Ang):
   XX=            -12.8803   YY=            -12.3945   ZZ=            -13.8201
   XY=              2.2350   XZ=             -0.1574   YZ=             -0.0899

 Normal termination of Gaussian 09 at Wed Aug 26 09:01:24 2020.
