 Gaussian 09, Revision D.01,
 Gaussian 09:  ES64L-G09RevD.01 24-Apr-2013

 --------------------
 #p B2PLYPD3/Def2QZVP
 --------------------

 --------
 methanol
 --------
 Symbolic Z-matrix:
 Charge =  0 Multiplicity = 1

                         Standard orientation:
 ---------------------------------------------------------------------
 Center     Atomic      Atomic             Coordinates (Angstroms)
 Number     Number       Type             X           Y           Z
 ---------------------------------------------------------------------
      1          6           0        0.651333    0.021419   -0.013515
      2          8           0       -0.732760   -0.159051    0.011167
      3          1           0        1.090259    0.557233    0.812491
      4          1           0        0.954120    0.565364   -0.791188
      5          1           0        1.136849   -0.903934   -0.020691
      6          1           0       -1.227147    0.925228   -0.008856
 ---------------------------------------------------------------------

 SCF Done:  E(RB2PLYPD3) =  -115.506980183     A.U. after   11 cycles
 E2(B2PLYPD3) =    -0.1508901766D+00 E(B2PLYPD3) =    -0.11565787035933D+03

 The electronic state is 1-A.
 Alpha  occ. eigenvalues --  -19.74273 -10.63380  -1.13706  -0.78815  -0.56858
 Alpha  occ. eigenvalues --   -0.51782  -0.50012  -0.40475  -0.34713
 Alpha virt. eigenvalues --    0.02364   0.07598   0.12642   0.13021   0.15119
 Alpha virt. eigenvalues --    0.17736   0.18168   0.26455   0.29742   0.33207
 Alpha virt. eigenvalues --    0.35082   0.39380   0.39578   0.41803   0.44267

 Mulliken charges:
               1
     1  C    0.089250
     2  O   -0.485802
     3  H    0.033208
     4  H    0.040844
     5  H    0.065003
     6  H    0.257498
 Sum of Mulliken charges =   0.00000

 Dipole moment (field-independent basis, Debye):
    X=              0.7778    Y=              1.6974    Z=             -0.1083  Tot=              1.8702
 Quadrupole moment (field-independent basis, Debye-Ang):
   XX=            -12.6699   YY=            -11.8555   ZZ=            -14.1142
   XY=             -2.5302   XZ=              0.0444   YZ=             -0.0970

 Normal termination of Gaussian 09 at Wed Aug 26 14:27:19 2020.
