 Gaussian 09, Revision D.01,
 Gaussian 09:  ES64L-G09RevD.01 24-Apr-2013

 --------------------
 #p B2PLYPD3/Def2QZVP
 --------------------

 --------
 methanol
 --------
 Symbolic Z-matrix:
 Charge =  0 Multiplicity = 1

                         Standard orientation:
 ---------------------------------------------------------------------
 Center     Atomic      Atomic             Coordinates (Angstroms)
 Number     Number       Type             X           Y           Z
 ---------------------------------------------------------------------
      1          6           0       -0.667935   -0.021694   -0.003776
      2          8           0        0.753129    0.099911   -0.002768
      3          1           0       -1.038088   -0.507039    0.936796
      4          1           0       -0.973922   -0.595278   -0.909261
      5          1           0       -1.080976    1.048412   -0.032417
      6          1           0        1.075564   -0.615216    0.049678
 ---------------------------------------------------------------------

 SCF Done:  E(RB2PLYPD3) =  -115.508246073     A.U. after   10 cycles
 E2(B2PLYPD3) =    -0.1448530909D+00 E(B2PLYPD3) =    -0.11565309916422D+03

 The electronic state is 1-A.
 Alpha  occ. eigenvalues --  -19.70699 -10.67189  -1.20816  -0.79800  -0.60629
 Alpha  occ. eigenvalues --   -0.52094  -0.49663  -0.41283  -0.35923
 Alpha virt. eigenvalues --    0.05384   0.08961   0.12034   0.12048   0.14581
 Alpha virt. eigenvalues --    0.17128   0.17803   0.28891   0.32532   0.33272
 Alpha virt. eigenvalues --    0.37245   0.38698   0.39891   0.40379   0.43074

 Mulliken charges:
               1
     1  C    0.062353
     2  O   -0.343133
     3  H    0.050699
     4  H    0.053884
     5  H    0.072129
     6  H    0.104068
 Sum of Mulliken charges =   0.00000

 Dipole moment (field-independent basis, Debye):
    X=             -0.9698    Y=             -1.3587    Z=              0.0965  Tot=              1.6720
 Quadrupole moment (field-independent basis, Debye-Ang):
   XX=            -13.2633   YY=            -12.3779   ZZ=            -13.5753
   XY=             -2.0162   XZ=              0.0742   YZ=             -0.0389

 Normal termination of Gaussian 09 at Wed Aug 26 09:57:48 2020.
