 Gaussian 09, Revision D.01,
 Gaussian 09:  ES64L-G09RevD.01 24-Apr-2013

 --------------------
 #p B2PLYPD3/Def2QZVP
 --------------------

 --------
 methanol
 --------
 Symbolic Z-matrix:
 Charge =  0 Multiplicity = 1

                         Standard orientation:
 ---------------------------------------------------------------------
 Center     Atomic      Atomic             Coordinates (Angstroms)
 Number     Number       Type             X           Y           Z
 ---------------------------------------------------------------------
      1          6           0        0.687778    0.019654    0.000219
      2          8           0       -0.746138   -0.163431   -0.005313
      3          1           0        1.044861    0.398199    0.874864
      4          1           0        0.962810    0.662736   -0.776150
      5          1           0        1.065250   -0.850516   -0.117708
      6          1           0       -1.230488    0.979105    0.060185
 ---------------------------------------------------------------------

 SCF Done:  E(RB2PLYPD3) =  -115.486208735     A.U. after   11 cycles
 E2(B2PLYPD3) =    -0.1523575501D+00 E(B2PLYPD3) =    -0.11563856628497D+03

 The electronic state is 1-A.
 Alpha  occ. eigenvalues --  -19.74164 -10.62630  -1.11481  -0.79755  -0.55795
 Alpha  occ. eigenvalues --   -0.52292  -0.49239  -0.40599  -0.34984
 Alpha virt. eigenvalues --    0.01793   0.07657   0.12665   0.12862   0.14679
 Alpha virt. eigenvalues --    0.17306   0.18193   0.25517   0.29490   0.32984
 Alpha virt. eigenvalues --    0.33622   0.38810   0.41044   0.42446   0.43912

 Mulliken charges:
               1
     1  C    0.094321
     2  O   -0.508141
     3  H    0.047775
     4  H    0.042848
     5  H    0.073087
     6  H    0.250109
 Sum of Mulliken charges =   0.00000

 Dipole moment (field-independent basis, Debye):
    X=              1.0294    Y=              1.6589    Z=              0.1030  Tot=              1.9550
 Quadrupole moment (field-independent basis, Debye-Ang):
   XX=            -12.8365   YY=            -11.6973   ZZ=            -13.8726
   XY=             -2.5688   XZ=             -0.0640   YZ=              0.0847

 Normal termination of Gaussian 09 at Wed Aug 26 14:52:47 2020.
