 Gaussian 09, Revision D.01,
 Gaussian 09:  ES64L-G09RevD.01 24-Apr-2013

 --------------------
 #p B2PLYPD3/Def2QZVP
 --------------------

 --------
 methanol
 --------
 Symbolic Z-matrix:
 Charge =  0 Multiplicity = 1

                         Standard orientation:
 ---------------------------------------------------------------------
 Center     Atomic      Atomic             Coordinates (Angstroms)
 Number     Number       Type             X           Y           Z
 ---------------------------------------------------------------------
      1          6           0        0.667177   -0.026187    0.011707
      2          8           0       -0.750033    0.103231   -0.009329
      3          1           0        0.978873   -0.668445   -0.875801
      4          1           0        1.017305   -0.455714    0.927778
      5          1           0        1.107751    1.059487   -0.109301
      6          1           0       -1.106725   -0.604050    0.061712
 ---------------------------------------------------------------------

 SCF Done:  E(RB2PLYPD3) =  -115.510644697     A.U. after   10 cycles
 E2(B2PLYPD3) =    -0.1449347334D+00 E(B2PLYPD3) =    -0.11565557943021D+03

 The electronic state is 1-A.
 Alpha  occ. eigenvalues --  -19.70754 -10.67208  -1.20424  -0.79854  -0.60864
 Alpha  occ. eigenvalues --   -0.52117  -0.49452  -0.40917  -0.35858
 Alpha virt. eigenvalues --    0.05348   0.08911   0.11897   0.12152   0.14668
 Alpha virt. eigenvalues --    0.17149   0.17747   0.28974   0.32643   0.33309
 Alpha virt. eigenvalues --    0.36511   0.38405   0.39907   0.41136   0.42905

 Mulliken charges:
               1
     1  C    0.064308
     2  O   -0.352935
     3  H    0.047539
     4  H    0.058518
     5  H    0.068866
     6  H    0.113705
 Sum of Mulliken charges =   0.00000

 Dipole moment (field-independent basis, Debye):
    X=              0.9086    Y=             -1.3845    Z=              0.1971  Tot=              1.6677
 Quadrupole moment (field-independent basis, Debye-Ang):
   XX=            -13.1214   YY=            -12.4236   ZZ=            -13.6179
   XY=              2.0368   XZ=             -0.0862   YZ=             -0.1369

 Normal termination of Gaussian 09 at Wed Aug 26 09:55:54 2020.
