 Gaussian 09, Revision D.01,
 Gaussian 09:  ES64L-G09RevD.01 24-Apr-2013

 --------------------
 #p B2PLYPD3/Def2QZVP
 --------------------

 --------
 methanol
 --------
 Symbolic Z-matrix:
 Charge =  0 Multiplicity = 1

                         Standard orientation:
 ---------------------------------------------------------------------
 Center     Atomic      Atomic             Coordinates (Angstroms)
 Number     Number       Type             X           Y           Z
 ---------------------------------------------------------------------
      1          6           0       -0.646097    0.012760    0.011659
      2          8           0        0.745919   -0.082536   -0.032763
      3          1           0       -0.987138    0.996259   -0.608566
      4          1           0       -1.067615    0.031528    1.081533
      5          1           0       -1.138979   -0.913883   -0.492591
      6          1           0        1.102960    0.469821    0.211773
 ---------------------------------------------------------------------

 SCF Done:  E(RB2PLYPD3) =  -115.419752243     A.U. after   11 cycles
 E2(B2PLYPD3) =    -0.1440074009D+00 E(B2PLYPD3) =    -0.11556375964384D+03

 The electronic state is 1-A.
 Alpha  occ. eigenvalues --  -19.70169 -10.68810  -1.24829  -0.81363  -0.61883
 Alpha  occ. eigenvalues --   -0.51578  -0.50787  -0.40137  -0.35884
 Alpha virt. eigenvalues --    0.05306   0.09102   0.11658   0.12153   0.14318
 Alpha virt. eigenvalues --    0.17206   0.17933   0.28450   0.32428   0.33755
 Alpha virt. eigenvalues --    0.35803   0.37692   0.39024   0.40510   0.42915

 Mulliken charges:
               1
     1  C    0.048237
     2  O   -0.238306
     3  H    0.036610
     4  H    0.052409
     5  H    0.077089
     6  H    0.023961
 Sum of Mulliken charges =   0.00000

 Dipole moment (field-independent basis, Debye):
    X=             -0.7804    Y=              1.0415    Z=              0.5228  Tot=              1.4025
 Quadrupole moment (field-independent basis, Debye-Ang):
   XX=            -12.9900   YY=            -12.8882   ZZ=            -13.4947
   XY=              1.9439   XZ=              0.7153   YZ=              0.2983

 Normal termination of Gaussian 09 at Wed Aug 26 10:55:08 2020.
