 Gaussian 09, Revision D.01,
 Gaussian 09:  ES64L-G09RevD.01 24-Apr-2013

 --------------------
 #p B2PLYPD3/Def2QZVP
 --------------------

 --------
 methanol
 --------
 Symbolic Z-matrix:
 Charge =  0 Multiplicity = 1

                         Standard orientation:
 ---------------------------------------------------------------------
 Center     Atomic      Atomic             Coordinates (Angstroms)
 Number     Number       Type             X           Y           Z
 ---------------------------------------------------------------------
      1          6           0        0.662404   -0.014832   -0.003422
      2          8           0       -0.748514    0.108147   -0.005603
      3          1           0        1.037068   -0.624847   -0.870526
      4          1           0        1.079228   -0.474492    0.935196
      5          1           0        1.063539    1.006189   -0.056355
      6          1           0       -1.166145   -0.683032    0.057034
 ---------------------------------------------------------------------

 SCF Done:  E(RB2PLYPD3) =  -115.547886075     A.U. after   10 cycles
 E2(B2PLYPD3) =    -0.1463694037D+00 E(B2PLYPD3) =    -0.11569425547921D+03

 The electronic state is 1-A.
 Alpha  occ. eigenvalues --  -19.72054 -10.66580  -1.17561  -0.79014  -0.59691
 Alpha  occ. eigenvalues --   -0.51186  -0.50058  -0.40875  -0.35393
 Alpha virt. eigenvalues --    0.05237   0.08337   0.12273   0.12357   0.14919
 Alpha virt. eigenvalues --    0.17073   0.18126   0.29069   0.33163   0.33720
 Alpha virt. eigenvalues --    0.36622   0.38779   0.39483   0.40072   0.42874

 Mulliken charges:
               1
     1  C    0.064157
     2  O   -0.430565
     3  H    0.047004
     4  H    0.045702
     5  H    0.075170
     6  H    0.198532
 Sum of Mulliken charges =   0.00000

 Dipole moment (field-independent basis, Debye):
    X=              0.7885    Y=             -1.3997    Z=              0.1126  Tot=              1.6104
 Quadrupole moment (field-independent basis, Debye-Ang):
   XX=            -12.8481   YY=            -12.3914   ZZ=            -13.8360
   XY=              2.2070   XZ=             -0.1273   YZ=             -0.0528

 Normal termination of Gaussian 09 at Wed Aug 26 23:56:50 2020.
