 Gaussian 09, Revision D.01,
 Gaussian 09:  ES64L-G09RevD.01 24-Apr-2013

 --------------------
 #p B2PLYPD3/Def2QZVP
 --------------------

 --------
 methanol
 --------
 Symbolic Z-matrix:
 Charge =  0 Multiplicity = 1

                         Standard orientation:
 ---------------------------------------------------------------------
 Center     Atomic      Atomic             Coordinates (Angstroms)
 Number     Number       Type             X           Y           Z
 ---------------------------------------------------------------------
      1          6           0        0.664117    0.023579    0.000158
      2          8           0       -0.745852   -0.146699   -0.003729
      3          1           0        1.019280    0.475834    0.887084
      4          1           0        1.024751    0.575097   -0.836708
      5          1           0        1.117540   -0.899350   -0.041357
      6          1           0       -1.179458    0.880539    0.019864
 ---------------------------------------------------------------------

 SCF Done:  E(RB2PLYPD3) =  -115.529685029     A.U. after   11 cycles
 E2(B2PLYPD3) =    -0.1497928453D+00 E(B2PLYPD3) =    -0.11567947787431D+03

 The electronic state is 1-A.
 Alpha  occ. eigenvalues --  -19.73751 -10.64020  -1.13653  -0.78821  -0.56552
 Alpha  occ. eigenvalues --   -0.52074  -0.50028  -0.40698  -0.35191
 Alpha virt. eigenvalues --    0.03593   0.07771   0.12561   0.12816   0.14793
 Alpha virt. eigenvalues --    0.17601   0.18347   0.28583   0.29891   0.33477
 Alpha virt. eigenvalues --    0.33979   0.39241   0.40591   0.41763   0.43494

 Mulliken charges:
               1
     1  C    0.080351
     2  O   -0.489343
     3  H    0.045974
     4  H    0.043888
     5  H    0.065857
     6  H    0.253274
 Sum of Mulliken charges =   0.00000

 Dipole moment (field-independent basis, Debye):
    X=              0.9048    Y=              1.6091    Z=              0.0423  Tot=              1.8465
 Quadrupole moment (field-independent basis, Debye-Ang):
   XX=            -12.8706   YY=            -12.0479   ZZ=            -13.8517
   XY=             -2.4803   XZ=             -0.0570   YZ=              0.0230

 Normal termination of Gaussian 09 at Thu Aug 27 00:11:07 2020.
