 Gaussian 09, Revision D.01,
 Gaussian 09:  ES64L-G09RevD.01 24-Apr-2013

 --------------------
 #p B2PLYPD3/Def2QZVP
 --------------------

 --------
 methanol
 --------
 Symbolic Z-matrix:
 Charge =  0 Multiplicity = 1

                         Standard orientation:
 ---------------------------------------------------------------------
 Center     Atomic      Atomic             Coordinates (Angstroms)
 Number     Number       Type             X           Y           Z
 ---------------------------------------------------------------------
      1          6           0        0.667476    0.021395   -0.010283
      2          8           0       -0.746320   -0.139334    0.007109
      3          1           0        1.002626    0.551665    0.893119
      4          1           0        1.031367    0.505949   -0.853270
      5          1           0        1.088830   -0.923900    0.012320
      6          1           0       -1.157118    0.852592   -0.047343
 ---------------------------------------------------------------------

 SCF Done:  E(RB2PLYPD3) =  -115.537071136     A.U. after   11 cycles
 E2(B2PLYPD3) =    -0.1491388579D+00 E(B2PLYPD3) =    -0.11568620999395D+03

 The electronic state is 1-A.
 Alpha  occ. eigenvalues --  -19.73411 -10.64337  -1.14096  -0.78771  -0.57172
 Alpha  occ. eigenvalues --   -0.51980  -0.49894  -0.41014  -0.35166
 Alpha virt. eigenvalues --    0.04060   0.07924   0.12453   0.12716   0.14797
 Alpha virt. eigenvalues --    0.17439   0.18263   0.29010   0.30935   0.33215
 Alpha virt. eigenvalues --    0.34028   0.39070   0.40361   0.41517   0.44089

 Mulliken charges:
               1
     1  C    0.077745
     2  O   -0.484976
     3  H    0.043331
     4  H    0.047921
     5  H    0.068186
     6  H    0.247793
 Sum of Mulliken charges =   0.00000

 Dipole moment (field-independent basis, Debye):
    X=              0.9206    Y=              1.5763    Z=             -0.1418  Tot=              1.8309
 Quadrupole moment (field-independent basis, Debye-Ang):
   XX=            -13.0070   YY=            -12.0538   ZZ=            -13.8033
   XY=             -2.4061   XZ=              0.0192   YZ=             -0.1148

 Normal termination of Gaussian 09 at Thu Aug 27 00:05:11 2020.
