 Gaussian 09, Revision D.01,
 Gaussian 09:  ES64L-G09RevD.01 24-Apr-2013

 --------------------
 #p B2PLYPD3/Def2QZVP
 --------------------

 --------
 methanol
 --------
 Symbolic Z-matrix:
 Charge =  0 Multiplicity = 1

                         Standard orientation:
 ---------------------------------------------------------------------
 Center     Atomic      Atomic             Coordinates (Angstroms)
 Number     Number       Type             X           Y           Z
 ---------------------------------------------------------------------
      1          6           0       -0.665024   -0.036221   -0.003601
      2          8           0        0.734424    0.144942   -0.004139
      3          1           0       -0.971231   -0.491177    0.876796
      4          1           0       -0.979770   -0.572658   -0.827356
      5          1           0       -1.112141    0.950857   -0.019515
      6          1           0        1.177896   -0.829230    0.024791
 ---------------------------------------------------------------------

 SCF Done:  E(RB2PLYPD3) =  -115.537592273     A.U. after   11 cycles
 E2(B2PLYPD3) =    -0.1486769099D+00 E(B2PLYPD3) =    -0.11568626918336D+03

 The electronic state is 1-A.
 Alpha  occ. eigenvalues --  -19.73091 -10.63969  -1.14409  -0.78717  -0.57404
 Alpha  occ. eigenvalues --   -0.53167  -0.49502  -0.40499  -0.35206
 Alpha virt. eigenvalues --    0.04130   0.08020   0.12534   0.12651   0.14856
 Alpha virt. eigenvalues --    0.17428   0.18109   0.29131   0.31075   0.33385
 Alpha virt. eigenvalues --    0.34269   0.39112   0.40083   0.42765   0.44241

 Mulliken charges:
               1
     1  C    0.082608
     2  O   -0.486692
     3  H    0.047209
     4  H    0.047854
     5  H    0.063133
     6  H    0.245888
 Sum of Mulliken charges =   0.00000

 Dipole moment (field-independent basis, Debye):
    X=             -0.8590    Y=             -1.6344    Z=              0.0505  Tot=              1.8470
 Quadrupole moment (field-independent basis, Debye-Ang):
   XX=            -12.9328   YY=            -12.0791   ZZ=            -13.7458
   XY=             -2.3848   XZ=              0.0723   YZ=             -0.0003

 Normal termination of Gaussian 09 at Thu Aug 27 00:00:27 2020.
