 Gaussian 09, Revision D.01,
 Gaussian 09:  ES64L-G09RevD.01 24-Apr-2013

 --------------------
 #p B2PLYPD3/Def2QZVP
 --------------------

 --------
 methanol
 --------
 Symbolic Z-matrix:
 Charge =  0 Multiplicity = 1

                         Standard orientation:
 ---------------------------------------------------------------------
 Center     Atomic      Atomic             Coordinates (Angstroms)
 Number     Number       Type             X           Y           Z
 ---------------------------------------------------------------------
      1          6           0       -0.662200   -0.030015    0.002297
      2          8           0        0.748244    0.115541   -0.009951
      3          1           0       -1.005958   -0.450140    0.930630
      4          1           0       -1.012688   -0.620420   -0.859863
      5          1           0       -1.101043    1.020484   -0.063207
      6          1           0        1.106940   -0.694159    0.058270
 ---------------------------------------------------------------------

 SCF Done:  E(RB2PLYPD3) =  -115.546503674     A.U. after   10 cycles
 E2(B2PLYPD3) =    -0.1461622154D+00 E(B2PLYPD3) =    -0.11569266588945D+03

 The electronic state is 1-A.
 Alpha  occ. eigenvalues --  -19.71888 -10.66181  -1.17970  -0.78970  -0.59692
 Alpha  occ. eigenvalues --   -0.52396  -0.49483  -0.40928  -0.35743
 Alpha virt. eigenvalues --    0.05231   0.08557   0.12185   0.12301   0.14721
 Alpha virt. eigenvalues --    0.17301   0.18069   0.29013   0.33262   0.33400
 Alpha virt. eigenvalues --    0.36952   0.37888   0.40048   0.41181   0.43714

 Mulliken charges:
               1
     1  C    0.066687
     2  O   -0.425017
     3  H    0.053223
     4  H    0.050735
     5  H    0.064549
     6  H    0.189823
 Sum of Mulliken charges =   0.00000

 Dipole moment (field-independent basis, Debye):
    X=             -0.8993    Y=             -1.4760    Z=              0.1511  Tot=              1.7350
 Quadrupole moment (field-independent basis, Debye-Ang):
   XX=            -13.1417   YY=            -12.3465   ZZ=            -13.6614
   XY=             -2.1252   XZ=              0.1416   YZ=             -0.0684

 Normal termination of Gaussian 09 at Thu Aug 27 00:14:59 2020.
