 Gaussian 09, Revision D.01,
 Gaussian 09:  ES64L-G09RevD.01 24-Apr-2013

 --------------------
 #p B2PLYPD3/Def2QZVP
 --------------------

 --------
 methanol
 --------
 Symbolic Z-matrix:
 Charge =  0 Multiplicity = 1

                         Standard orientation:
 ---------------------------------------------------------------------
 Center     Atomic      Atomic             Coordinates (Angstroms)
 Number     Number       Type             X           Y           Z
 ---------------------------------------------------------------------
      1          6           0        0.651306    0.058965   -0.017446
      2          8           0       -0.740336   -0.187072    0.019058
      3          1           0        1.014149    0.596977    0.774789
      4          1           0        0.993138    0.421918   -0.748571
      5          1           0        1.240404   -0.893601    0.019206
      6          1           0       -1.232844    1.017496   -0.093209
 ---------------------------------------------------------------------

 SCF Done:  E(RB2PLYPD3) =  -115.443287731     A.U. after   11 cycles
 E2(B2PLYPD3) =    -0.1535597164D+00 E(B2PLYPD3) =    -0.11559684744773D+03

 The electronic state is 1-A.
 Alpha  occ. eigenvalues --  -19.75245 -10.62409  -1.12500  -0.80598  -0.55085
 Alpha  occ. eigenvalues --   -0.53423  -0.49017  -0.39256  -0.35696
 Alpha virt. eigenvalues --    0.00369   0.07251   0.12632   0.12990   0.14787
 Alpha virt. eigenvalues --    0.18135   0.18656   0.23532   0.29438   0.33697
 Alpha virt. eigenvalues --    0.34459   0.37392   0.40078   0.41988   0.45116

 Mulliken charges:
               1
     1  C    0.073075
     2  O   -0.482580
     3  H    0.046658
     4  H    0.072013
     5  H    0.041642
     6  H    0.249192
 Sum of Mulliken charges =   0.00000

 Dipole moment (field-independent basis, Debye):
    X=              0.9245    Y=              1.8510    Z=             -0.2681  Tot=              2.0863
 Quadrupole moment (field-independent basis, Debye-Ang):
   XX=            -12.6947   YY=            -11.8663   ZZ=            -13.9660
   XY=             -2.4416   XZ=              0.0839   YZ=             -0.1561

 Normal termination of Gaussian 09 at Wed Aug 26 22:51:31 2020.
