 Gaussian 09, Revision D.01,
 Gaussian 09:  ES64L-G09RevD.01 24-Apr-2013

 --------------------
 #p B2PLYPD3/Def2QZVP
 --------------------

 --------
 methanol
 --------
 Symbolic Z-matrix:
 Charge =  0 Multiplicity = 1

                         Standard orientation:
 ---------------------------------------------------------------------
 Center     Atomic      Atomic             Coordinates (Angstroms)
 Number     Number       Type             X           Y           Z
 ---------------------------------------------------------------------
      1          6           0        0.655653   -0.036229    0.017617
      2          8           0       -0.739228    0.091634   -0.010626
      3          1           0        0.985008   -0.684428   -0.887316
      4          1           0        1.053468   -0.407245    0.943195
      5          1           0        1.070337    1.108492   -0.153778
      6          1           0       -1.128904   -0.532513    0.077206
 ---------------------------------------------------------------------

 SCF Done:  E(RB2PLYPD3) =  -115.463107584     A.U. after   10 cycles
 E2(B2PLYPD3) =    -0.1442730078D+00 E(B2PLYPD3) =    -0.11560738059172D+03

 The electronic state is 1-A.
 Alpha  occ. eigenvalues --  -19.70236 -10.67965  -1.22832  -0.80904  -0.61976
 Alpha  occ. eigenvalues --   -0.52382  -0.49371  -0.39875  -0.36071
 Alpha virt. eigenvalues --    0.05305   0.09102   0.11582   0.12102   0.14696
 Alpha virt. eigenvalues --    0.16860   0.18010   0.28809   0.32792   0.33817
 Alpha virt. eigenvalues --    0.35328   0.38337   0.40402   0.41279   0.42214

 Mulliken charges:
               1
     1  C    0.047986
     2  O   -0.277693
     3  H    0.048179
     4  H    0.064351
     5  H    0.062209
     6  H    0.054968
 Sum of Mulliken charges =   0.00000

 Dipole moment (field-independent basis, Debye):
    X=              0.7375    Y=             -1.3195    Z=              0.2639  Tot=              1.5345
 Quadrupole moment (field-independent basis, Debye-Ang):
   XX=            -12.9974   YY=            -12.6637   ZZ=            -13.5399
   XY=              1.8668   XZ=             -0.0877   YZ=             -0.1597

 Normal termination of Gaussian 09 at Wed Aug 26 13:05:10 2020.
