 Gaussian 09, Revision D.01,
 Gaussian 09:  ES64L-G09RevD.01 24-Apr-2013

 --------------------
 #p B2PLYPD3/Def2QZVP
 --------------------

 --------
 methanol
 --------
 Symbolic Z-matrix:
 Charge =  0 Multiplicity = 1

                         Standard orientation:
 ---------------------------------------------------------------------
 Center     Atomic      Atomic             Coordinates (Angstroms)
 Number     Number       Type             X           Y           Z
 ---------------------------------------------------------------------
      1          6           0       -0.677652    0.006370    0.010845
      2          8           0        0.756111   -0.072347   -0.043940
      3          1           0       -1.009769    1.066492   -0.488362
      4          1           0       -1.055327   -0.119335    1.067232
      5          1           0       -1.060805   -0.852738   -0.579584
      6          1           0        1.142925    0.446137    0.287159
 ---------------------------------------------------------------------

 SCF Done:  E(RB2PLYPD3) =  -115.450822251     A.U. after   11 cycles
 E2(B2PLYPD3) =    -0.1444097779D+00 E(B2PLYPD3) =    -0.11559523202895D+03

 The electronic state is 1-A.
 Alpha  occ. eigenvalues --  -19.69797 -10.68413  -1.22181  -0.81114  -0.60737
 Alpha  occ. eigenvalues --   -0.51043  -0.50534  -0.40487  -0.35854
 Alpha virt. eigenvalues --    0.05363   0.09011   0.11568   0.12282   0.14218
 Alpha virt. eigenvalues --    0.16813   0.17944   0.28751   0.31721   0.32911
 Alpha virt. eigenvalues --    0.35986   0.38511   0.39743   0.40538   0.42444

 Mulliken charges:
               1
     1  C    0.056450
     2  O   -0.286387
     3  H    0.043175
     4  H    0.059033
     5  H    0.087060
     6  H    0.040670
 Sum of Mulliken charges =   0.00000

 Dipole moment (field-independent basis, Debye):
    X=             -0.9155    Y=              0.9406    Z=              0.6945  Tot=              1.4850
 Quadrupole moment (field-independent basis, Debye-Ang):
   XX=            -12.9404   YY=            -12.8296   ZZ=            -13.3195
   XY=              1.8391   XZ=              0.9917   YZ=              0.3752

 Normal termination of Gaussian 09 at Wed Aug 26 15:53:51 2020.
