 Gaussian 09, Revision D.01,
 Gaussian 09:  ES64L-G09RevD.01 24-Apr-2013

 --------------------
 #p B2PLYPD3/Def2QZVP
 --------------------

 --------
 methanol
 --------
 Symbolic Z-matrix:
 Charge =  0 Multiplicity = 1

                         Standard orientation:
 ---------------------------------------------------------------------
 Center     Atomic      Atomic             Coordinates (Angstroms)
 Number     Number       Type             X           Y           Z
 ---------------------------------------------------------------------
      1          6           0        0.652172    0.033349   -0.000164
      2          8           0       -0.737133   -0.144367   -0.010893
      3          1           0        1.042804    0.425361    0.865658
      4          1           0        0.957561    0.643156   -0.814398
      5          1           0        1.136369   -0.948989   -0.062898
      6          1           0       -1.152699    0.835311    0.099761
 ---------------------------------------------------------------------

 SCF Done:  E(RB2PLYPD3) =  -115.537118101     A.U. after   11 cycles
 E2(B2PLYPD3) =    -0.1487831629D+00 E(B2PLYPD3) =    -0.11568590126382D+03

 The electronic state is 1-A.
 Alpha  occ. eigenvalues --  -19.73470 -10.64279  -1.15007  -0.78550  -0.57715
 Alpha  occ. eigenvalues --   -0.52876  -0.49553  -0.40514  -0.35254
 Alpha virt. eigenvalues --    0.04055   0.07925   0.12511   0.12682   0.14938
 Alpha virt. eigenvalues --    0.17568   0.18309   0.29047   0.30828   0.33267
 Alpha virt. eigenvalues --    0.34862   0.38672   0.40020   0.42296   0.44402

 Mulliken charges:
               1
     1  C    0.078266
     2  O   -0.475030
     3  H    0.045134
     4  H    0.044246
     5  H    0.059510
     6  H    0.247874
 Sum of Mulliken charges =   0.00000

 Dipole moment (field-independent basis, Debye):
    X=              0.8379    Y=              1.6341    Z=              0.2234  Tot=              1.8499
 Quadrupole moment (field-independent basis, Debye-Ang):
   XX=            -12.9719   YY=            -12.1041   ZZ=            -13.8427
   XY=             -2.3503   XZ=             -0.1147   YZ=              0.0998

 Normal termination of Gaussian 09 at Wed Aug 26 11:15:51 2020.
