 Gaussian 09, Revision D.01,
 Gaussian 09:  ES64L-G09RevD.01 24-Apr-2013

 --------------------
 #p B2PLYPD3/Def2QZVP
 --------------------

 --------
 methanol
 --------
 Symbolic Z-matrix:
 Charge =  0 Multiplicity = 1

                         Standard orientation:
 ---------------------------------------------------------------------
 Center     Atomic      Atomic             Coordinates (Angstroms)
 Number     Number       Type             X           Y           Z
 ---------------------------------------------------------------------
      1          6           0        0.669652    0.012097    0.011889
      2          8           0       -0.739852   -0.139350   -0.006087
      3          1           0        1.055690    0.432235    0.882007
      4          1           0        0.952385    0.633442   -0.863642
      5          1           0        1.038836   -0.897029   -0.109569
      6          1           0       -1.146008    0.873566    0.068567
 ---------------------------------------------------------------------

 SCF Done:  E(RB2PLYPD3) =  -115.527917347     A.U. after   11 cycles
 E2(B2PLYPD3) =    -0.1493567566D+00 E(B2PLYPD3) =    -0.11567727410317D+03

 The electronic state is 1-A.
 Alpha  occ. eigenvalues --  -19.73375 -10.63876  -1.14015  -0.78942  -0.57232
 Alpha  occ. eigenvalues --   -0.51994  -0.50200  -0.41131  -0.34910
 Alpha virt. eigenvalues --    0.03812   0.08016   0.12407   0.12792   0.14795
 Alpha virt. eigenvalues --    0.17285   0.18201   0.28923   0.30487   0.32986
 Alpha virt. eigenvalues --    0.34266   0.38521   0.40995   0.41812   0.43974

 Mulliken charges:
               1
     1  C    0.077758
     2  O   -0.484901
     3  H    0.047962
     4  H    0.037800
     5  H    0.072537
     6  H    0.248845
 Sum of Mulliken charges =   0.00000

 Dipole moment (field-independent basis, Debye):
    X=              0.9238    Y=              1.5517    Z=              0.1627  Tot=              1.8132
 Quadrupole moment (field-independent basis, Debye-Ang):
   XX=            -13.1325   YY=            -11.9387   ZZ=            -13.7732
   XY=             -2.4255   XZ=             -0.0160   YZ=              0.1735

 Normal termination of Gaussian 09 at Wed Aug 26 15:57:07 2020.
