 Gaussian 09, Revision D.01,
 Gaussian 09:  ES64L-G09RevD.01 24-Apr-2013

 --------------------
 #p B2PLYPD3/Def2QZVP
 --------------------

 --------
 methanol
 --------
 Symbolic Z-matrix:
 Charge =  0 Multiplicity = 1

                         Standard orientation:
 ---------------------------------------------------------------------
 Center     Atomic      Atomic             Coordinates (Angstroms)
 Number     Number       Type             X           Y           Z
 ---------------------------------------------------------------------
      1          6           0        0.649399    0.038802   -0.006351
      2          8           0       -0.730876   -0.169267   -0.003072
      3          1           0        1.021372    0.457800    0.833142
      4          1           0        0.965452    0.588618   -0.777671
      5          1           0        1.157378   -0.887873   -0.036052
      6          1           0       -1.193582    0.962778    0.043259
 ---------------------------------------------------------------------

 SCF Done:  E(RB2PLYPD3) =  -115.496517063     A.U. after   11 cycles
 E2(B2PLYPD3) =    -0.1513952600D+00 E(B2PLYPD3) =    -0.11564791232296D+03

 The electronic state is 1-A.
 Alpha  occ. eigenvalues --  -19.74417 -10.62680  -1.13528  -0.79171  -0.56007
 Alpha  occ. eigenvalues --   -0.53263  -0.49719  -0.39993  -0.35156
 Alpha virt. eigenvalues --    0.01900   0.07641   0.12720   0.12941   0.14924
 Alpha virt. eigenvalues --    0.17819   0.18411   0.25592   0.29528   0.33457
 Alpha virt. eigenvalues --    0.35090   0.39352   0.40086   0.43389   0.43766

 Mulliken charges:
               1
     1  C    0.096176
     2  O   -0.485570
     3  H    0.040332
     4  H    0.040859
     5  H    0.054520
     6  H    0.253684
 Sum of Mulliken charges =   0.00000

 Dipole moment (field-independent basis, Debye):
    X=              0.8819    Y=              1.7425    Z=              0.0729  Tot=              1.9543
 Quadrupole moment (field-independent basis, Debye-Ang):
   XX=            -12.8531   YY=            -11.8447   ZZ=            -13.9160
   XY=             -2.4750   XZ=             -0.0424   YZ=              0.0013

 Normal termination of Gaussian 09 at Wed Aug 26 15:32:30 2020.
