 Gaussian 09, Revision D.01,
 Gaussian 09:  ES64L-G09RevD.01 24-Apr-2013

 --------------------
 #p B2PLYPD3/Def2QZVP
 --------------------

 --------
 methanol
 --------
 Symbolic Z-matrix:
 Charge =  0 Multiplicity = 1

                         Standard orientation:
 ---------------------------------------------------------------------
 Center     Atomic      Atomic             Coordinates (Angstroms)
 Number     Number       Type             X           Y           Z
 ---------------------------------------------------------------------
      1          6           0        0.667905   -0.017958    0.023266
      2          8           0       -0.751478    0.094022   -0.019064
      3          1           0        1.051876   -0.720819   -0.832102
      4          1           0        0.956726   -0.369823    0.961660
      5          1           0        1.046402    1.057713   -0.178904
      6          1           0       -1.050611   -0.611501    0.062266
 ---------------------------------------------------------------------

 SCF Done:  E(RB2PLYPD3) =  -115.493044604     A.U. after   10 cycles
 E2(B2PLYPD3) =    -0.1446241133D+00 E(B2PLYPD3) =    -0.11563766871773D+03

 The electronic state is 1-A.
 Alpha  occ. eigenvalues --  -19.70497 -10.67017  -1.21536  -0.80143  -0.61100
 Alpha  occ. eigenvalues --   -0.52364  -0.49436  -0.41508  -0.36010
 Alpha virt. eigenvalues --    0.05368   0.09081   0.11797   0.12106   0.14735
 Alpha virt. eigenvalues --    0.17014   0.17736   0.28886   0.32558   0.32991
 Alpha virt. eigenvalues --    0.36807   0.37989   0.40248   0.41668   0.43419

 Mulliken charges:
               1
     1  C    0.063057
     2  O   -0.324573
     3  H    0.040918
     4  H    0.062567
     5  H    0.071377
     6  H    0.086654
 Sum of Mulliken charges =   0.00000

 Dipole moment (field-independent basis, Debye):
    X=              0.9867    Y=             -1.3369    Z=              0.2622  Tot=              1.6822
 Quadrupole moment (field-independent basis, Debye-Ang):
   XX=            -13.3977   YY=            -12.3196   ZZ=            -13.5197
   XY=              1.9161   XZ=             -0.1805   YZ=             -0.2009

 Normal termination of Gaussian 09 at Wed Aug 26 14:16:26 2020.
