 Gaussian 09, Revision D.01,
 Gaussian 09:  ES64L-G09RevD.01 24-Apr-2013

 --------------------
 #p B2PLYPD3/Def2QZVP
 --------------------

 --------
 methanol
 --------
 Symbolic Z-matrix:
 Charge =  0 Multiplicity = 1

                         Standard orientation:
 ---------------------------------------------------------------------
 Center     Atomic      Atomic             Coordinates (Angstroms)
 Number     Number       Type             X           Y           Z
 ---------------------------------------------------------------------
      1          6           0        0.652319    0.014873    0.013143
      2          8           0       -0.745829    0.064432   -0.012001
      3          1           0        1.178754   -0.777275   -0.823944
      4          1           0        1.029884   -0.435407    1.007448
      5          1           0        1.018816    1.096435   -0.175423
      6          1           0       -1.174738   -0.488447    0.009066
 ---------------------------------------------------------------------

 SCF Done:  E(RB2PLYPD3) =  -115.406153147     A.U. after   11 cycles
 E2(B2PLYPD3) =    -0.1444604494D+00 E(B2PLYPD3) =    -0.11555061359624D+03

 The electronic state is 1-A.
 Alpha  occ. eigenvalues --  -19.70031 -10.69641  -1.24184  -0.82251  -0.61855
 Alpha  occ. eigenvalues --   -0.51394  -0.49705  -0.40144  -0.35129
 Alpha virt. eigenvalues --    0.05206   0.08911   0.11482   0.11958   0.14847
 Alpha virt. eigenvalues --    0.16786   0.17557   0.28960   0.31652   0.33448
 Alpha virt. eigenvalues --    0.35327   0.37539   0.38743   0.40072   0.41832

 Mulliken charges:
               1
     1  C    0.051668
     2  O   -0.233448
     3  H    0.022912
     4  H    0.050758
     5  H    0.091762
     6  H    0.016348
 Sum of Mulliken charges =   0.00000

 Dipole moment (field-independent basis, Debye):
    X=              0.6337    Y=             -1.0522    Z=              0.1612  Tot=              1.2388
 Quadrupole moment (field-independent basis, Debye-Ang):
   XX=            -12.7698   YY=            -12.5785   ZZ=            -13.9707
   XY=              1.8908   XZ=             -0.0375   YZ=             -0.2158

 Normal termination of Gaussian 09 at Wed Aug 26 23:32:07 2020.
