 Gaussian 09, Revision D.01,
 Gaussian 09:  ES64L-G09RevD.01 24-Apr-2013

 --------------------
 #p B2PLYPD3/Def2QZVP
 --------------------

 --------
 methanol
 --------
 Symbolic Z-matrix:
 Charge =  0 Multiplicity = 1

                         Standard orientation:
 ---------------------------------------------------------------------
 Center     Atomic      Atomic             Coordinates (Angstroms)
 Number     Number       Type             X           Y           Z
 ---------------------------------------------------------------------
      1          6           0        0.669655    0.018304   -0.003006
      2          8           0       -0.739576   -0.139006    0.001266
      3          1           0        1.006807    0.520214    0.889284
      4          1           0        1.038903    0.552049   -0.842352
      5          1           0        1.051684   -0.923050   -0.021074
      6          1           0       -1.198714    0.853011   -0.017952
 ---------------------------------------------------------------------

 SCF Done:  E(RB2PLYPD3) =  -115.533751605     A.U. after   11 cycles
 E2(B2PLYPD3) =    -0.1492735122D+00 E(B2PLYPD3) =    -0.11568302511693D+03

 The electronic state is 1-A.
 Alpha  occ. eigenvalues --  -19.73364 -10.64069  -1.13853  -0.78779  -0.57182
 Alpha  occ. eigenvalues --   -0.51827  -0.50053  -0.40866  -0.34985
 Alpha virt. eigenvalues --    0.03882   0.07906   0.12575   0.12726   0.14952
 Alpha virt. eigenvalues --    0.17199   0.18215   0.29008   0.30563   0.33345
 Alpha virt. eigenvalues --    0.34195   0.38992   0.40433   0.41580   0.43879

 Mulliken charges:
               1
     1  C    0.078000
     2  O   -0.489794
     3  H    0.045057
     4  H    0.044697
     5  H    0.072104
     6  H    0.249937
 Sum of Mulliken charges =   0.00000

 Dipole moment (field-independent basis, Debye):
    X=              0.8514    Y=              1.5742    Z=             -0.0493  Tot=              1.7904
 Quadrupole moment (field-independent basis, Debye-Ang):
   XX=            -12.8544   YY=            -12.0120   ZZ=            -13.8511
   XY=             -2.4383   XZ=             -0.0145   YZ=             -0.0346

 Normal termination of Gaussian 09 at Thu Aug 27 00:15:03 2020.
