 Gaussian 09, Revision D.01,
 Gaussian 09:  ES64L-G09RevD.01 24-Apr-2013

 --------------------
 #p B2PLYPD3/Def2QZVP
 --------------------

 --------
 methanol
 --------
 Symbolic Z-matrix:
 Charge =  0 Multiplicity = 1

                         Standard orientation:
 ---------------------------------------------------------------------
 Center     Atomic      Atomic             Coordinates (Angstroms)
 Number     Number       Type             X           Y           Z
 ---------------------------------------------------------------------
      1          6           0       -0.662313   -0.041551    0.048040
      2          8           0        0.750874    0.098877   -0.037546
      3          1           0       -1.025895   -0.191811    0.896758
      4          1           0       -1.118978   -0.799095   -0.772725
      5          1           0       -1.032031    1.086396   -0.275644
      6          1           0        1.143788   -0.637204    0.163743
 ---------------------------------------------------------------------

 SCF Done:  E(RB2PLYPD3) =  -115.503828564     A.U. after   11 cycles
 E2(B2PLYPD3) =    -0.1463874761D+00 E(B2PLYPD3) =    -0.11565021604008D+03

 The electronic state is 1-A.
 Alpha  occ. eigenvalues --  -19.72004 -10.66746  -1.18759  -0.80176  -0.61484
 Alpha  occ. eigenvalues --   -0.52199  -0.48472  -0.39985  -0.36248
 Alpha virt. eigenvalues --    0.05137   0.08453   0.11324   0.12283   0.15107
 Alpha virt. eigenvalues --    0.16885   0.18699   0.28683   0.32660   0.33317
 Alpha virt. eigenvalues --    0.34952   0.37000   0.39250   0.41114   0.45288

 Mulliken charges:
               1
     1  C    0.047090
     2  O   -0.391456
     3  H    0.078804
     4  H    0.044444
     5  H    0.051323
     6  H    0.169795
 Sum of Mulliken charges =   0.00000

 Dipole moment (field-independent basis, Debye):
    X=             -0.7647    Y=             -1.3928    Z=              0.5966  Tot=              1.6972
 Quadrupole moment (field-independent basis, Debye-Ang):
   XX=            -12.9785   YY=            -12.6312   ZZ=            -13.5912
   XY=             -1.8851   XZ=              0.3021   YZ=             -0.2788

 Normal termination of Gaussian 09 at Wed Aug 26 20:11:46 2020.
