 Gaussian 09, Revision D.01,
 Gaussian 09:  ES64L-G09RevD.01 24-Apr-2013

 --------------------
 #p B2PLYPD3/Def2QZVP
 --------------------

 --------
 methanol
 --------
 Symbolic Z-matrix:
 Charge =  0 Multiplicity = 1

                         Standard orientation:
 ---------------------------------------------------------------------
 Center     Atomic      Atomic             Coordinates (Angstroms)
 Number     Number       Type             X           Y           Z
 ---------------------------------------------------------------------
      1          6           0        0.672621   -0.027385   -0.000315
      2          8           0       -0.750731    0.116318    0.003353
      3          1           0        1.042145   -0.499070   -0.882880
      4          1           0        0.932093   -0.575588    0.900661
      5          1           0        1.080100    1.016538    0.025729
      6          1           0       -1.084214   -0.708117   -0.068442
 ---------------------------------------------------------------------

 SCF Done:  E(RB2PLYPD3) =  -115.546663434     A.U. after   10 cycles
 E2(B2PLYPD3) =    -0.1462552026D+00 E(B2PLYPD3) =    -0.11569291863639D+03

 The electronic state is 1-A.
 Alpha  occ. eigenvalues --  -19.71699 -10.65774  -1.17480  -0.79135  -0.59344
 Alpha  occ. eigenvalues --   -0.52740  -0.49211  -0.41409  -0.35663
 Alpha virt. eigenvalues --    0.05220   0.08638   0.12202   0.12258   0.14674
 Alpha virt. eigenvalues --    0.17253   0.17897   0.29116   0.32383   0.33641
 Alpha virt. eigenvalues --    0.37192   0.38079   0.40284   0.41364   0.44075

 Mulliken charges:
               1
     1  C    0.070711
     2  O   -0.433483
     3  H    0.052112
     4  H    0.053343
     5  H    0.067667
     6  H    0.189649
 Sum of Mulliken charges =   0.00000

 Dipole moment (field-independent basis, Debye):
    X=              0.9972    Y=             -1.4866    Z=             -0.1460  Tot=              1.7960
 Quadrupole moment (field-independent basis, Debye-Ang):
   XX=            -13.2881   YY=            -12.2147   ZZ=            -13.6031
   XY=              2.1108   XZ=              0.0304   YZ=              0.0874

 Normal termination of Gaussian 09 at Wed Aug 26 15:20:08 2020.
