 Gaussian 09, Revision D.01,
 Gaussian 09:  ES64L-G09RevD.01 24-Apr-2013

 --------------------
 #p B2PLYPD3/Def2QZVP
 --------------------

 --------
 methanol
 --------
 Symbolic Z-matrix:
 Charge =  0 Multiplicity = 1

                         Standard orientation:
 ---------------------------------------------------------------------
 Center     Atomic      Atomic             Coordinates (Angstroms)
 Number     Number       Type             X           Y           Z
 ---------------------------------------------------------------------
      1          6           0        0.643260   -0.030030    0.004551
      2          8           0       -0.734395    0.125508   -0.006546
      3          1           0        1.023494   -0.621953   -0.845357
      4          1           0        0.974687   -0.491140    0.917590
      5          1           0        1.178461    0.984967   -0.059815
      6          1           0       -1.161043   -0.695758    0.012646
 ---------------------------------------------------------------------

 SCF Done:  E(RB2PLYPD3) =  -115.549138723     A.U. after   10 cycles
 E2(B2PLYPD3) =    -0.1463550331D+00 E(B2PLYPD3) =    -0.11569549375638D+03

 The electronic state is 1-A.
 Alpha  occ. eigenvalues --  -19.72362 -10.66001  -1.17962  -0.78674  -0.60004
 Alpha  occ. eigenvalues --   -0.52327  -0.50187  -0.40068  -0.35356
 Alpha virt. eigenvalues --    0.05094   0.08256   0.12391   0.12518   0.14798
 Alpha virt. eigenvalues --    0.17670   0.18049   0.29057   0.33083   0.34716
 Alpha virt. eigenvalues --    0.35203   0.38322   0.40045   0.41270   0.44130

 Mulliken charges:
               1
     1  C    0.066376
     2  O   -0.434373
     3  H    0.042391
     4  H    0.048492
     5  H    0.062345
     6  H    0.214768
 Sum of Mulliken charges =   0.00000

 Dipole moment (field-independent basis, Debye):
    X=              0.6907    Y=             -1.5058    Z=              0.0607  Tot=              1.6577
 Quadrupole moment (field-independent basis, Debye-Ang):
   XX=            -12.8059   YY=            -12.4907   ZZ=            -13.8121
   XY=              2.2882   XZ=             -0.0752   YZ=             -0.0340

 Normal termination of Gaussian 09 at Wed Aug 26 15:59:50 2020.
