 Gaussian 09, Revision D.01,
 Gaussian 09:  ES64L-G09RevD.01 24-Apr-2013

 --------------------
 #p B2PLYPD3/Def2QZVP
 --------------------

 --------
 methanol
 --------
 Symbolic Z-matrix:
 Charge =  0 Multiplicity = 1

                         Standard orientation:
 ---------------------------------------------------------------------
 Center     Atomic      Atomic             Coordinates (Angstroms)
 Number     Number       Type             X           Y           Z
 ---------------------------------------------------------------------
      1          6           0       -0.662483   -0.017002    0.003098
      2          8           0        0.741196    0.118139   -0.006228
      3          1           0       -1.019912   -0.507022    0.892027
      4          1           0       -0.973864   -0.608293   -0.880120
      5          1           0       -1.076843    0.994796   -0.036640
      6          1           0        1.115949   -0.722583    0.055969
 ---------------------------------------------------------------------

 SCF Done:  E(RB2PLYPD3) =  -115.551711292     A.U. after   10 cycles
 E2(B2PLYPD3) =    -0.1464267505D+00 E(B2PLYPD3) =    -0.11569813804210D+03

 The electronic state is 1-A.
 Alpha  occ. eigenvalues --  -19.72047 -10.65634  -1.17246  -0.78900  -0.59432
 Alpha  occ. eigenvalues --   -0.52023  -0.50080  -0.41224  -0.35260
 Alpha virt. eigenvalues --    0.05093   0.08523   0.12344   0.12365   0.14881
 Alpha virt. eigenvalues --    0.17268   0.17846   0.29179   0.33015   0.33896
 Alpha virt. eigenvalues --    0.36234   0.39049   0.39875   0.40989   0.43973

 Mulliken charges:
               1
     1  C    0.071623
     2  O   -0.442650
     3  H    0.046732
     4  H    0.044132
     5  H    0.071921
     6  H    0.208243
 Sum of Mulliken charges =   0.00000

 Dipole moment (field-independent basis, Debye):
    X=             -0.8662    Y=             -1.4747    Z=              0.1407  Tot=              1.7161
 Quadrupole moment (field-independent basis, Debye-Ang):
   XX=            -13.1495   YY=            -12.1878   ZZ=            -13.7482
   XY=             -2.2117   XZ=              0.0658   YZ=             -0.0922

 Normal termination of Gaussian 09 at Wed Aug 26 21:45:42 2020.
