 Gaussian 09, Revision D.01,
 Gaussian 09:  ES64L-G09RevD.01 24-Apr-2013

 --------------------
 #p B2PLYPD3/Def2QZVP
 --------------------

 --------
 methanol
 --------
 Symbolic Z-matrix:
 Charge =  0 Multiplicity = 1

                         Standard orientation:
 ---------------------------------------------------------------------
 Center     Atomic      Atomic             Coordinates (Angstroms)
 Number     Number       Type             X           Y           Z
 ---------------------------------------------------------------------
      1          6           0       -0.654810   -0.023195    0.007351
      2          8           0        0.742860    0.113570   -0.017611
      3          1           0       -0.980431   -0.450833    0.928539
      4          1           0       -1.039996   -0.639636   -0.857781
      5          1           0       -1.098283    1.011353   -0.055867
      6          1           0        1.104694   -0.690270    0.081891
 ---------------------------------------------------------------------

 SCF Done:  E(RB2PLYPD3) =  -115.546170101     A.U. after   10 cycles
 E2(B2PLYPD3) =    -0.1459783875D+00 E(B2PLYPD3) =    -0.11569214848896D+03

 The electronic state is 1-A.
 Alpha  occ. eigenvalues --  -19.71937 -10.66139  -1.18436  -0.78993  -0.60043
 Alpha  occ. eigenvalues --   -0.52124  -0.49987  -0.40965  -0.35549
 Alpha virt. eigenvalues --    0.05220   0.08578   0.12230   0.12343   0.14825
 Alpha virt. eigenvalues --    0.17326   0.18009   0.29024   0.33148   0.33889
 Alpha virt. eigenvalues --    0.36869   0.38320   0.39796   0.40951   0.43963

 Mulliken charges:
               1
     1  C    0.066276
     2  O   -0.418569
     3  H    0.050604
     4  H    0.044192
     5  H    0.066826
     6  H    0.190672
 Sum of Mulliken charges =   0.00000

 Dipole moment (field-independent basis, Debye):
    X=             -0.8423    Y=             -1.4436    Z=              0.2455  Tot=              1.6893
 Quadrupole moment (field-independent basis, Debye-Ang):
   XX=            -13.1380   YY=            -12.3443   ZZ=            -13.7018
   XY=             -2.1400   XZ=              0.2145   YZ=             -0.1355

 Normal termination of Gaussian 09 at Thu Aug 27 00:08:02 2020.
