 Gaussian 09, Revision D.01,
 Gaussian 09:  ES64L-G09RevD.01 24-Apr-2013

 --------------------
 #p B2PLYPD3/Def2QZVP
 --------------------

 --------
 methanol
 --------
 Symbolic Z-matrix:
 Charge =  0 Multiplicity = 1

                         Standard orientation:
 ---------------------------------------------------------------------
 Center     Atomic      Atomic             Coordinates (Angstroms)
 Number     Number       Type             X           Y           Z
 ---------------------------------------------------------------------
      1          6           0        0.671960   -0.008200   -0.000877
      2          8           0       -0.746928    0.120467   -0.012247
      3          1           0        1.098295   -0.569787   -0.843329
      4          1           0        0.972605   -0.537967    0.883929
      5          1           0        1.004518    0.992662    0.031719
      6          1           0       -1.131756   -0.799447    0.030922
 ---------------------------------------------------------------------

 SCF Done:  E(RB2PLYPD3) =  -115.548590998     A.U. after   10 cycles
 E2(B2PLYPD3) =    -0.1479634298D+00 E(B2PLYPD3) =    -0.11569655442776D+03

 The electronic state is 1-A.
 Alpha  occ. eigenvalues --  -19.72751 -10.65086  -1.15259  -0.78666  -0.58574
 Alpha  occ. eigenvalues --   -0.51337  -0.49646  -0.41651  -0.35092
 Alpha virt. eigenvalues --    0.04679   0.08197   0.12317   0.12520   0.15084
 Alpha virt. eigenvalues --    0.16976   0.17967   0.29223   0.33033   0.33420
 Alpha virt. eigenvalues --    0.34459   0.38949   0.39762   0.40589   0.44000

 Mulliken charges:
               1
     1  C    0.072689
     2  O   -0.469901
     3  H    0.045759
     4  H    0.044043
     5  H    0.075595
     6  H    0.231815
 Sum of Mulliken charges =   0.00000

 Dipole moment (field-independent basis, Debye):
    X=              0.9132    Y=             -1.5326    Z=              0.1102  Tot=              1.7874
 Quadrupole moment (field-independent basis, Debye-Ang):
   XX=            -13.1686   YY=            -11.9419   ZZ=            -13.8935
   XY=              2.1840   XZ=             -0.1551   YZ=             -0.0286

 Normal termination of Gaussian 09 at Wed Aug 26 14:02:20 2020.
