 Gaussian 09, Revision D.01,
 Gaussian 09:  ES64L-G09RevD.01 24-Apr-2013

 --------------------
 #p B2PLYPD3/Def2QZVP
 --------------------

 --------
 methanol
 --------
 Symbolic Z-matrix:
 Charge =  0 Multiplicity = 1

                         Standard orientation:
 ---------------------------------------------------------------------
 Center     Atomic      Atomic             Coordinates (Angstroms)
 Number     Number       Type             X           Y           Z
 ---------------------------------------------------------------------
      1          6           0       -0.672210   -0.035157   -0.000888
      2          8           0        0.759652    0.103829   -0.009597
      3          1           0       -1.038753   -0.447383    0.947892
      4          1           0       -1.103031   -0.614599   -0.844562
      5          1           0       -1.081282    1.078104   -0.058760
      6          1           0        1.179113   -0.635815    0.037531
 ---------------------------------------------------------------------

 SCF Done:  E(RB2PLYPD3) =  -115.532877897     A.U. after   10 cycles
 E2(B2PLYPD3) =    -0.1461683181D+00 E(B2PLYPD3) =    -0.11567904621501D+03

 The electronic state is 1-A.
 Alpha  occ. eigenvalues --  -19.71609 -10.67358  -1.18103  -0.79247  -0.60159
 Alpha  occ. eigenvalues --   -0.51557  -0.48704  -0.40423  -0.36022
 Alpha virt. eigenvalues --    0.05327   0.08373   0.11826   0.12321   0.14825
 Alpha virt. eigenvalues --    0.16941   0.18274   0.28919   0.32472   0.33691
 Alpha virt. eigenvalues --    0.36082   0.38526   0.39578   0.40329   0.42176

 Mulliken charges:
               1
     1  C    0.057942
     2  O   -0.406579
     3  H    0.059079
     4  H    0.058834
     5  H    0.064588
     6  H    0.166136
 Sum of Mulliken charges =   0.00000

 Dipole moment (field-independent basis, Debye):
    X=             -0.8508    Y=             -1.4401    Z=              0.1095  Tot=              1.6763
 Quadrupole moment (field-independent basis, Debye-Ang):
   XX=            -12.7530   YY=            -12.5382   ZZ=            -13.7549
   XY=             -2.0278   XZ=              0.1606   YZ=             -0.0199

 Normal termination of Gaussian 09 at Wed Aug 26 11:16:08 2020.
