 Gaussian 09, Revision D.01,
 Gaussian 09:  ES64L-G09RevD.01 24-Apr-2013

 --------------------
 #p B2PLYPD3/Def2QZVP
 --------------------

 --------
 methanol
 --------
 Symbolic Z-matrix:
 Charge =  0 Multiplicity = 1

                         Standard orientation:
 ---------------------------------------------------------------------
 Center     Atomic      Atomic             Coordinates (Angstroms)
 Number     Number       Type             X           Y           Z
 ---------------------------------------------------------------------
      1          6           0        0.658913    0.020644   -0.008845
      2          8           0       -0.736393   -0.143650    0.005734
      3          1           0        1.050531    0.508670    0.867794
      4          1           0        0.963027    0.549514   -0.840815
      5          1           0        1.061127   -0.922959   -0.025323
      6          1           0       -1.137017    0.890112    0.005540
 ---------------------------------------------------------------------

 SCF Done:  E(RB2PLYPD3) =  -115.529444573     A.U. after   11 cycles
 E2(B2PLYPD3) =    -0.1494547913D+00 E(B2PLYPD3) =    -0.11567889936400D+03

 The electronic state is 1-A.
 Alpha  occ. eigenvalues --  -19.73601 -10.63676  -1.14350  -0.78698  -0.57361
 Alpha  occ. eigenvalues --   -0.52408  -0.49883  -0.41010  -0.35037
 Alpha virt. eigenvalues --    0.03631   0.07979   0.12596   0.12691   0.14969
 Alpha virt. eigenvalues --    0.17407   0.18191   0.28733   0.30051   0.33265
 Alpha virt. eigenvalues --    0.34720   0.39205   0.40418   0.41987   0.44151

 Mulliken charges:
               1
     1  C    0.080998
     2  O   -0.481525
     3  H    0.040377
     4  H    0.043738
     5  H    0.066857
     6  H    0.249555
 Sum of Mulliken charges =   0.00000

 Dipole moment (field-independent basis, Debye):
    X=              0.9041    Y=              1.6142    Z=             -0.0432  Tot=              1.8506
 Quadrupole moment (field-independent basis, Debye-Ang):
   XX=            -13.1429   YY=            -11.8809   ZZ=            -13.8346
   XY=             -2.3620   XZ=              0.0182   YZ=             -0.0418

 Normal termination of Gaussian 09 at Thu Aug 27 00:09:53 2020.
