 Gaussian 09, Revision D.01,
 Gaussian 09:  ES64L-G09RevD.01 24-Apr-2013

 --------------------
 #p B2PLYPD3/Def2QZVP
 --------------------

 --------
 methanol
 --------
 Symbolic Z-matrix:
 Charge =  0 Multiplicity = 1

                         Standard orientation:
 ---------------------------------------------------------------------
 Center     Atomic      Atomic             Coordinates (Angstroms)
 Number     Number       Type             X           Y           Z
 ---------------------------------------------------------------------
      1          6           0        0.701750    0.038662   -0.007973
      2          8           0       -0.750094   -0.189708    0.020894
      3          1           0        1.069760    0.609154    0.725084
      4          1           0        0.967072    0.465869   -0.723712
      5          1           0        1.057039   -0.901751   -0.031417
      6          1           0       -1.303620    1.112418   -0.089269
 ---------------------------------------------------------------------

 SCF Done:  E(RB2PLYPD3) =  -115.404351391     A.U. after   12 cycles
 E2(B2PLYPD3) =    -0.1565971936D+00 E(B2PLYPD3) =    -0.11556094858461D+03

 The electronic state is 1-A.
 Alpha  occ. eigenvalues --  -19.75274 -10.61257  -1.09980  -0.81785  -0.55927
 Alpha  occ. eigenvalues --   -0.52974  -0.47281  -0.39852  -0.35423
 Alpha virt. eigenvalues --   -0.01371   0.07371   0.12194   0.13276   0.14784
 Alpha virt. eigenvalues --    0.17049   0.18147   0.22213   0.29224   0.32737
 Alpha virt. eigenvalues --    0.33825   0.38300   0.39254   0.42913   0.45388

 Mulliken charges:
               1
     1  C    0.074406
     2  O   -0.498350
     3  H    0.047743
     4  H    0.082688
     5  H    0.067294
     6  H    0.226220
 Sum of Mulliken charges =   0.00000

 Dipole moment (field-independent basis, Debye):
    X=              1.1859    Y=              1.7761    Z=             -0.2551  Tot=              2.1508
 Quadrupole moment (field-independent basis, Debye-Ang):
   XX=            -12.7048   YY=            -11.2792   ZZ=            -14.0818
   XY=             -2.3888   XZ=              0.1135   YZ=             -0.1221

 Normal termination of Gaussian 09 at Wed Aug 26 18:56:22 2020.
