 Gaussian 09, Revision D.01,
 Gaussian 09:  ES64L-G09RevD.01 24-Apr-2013

 --------------------
 #p B2PLYPD3/Def2QZVP
 --------------------

 --------
 methanol
 --------
 Symbolic Z-matrix:
 Charge =  0 Multiplicity = 1

                         Standard orientation:
 ---------------------------------------------------------------------
 Center     Atomic      Atomic             Coordinates (Angstroms)
 Number     Number       Type             X           Y           Z
 ---------------------------------------------------------------------
      1          6           0       -0.672798    0.020783   -0.004568
      2          8           0        0.748895   -0.138383    0.000427
      3          1           0       -1.049525    0.520189   -0.840233
      4          1           0       -0.974768    0.581692    0.852440
      5          1           0       -1.099612   -0.954421    0.037768
      6          1           0        1.169534    0.834900   -0.025978
 ---------------------------------------------------------------------

 SCF Done:  E(RB2PLYPD3) =  -115.540770156     A.U. after   11 cycles
 E2(B2PLYPD3) =    -0.1489213649D+00 E(B2PLYPD3) =    -0.11568969152055D+03

 The electronic state is 1-A.
 Alpha  occ. eigenvalues --  -19.73224 -10.64485  -1.13973  -0.78789  -0.57442
 Alpha  occ. eigenvalues --   -0.51907  -0.49524  -0.41156  -0.35157
 Alpha virt. eigenvalues --    0.04207   0.07935   0.12479   0.12634   0.14913
 Alpha virt. eigenvalues --    0.17411   0.18020   0.29202   0.31441   0.33115
 Alpha virt. eigenvalues --    0.33853   0.39355   0.39646   0.41671   0.44275

 Mulliken charges:
               1
     1  C    0.082050
     2  O   -0.488306
     3  H    0.047335
     4  H    0.044349
     5  H    0.069585
     6  H    0.244987
 Sum of Mulliken charges =   0.00000

 Dipole moment (field-independent basis, Debye):
    X=             -0.9320    Y=              1.6116    Z=             -0.0580  Tot=              1.8626
 Quadrupole moment (field-independent basis, Debye-Ang):
   XX=            -12.9404   YY=            -11.9885   ZZ=            -13.8895
   XY=              2.3619   XZ=              0.0232   YZ=             -0.0583

 Normal termination of Gaussian 09 at Wed Aug 26 23:42:00 2020.
