 Gaussian 09, Revision D.01,
 Gaussian 09:  ES64L-G09RevD.01 24-Apr-2013

 --------------------
 #p B2PLYPD3/Def2QZVP
 --------------------

 --------
 methanol
 --------
 Symbolic Z-matrix:
 Charge =  0 Multiplicity = 1

                         Standard orientation:
 ---------------------------------------------------------------------
 Center     Atomic      Atomic             Coordinates (Angstroms)
 Number     Number       Type             X           Y           Z
 ---------------------------------------------------------------------
      1          6           0        0.641987    0.037094   -0.026402
      2          8           0       -0.718744   -0.164465    0.002932
      3          1           0        0.950914    0.550957    0.816092
      4          1           0        1.014064    0.527663   -0.715064
      5          1           0        1.050573   -0.983028    0.048691
      6          1           0       -1.117525    0.997567   -0.014757
 ---------------------------------------------------------------------

 SCF Done:  E(RB2PLYPD3) =  -115.476867707     A.U. after   11 cycles
 E2(B2PLYPD3) =    -0.1515639845D+00 E(B2PLYPD3) =    -0.11562843169122D+03

 The electronic state is 1-A.
 Alpha  occ. eigenvalues --  -19.74493 -10.62494  -1.14542  -0.79236  -0.57838
 Alpha  occ. eigenvalues --   -0.53223  -0.49149  -0.40233  -0.34887
 Alpha virt. eigenvalues --    0.01726   0.07841   0.12151   0.13058   0.15256
 Alpha virt. eigenvalues --    0.17389   0.18177   0.25426   0.29649   0.33351
 Alpha virt. eigenvalues --    0.36117   0.37564   0.39379   0.43040   0.46598

 Mulliken charges:
               1
     1  C    0.091060
     2  O   -0.465741
     3  H    0.032577
     4  H    0.044562
     5  H    0.053636
     6  H    0.243906
 Sum of Mulliken charges =   0.00000

 Dipole moment (field-independent basis, Debye):
    X=              0.8935    Y=              1.7927    Z=             -0.0837  Tot=              2.0048
 Quadrupole moment (field-independent basis, Debye-Ang):
   XX=            -13.3992   YY=            -11.4811   ZZ=            -14.0077
   XY=             -2.1247   XZ=             -0.0940   YZ=             -0.1472

 Normal termination of Gaussian 09 at Wed Aug 26 21:13:51 2020.
