 Gaussian 09, Revision D.01,
 Gaussian 09:  ES64L-G09RevD.01 24-Apr-2013

 --------------------
 #p B2PLYPD3/Def2QZVP
 --------------------

 --------
 methanol
 --------
 Symbolic Z-matrix:
 Charge =  0 Multiplicity = 1

                         Standard orientation:
 ---------------------------------------------------------------------
 Center     Atomic      Atomic             Coordinates (Angstroms)
 Number     Number       Type             X           Y           Z
 ---------------------------------------------------------------------
      1          6           0        0.695593    0.032721   -0.026654
      2          8           0       -0.739863   -0.189013    0.032146
      3          1           0        1.096382    0.654991    0.750203
      4          1           0        0.897188    0.485382   -0.711441
      5          1           0        1.097728   -0.889162   -0.026906
      6          1           0       -1.345950    1.064570   -0.109094
 ---------------------------------------------------------------------

 SCF Done:  E(RB2PLYPD3) =  -115.399322204     A.U. after   12 cycles
 E2(B2PLYPD3) =    -0.1558261360D+00 E(B2PLYPD3) =    -0.11555514833972D+03

 The electronic state is 1-A.
 Alpha  occ. eigenvalues --  -19.75008 -10.61647  -1.10491  -0.81327  -0.56735
 Alpha  occ. eigenvalues --   -0.51618  -0.48083  -0.39867  -0.34963
 Alpha virt. eigenvalues --   -0.01118   0.07334   0.12278   0.13234   0.14851
 Alpha virt. eigenvalues --    0.17258   0.18014   0.22420   0.29509   0.32765
 Alpha virt. eigenvalues --    0.33550   0.38672   0.39380   0.41020   0.45546

 Mulliken charges:
               1
     1  C    0.034155
     2  O   -0.501719
     3  H    0.045443
     4  H    0.114477
     5  H    0.073485
     6  H    0.234158
 Sum of Mulliken charges =   0.00000

 Dipole moment (field-independent basis, Debye):
    X=              1.0187    Y=              1.7444    Z=             -0.3647  Tot=              2.0527
 Quadrupole moment (field-independent basis, Debye-Ang):
   XX=            -12.4993   YY=            -11.4217   ZZ=            -14.1266
   XY=             -2.5870   XZ=              0.1774   YZ=             -0.2442

 Normal termination of Gaussian 09 at Wed Aug 26 21:57:33 2020.
