 Gaussian 09, Revision D.01,
 Gaussian 09:  ES64L-G09RevD.01 24-Apr-2013

 --------------------
 #p B2PLYPD3/Def2QZVP
 --------------------

 --------
 methanol
 --------
 Symbolic Z-matrix:
 Charge =  0 Multiplicity = 1

                         Standard orientation:
 ---------------------------------------------------------------------
 Center     Atomic      Atomic             Coordinates (Angstroms)
 Number     Number       Type             X           Y           Z
 ---------------------------------------------------------------------
      1          6           0        0.676498    0.007207    0.014761
      2          8           0       -0.739777   -0.158978   -0.008445
      3          1           0        1.060045    0.411998    0.852826
      4          1           0        0.982896    0.651113   -0.820001
      5          1           0        1.017822   -0.832680   -0.122844
      6          1           0       -1.201535    0.998153    0.069010
 ---------------------------------------------------------------------

 SCF Done:  E(RB2PLYPD3) =  -115.473364959     A.U. after   11 cycles
 E2(B2PLYPD3) =    -0.1523668850D+00 E(B2PLYPD3) =    -0.11562573184353D+03

 The electronic state is 1-A.
 Alpha  occ. eigenvalues --  -19.74339 -10.62491  -1.12245  -0.79846  -0.56577
 Alpha  occ. eigenvalues --   -0.51698  -0.49738  -0.40758  -0.34804
 Alpha virt. eigenvalues --    0.01594   0.07700   0.12648   0.12906   0.14802
 Alpha virt. eigenvalues --    0.17277   0.18300   0.25293   0.29533   0.33118
 Alpha virt. eigenvalues --    0.34222   0.37823   0.41375   0.41903   0.44229

 Mulliken charges:
               1
     1  C    0.077861
     2  O   -0.496013
     3  H    0.047322
     4  H    0.035425
     5  H    0.084088
     6  H    0.251318
 Sum of Mulliken charges =   0.00000

 Dipole moment (field-independent basis, Debye):
    X=              0.9818    Y=              1.6201    Z=              0.1642  Tot=              1.9015
 Quadrupole moment (field-independent basis, Debye-Ang):
   XX=            -12.9798   YY=            -11.6440   ZZ=            -13.8849
   XY=             -2.5375   XZ=             -0.0235   YZ=              0.1941

 Normal termination of Gaussian 09 at Wed Aug 26 13:45:39 2020.
