 Gaussian 09, Revision D.01,
 Gaussian 09:  ES64L-G09RevD.01 24-Apr-2013

 --------------------
 #p B2PLYPD3/Def2QZVP
 --------------------

 --------
 methanol
 --------
 Symbolic Z-matrix:
 Charge =  0 Multiplicity = 1

                         Standard orientation:
 ---------------------------------------------------------------------
 Center     Atomic      Atomic             Coordinates (Angstroms)
 Number     Number       Type             X           Y           Z
 ---------------------------------------------------------------------
      1          6           0       -0.647490   -0.001712    0.006328
      2          8           0        0.742757   -0.077497   -0.040607
      3          1           0       -1.029957    1.004226   -0.600504
      4          1           0       -1.038894    0.048934    1.079240
      5          1           0       -1.100630   -0.908013   -0.443745
      6          1           0        1.112363    0.485095    0.251896
 ---------------------------------------------------------------------

 SCF Done:  E(RB2PLYPD3) =  -115.458133640     A.U. after   10 cycles
 E2(B2PLYPD3) =    -0.1441760594D+00 E(B2PLYPD3) =    -0.11560230969891D+03

 The electronic state is 1-A.
 Alpha  occ. eigenvalues --  -19.70485 -10.68308  -1.23500  -0.81205  -0.61656
 Alpha  occ. eigenvalues --   -0.51570  -0.50980  -0.40582  -0.35424
 Alpha virt. eigenvalues --    0.05335   0.09025   0.11651   0.12358   0.14530
 Alpha virt. eigenvalues --    0.17141   0.17849   0.28603   0.32199   0.33901
 Alpha virt. eigenvalues --    0.36084   0.38324   0.39573   0.40709   0.42669

 Mulliken charges:
               1
     1  C    0.052355
     2  O   -0.268669
     3  H    0.029385
     4  H    0.046406
     5  H    0.085677
     6  H    0.054846
 Sum of Mulliken charges =   0.00000

 Dipole moment (field-independent basis, Debye):
    X=             -0.7438    Y=              0.9696    Z=              0.6266  Tot=              1.3733
 Quadrupole moment (field-independent basis, Debye-Ang):
   XX=            -13.0034   YY=            -12.8263   ZZ=            -13.5286
   XY=              1.9667   XZ=              0.8416   YZ=              0.4160

 Normal termination of Gaussian 09 at Wed Aug 26 11:02:37 2020.
