 Gaussian 09, Revision D.01,
 Gaussian 09:  ES64L-G09RevD.01 24-Apr-2013

 --------------------
 #p B2PLYPD3/Def2QZVP
 --------------------

 --------
 methanol
 --------
 Symbolic Z-matrix:
 Charge =  0 Multiplicity = 1

                         Standard orientation:
 ---------------------------------------------------------------------
 Center     Atomic      Atomic             Coordinates (Angstroms)
 Number     Number       Type             X           Y           Z
 ---------------------------------------------------------------------
      1          6           0       -0.669758    0.035801   -0.002370
      2          8           0        0.733059   -0.205500   -0.005669
      3          1           0       -0.984312    0.491494   -0.769537
      4          1           0       -0.856045    0.477250    0.822321
      5          1           0       -1.167748   -0.732306    0.016179
      6          1           0        1.162177    1.192761   -0.009384
 ---------------------------------------------------------------------

 SCF Done:  E(RB2PLYPD3) =  -115.390095718     A.U. after   11 cycles
 E2(B2PLYPD3) =    -0.1565906688D+00 E(B2PLYPD3) =    -0.11554668638680D+03

 The electronic state is 1-A.
 Alpha  occ. eigenvalues --  -19.75276 -10.59935  -1.11513  -0.81724  -0.55471
 Alpha  occ. eigenvalues --   -0.54642  -0.49002  -0.38808  -0.35353
 Alpha virt. eigenvalues --   -0.02598   0.07583   0.12691   0.12892   0.14237
 Alpha virt. eigenvalues --    0.18214   0.18467   0.21954   0.29460   0.32866
 Alpha virt. eigenvalues --    0.33922   0.39665   0.40604   0.44521   0.44798

 Mulliken charges:
               1
     1  C    0.110569
     2  O   -0.479778
     3  H    0.040008
     4  H    0.047003
     5  H    0.055719
     6  H    0.226478
 Sum of Mulliken charges =   0.00000

 Dipole moment (field-independent basis, Debye):
    X=             -1.2718    Y=              1.7405    Z=              0.0032  Tot=              2.1557
 Quadrupole moment (field-independent basis, Debye-Ang):
   XX=            -13.1781   YY=            -11.3353   ZZ=            -13.6863
   XY=              2.5334   XZ=              0.1054   YZ=             -0.0244

 Normal termination of Gaussian 09 at Wed Aug 26 19:45:03 2020.
