 Gaussian 09, Revision D.01,
 Gaussian 09:  ES64L-G09RevD.01 24-Apr-2013

 --------------------
 #p B2PLYPD3/Def2QZVP
 --------------------

 --------
 methanol
 --------
 Symbolic Z-matrix:
 Charge =  0 Multiplicity = 1

                         Standard orientation:
 ---------------------------------------------------------------------
 Center     Atomic      Atomic             Coordinates (Angstroms)
 Number     Number       Type             X           Y           Z
 ---------------------------------------------------------------------
      1          6           0        0.667214    0.015807    0.004511
      2          8           0       -0.744896   -0.132934   -0.007827
      3          1           0        1.055355    0.453478    0.907002
      4          1           0        1.031280    0.616604   -0.856453
      5          1           0        1.068878   -0.922030   -0.069057
      6          1           0       -1.199629    0.820581    0.054063
 ---------------------------------------------------------------------

 SCF Done:  E(RB2PLYPD3) =  -115.540382322     A.U. after   11 cycles
 E2(B2PLYPD3) =    -0.1488378496D+00 E(B2PLYPD3) =    -0.11568922017135D+03

 The electronic state is 1-A.
 Alpha  occ. eigenvalues --  -19.73297 -10.64774  -1.14303  -0.78682  -0.57349
 Alpha  occ. eigenvalues --   -0.51367  -0.50325  -0.40809  -0.35075
 Alpha virt. eigenvalues --    0.04238   0.07864   0.12464   0.12747   0.14890
 Alpha virt. eigenvalues --    0.17250   0.18323   0.29065   0.31543   0.33359
 Alpha virt. eigenvalues --    0.33967   0.38680   0.40477   0.41003   0.43644

 Mulliken charges:
               1
     1  C    0.072847
     2  O   -0.483690
     3  H    0.047579
     4  H    0.041842
     5  H    0.073212
     6  H    0.248210
 Sum of Mulliken charges =   0.00000

 Dipole moment (field-independent basis, Debye):
    X=              0.8234    Y=              1.5209    Z=              0.1297  Tot=              1.7344
 Quadrupole moment (field-independent basis, Debye-Ang):
   XX=            -12.7893   YY=            -12.1655   ZZ=            -13.8646
   XY=             -2.4560   XZ=             -0.0936   YZ=              0.0984

 Normal termination of Gaussian 09 at Thu Aug 27 00:14:55 2020.
