 Gaussian 09, Revision D.01,
 Gaussian 09:  ES64L-G09RevD.01 24-Apr-2013

 --------------------
 #p B2PLYPD3/Def2QZVP
 --------------------

 --------
 methanol
 --------
 Symbolic Z-matrix:
 Charge =  0 Multiplicity = 1

                         Standard orientation:
 ---------------------------------------------------------------------
 Center     Atomic      Atomic             Coordinates (Angstroms)
 Number     Number       Type             X           Y           Z
 ---------------------------------------------------------------------
      1          6           0       -0.677846    0.009664   -0.012227
      2          8           0        0.737515   -0.169888   -0.012247
      3          1           0       -1.140322    0.485270   -0.766622
      4          1           0       -0.938497    0.587647    0.786085
      5          1           0       -0.944865   -0.877930    0.138025
      6          1           0        1.190641    1.106132    0.013849
 ---------------------------------------------------------------------

 SCF Done:  E(RB2PLYPD3) =  -115.444879967     A.U. after   11 cycles
 E2(B2PLYPD3) =    -0.1549720974D+00 E(B2PLYPD3) =    -0.11559985206439D+03

 The electronic state is 1-A.
 Alpha  occ. eigenvalues --  -19.75032 -10.61847  -1.11904  -0.79865  -0.57365
 Alpha  occ. eigenvalues --   -0.51856  -0.48305  -0.40380  -0.34889
 Alpha virt. eigenvalues --   -0.00336   0.07601   0.12480   0.13027   0.14896
 Alpha virt. eigenvalues --    0.16886   0.18275   0.23090   0.29585   0.32801
 Alpha virt. eigenvalues --    0.34671   0.37951   0.40101   0.42546   0.45006

 Mulliken charges:
               1
     1  C    0.087919
     2  O   -0.483423
     3  H    0.045815
     4  H    0.034933
     5  H    0.080050
     6  H    0.234706
 Sum of Mulliken charges =   0.00000

 Dipole moment (field-independent basis, Debye):
    X=             -1.0992    Y=              1.7104    Z=              0.0763  Tot=              2.0346
 Quadrupole moment (field-independent basis, Debye-Ang):
   XX=            -13.2064   YY=            -11.2453   ZZ=            -14.0747
   XY=              2.2529   XZ=              0.1572   YZ=             -0.0710

 Normal termination of Gaussian 09 at Wed Aug 26 18:44:10 2020.
