 Gaussian 09, Revision D.01,
 Gaussian 09:  ES64L-G09RevD.01 24-Apr-2013

 --------------------
 #p B2PLYPD3/Def2QZVP
 --------------------

 --------
 methanol
 --------
 Symbolic Z-matrix:
 Charge =  0 Multiplicity = 1

                         Standard orientation:
 ---------------------------------------------------------------------
 Center     Atomic      Atomic             Coordinates (Angstroms)
 Number     Number       Type             X           Y           Z
 ---------------------------------------------------------------------
      1          6           0        0.666861   -0.009786    0.012953
      2          8           0       -0.747406    0.111516   -0.012475
      3          1           0        1.002389   -0.681763   -0.867856
      4          1           0        1.008575   -0.437976    0.944895
      5          1           0        1.088863    0.973598   -0.122653
      6          1           0       -1.121747   -0.687271    0.067696
 ---------------------------------------------------------------------

 SCF Done:  E(RB2PLYPD3) =  -115.545622272     A.U. after   10 cycles
 E2(B2PLYPD3) =    -0.1460541616D+00 E(B2PLYPD3) =    -0.11569167643406D+03

 The electronic state is 1-A.
 Alpha  occ. eigenvalues --  -19.71733 -10.66269  -1.17807  -0.79217  -0.59527
 Alpha  occ. eigenvalues --   -0.51549  -0.50546  -0.41165  -0.35306
 Alpha virt. eigenvalues --    0.05222   0.08567   0.12120   0.12460   0.14681
 Alpha virt. eigenvalues --    0.17298   0.17859   0.29095   0.32879   0.33339
 Alpha virt. eigenvalues --    0.36563   0.39022   0.39960   0.40700   0.43707

 Mulliken charges:
               1
     1  C    0.070113
     2  O   -0.427509
     3  H    0.037700
     4  H    0.051939
     5  H    0.077134
     6  H    0.190622
 Sum of Mulliken charges =   0.00000

 Dipole moment (field-independent basis, Debye):
    X=              0.8849    Y=             -1.3845    Z=              0.2086  Tot=              1.6564
 Quadrupole moment (field-independent basis, Debye-Ang):
   XX=            -13.0961   YY=            -12.3268   ZZ=            -13.7034
   XY=              2.2548   XZ=             -0.1308   YZ=             -0.1810

 Normal termination of Gaussian 09 at Wed Aug 26 10:39:17 2020.
