 Gaussian 09, Revision D.01,
 Gaussian 09:  ES64L-G09RevD.01 24-Apr-2013

 --------------------
 #p B2PLYPD3/Def2QZVP
 --------------------

 --------
 methanol
 --------
 Symbolic Z-matrix:
 Charge =  0 Multiplicity = 1

                         Standard orientation:
 ---------------------------------------------------------------------
 Center     Atomic      Atomic             Coordinates (Angstroms)
 Number     Number       Type             X           Y           Z
 ---------------------------------------------------------------------
      1          6           0       -0.637905   -0.000294   -0.019544
      2          8           0        0.743107   -0.166709   -0.002267
      3          1           0       -1.006929    0.606428   -0.778775
      4          1           0       -1.110952    0.443722    0.848518
      5          1           0       -1.104399   -0.804944   -0.011147
      6          1           0        1.104851    1.090231    0.076804
 ---------------------------------------------------------------------

 SCF Done:  E(RB2PLYPD3) =  -115.458295072     A.U. after   11 cycles
 E2(B2PLYPD3) =    -0.1537312423D+00 E(B2PLYPD3) =    -0.11561202631389D+03

 The electronic state is 1-A.
 Alpha  occ. eigenvalues --  -19.75427 -10.62576  -1.13507  -0.79839  -0.55998
 Alpha  occ. eigenvalues --   -0.51837  -0.50180  -0.40394  -0.34680
 Alpha virt. eigenvalues --    0.00032   0.07449   0.12692   0.13028   0.14934
 Alpha virt. eigenvalues --    0.17956   0.18734   0.23626   0.29663   0.33119
 Alpha virt. eigenvalues --    0.35179   0.38186   0.40417   0.42031   0.43469

 Mulliken charges:
               1
     1  C    0.088047
     2  O   -0.471255
     3  H    0.034019
     4  H    0.024464
     5  H    0.068862
     6  H    0.255864
 Sum of Mulliken charges =   0.00000

 Dipole moment (field-independent basis, Debye):
    X=             -0.9949    Y=              1.6785    Z=              0.0788  Tot=              1.9528
 Quadrupole moment (field-independent basis, Debye-Ang):
   XX=            -13.2437   YY=            -11.4493   ZZ=            -14.1692
   XY=              2.4569   XZ=              0.0910   YZ=             -0.0039

 Normal termination of Gaussian 09 at Wed Aug 26 23:33:14 2020.
