 Gaussian 09, Revision D.01,
 Gaussian 09:  ES64L-G09RevD.01 24-Apr-2013

 --------------------
 #p B2PLYPD3/Def2QZVP
 --------------------

 --------
 methanol
 --------
 Symbolic Z-matrix:
 Charge =  0 Multiplicity = 1

                         Standard orientation:
 ---------------------------------------------------------------------
 Center     Atomic      Atomic             Coordinates (Angstroms)
 Number     Number       Type             X           Y           Z
 ---------------------------------------------------------------------
      1          6           0       -0.670975   -0.010836    0.009801
      2          8           0        0.759638    0.099854   -0.020802
      3          1           0       -1.024857   -0.378565    0.978639
      4          1           0       -1.073389   -0.716593   -0.835765
      5          1           0       -1.075835    1.006670   -0.141601
      6          1           0        1.122827   -0.645331    0.106340
 ---------------------------------------------------------------------

 SCF Done:  E(RB2PLYPD3) =  -115.532238796     A.U. after   10 cycles
 E2(B2PLYPD3) =    -0.1457683184D+00 E(B2PLYPD3) =    -0.11567800711480D+03

 The electronic state is 1-A.
 Alpha  occ. eigenvalues --  -19.71451 -10.67112  -1.18749  -0.79453  -0.59978
 Alpha  occ. eigenvalues --   -0.51040  -0.50044  -0.41305  -0.35688
 Alpha virt. eigenvalues --    0.05341   0.08566   0.12017   0.12295   0.14695
 Alpha virt. eigenvalues --    0.17122   0.18001   0.28965   0.32563   0.33112
 Alpha virt. eigenvalues --    0.36896   0.39053   0.39148   0.40263   0.42980

 Mulliken charges:
               1
     1  C    0.064269
     2  O   -0.396161
     3  H    0.054801
     4  H    0.043057
     5  H    0.077443
     6  H    0.156592
 Sum of Mulliken charges =   0.00000

 Dipole moment (field-independent basis, Debye):
    X=             -0.9334    Y=             -1.3259    Z=              0.3067  Tot=              1.6503
 Quadrupole moment (field-independent basis, Debye-Ang):
   XX=            -13.0361   YY=            -12.4223   ZZ=            -13.6989
   XY=             -2.1199   XZ=              0.2921   YZ=             -0.2003

 Normal termination of Gaussian 09 at Wed Aug 26 22:19:35 2020.
