 Gaussian 09, Revision D.01,
 Gaussian 09:  ES64L-G09RevD.01 24-Apr-2013

 --------------------
 #p B2PLYPD3/Def2QZVP
 --------------------

 --------
 methanol
 --------
 Symbolic Z-matrix:
 Charge =  0 Multiplicity = 1

                         Standard orientation:
 ---------------------------------------------------------------------
 Center     Atomic      Atomic             Coordinates (Angstroms)
 Number     Number       Type             X           Y           Z
 ---------------------------------------------------------------------
      1          6           0        0.662390   -0.021201    0.005987
      2          8           0       -0.741543    0.100215   -0.011288
      3          1           0        1.018199   -0.675857   -0.856974
      4          1           0        0.994279   -0.437559    0.965499
      5          1           0        1.071177    1.045158   -0.108842
      6          1           0       -1.125654   -0.606256    0.054697
 ---------------------------------------------------------------------

 SCF Done:  E(RB2PLYPD3) =  -115.519367250     A.U. after   10 cycles
 E2(B2PLYPD3) =    -0.1448778311D+00 E(B2PLYPD3) =    -0.11566424508153D+03

 The electronic state is 1-A.
 Alpha  occ. eigenvalues --  -19.70826 -10.67065  -1.20269  -0.79899  -0.60746
 Alpha  occ. eigenvalues --   -0.51955  -0.49998  -0.40685  -0.35646
 Alpha virt. eigenvalues --    0.05383   0.08902   0.12040   0.12195   0.14723
 Alpha virt. eigenvalues --    0.17006   0.17816   0.28986   0.33042   0.33520
 Alpha virt. eigenvalues --    0.37344   0.38655   0.39869   0.40524   0.42916

 Mulliken charges:
               1
     1  C    0.062465
     2  O   -0.360663
     3  H    0.045969
     4  H    0.053320
     5  H    0.072588
     6  H    0.126320
 Sum of Mulliken charges =   0.00000

 Dipole moment (field-independent basis, Debye):
    X=              0.8142    Y=             -1.3477    Z=              0.1663  Tot=              1.5833
 Quadrupole moment (field-independent basis, Debye-Ang):
   XX=            -13.0610   YY=            -12.4396   ZZ=            -13.6371
   XY=              2.0637   XZ=             -0.1626   YZ=             -0.0976

 Normal termination of Gaussian 09 at Thu Aug 27 00:09:09 2020.
