 Gaussian 09, Revision D.01,
 Gaussian 09:  ES64L-G09RevD.01 24-Apr-2013

 --------------------
 #p B2PLYPD3/Def2QZVP
 --------------------

 --------
 methanol
 --------
 Symbolic Z-matrix:
 Charge =  0 Multiplicity = 1

                         Standard orientation:
 ---------------------------------------------------------------------
 Center     Atomic      Atomic             Coordinates (Angstroms)
 Number     Number       Type             X           Y           Z
 ---------------------------------------------------------------------
      1          6           0        0.637513   -0.001037   -0.003058
      2          8           0       -0.723518   -0.184719    0.002842
      3          1           0        1.099689    0.474788    0.820451
      4          1           0        0.919745    0.586369   -0.820152
      5          1           0        1.117706   -0.711334   -0.054659
      6          1           0       -1.174074    1.134151    0.049969
 ---------------------------------------------------------------------

 SCF Done:  E(RB2PLYPD3) =  -115.406794953     A.U. after   11 cycles
 E2(B2PLYPD3) =    -0.1548012573D+00 E(B2PLYPD3) =    -0.11556159621004D+03

 The electronic state is 1-A.
 Alpha  occ. eigenvalues --  -19.75413 -10.61306  -1.13602  -0.80935  -0.55530
 Alpha  occ. eigenvalues --   -0.52365  -0.51139  -0.39388  -0.34492
 Alpha virt. eigenvalues --   -0.01725   0.07508   0.12796   0.13152   0.14794
 Alpha virt. eigenvalues --    0.18338   0.18549   0.22466   0.29616   0.32776
 Alpha virt. eigenvalues --    0.35309   0.38737   0.40670   0.42391   0.44733

 Mulliken charges:
               1
     1  C    0.048406
     2  O   -0.465804
     3  H    0.030417
     4  H    0.031595
     5  H    0.103909
     6  H    0.251477
 Sum of Mulliken charges =   0.00000

 Dipole moment (field-independent basis, Debye):
    X=              0.9194    Y=              1.6750    Z=              0.0311  Tot=              1.9110
 Quadrupole moment (field-independent basis, Debye-Ang):
   XX=            -13.0053   YY=            -11.4222   ZZ=            -14.0437
   XY=             -2.7021   XZ=              0.0072   YZ=              0.0482

 Normal termination of Gaussian 09 at Wed Aug 26 22:23:56 2020.
