 Gaussian 09, Revision D.01,
 Gaussian 09:  ES64L-G09RevD.01 24-Apr-2013

 --------------------
 #p B2PLYPD3/Def2QZVP
 --------------------

 --------
 methanol
 --------
 Symbolic Z-matrix:
 Charge =  0 Multiplicity = 1

                         Standard orientation:
 ---------------------------------------------------------------------
 Center     Atomic      Atomic             Coordinates (Angstroms)
 Number     Number       Type             X           Y           Z
 ---------------------------------------------------------------------
      1          6           0       -0.656482   -0.015620    0.004037
      2          8           0        0.745736    0.096479   -0.012223
      3          1           0       -1.000179   -0.497793    0.968947
      4          1           0       -1.065558   -0.591784   -0.920479
      5          1           0       -1.065494    1.023135   -0.022773
      6          1           0        1.104236   -0.611670    0.047865
 ---------------------------------------------------------------------

 SCF Done:  E(RB2PLYPD3) =  -115.513190085     A.U. after   10 cycles
 E2(B2PLYPD3) =    -0.1448817114D+00 E(B2PLYPD3) =    -0.11565807179652D+03

 The electronic state is 1-A.
 Alpha  occ. eigenvalues --  -19.71012 -10.67357  -1.20949  -0.79911  -0.60731
 Alpha  occ. eigenvalues --   -0.51558  -0.50520  -0.40863  -0.35689
 Alpha virt. eigenvalues --    0.05394   0.08850   0.11967   0.12287   0.14601
 Alpha virt. eigenvalues --    0.17089   0.18026   0.28800   0.32978   0.33612
 Alpha virt. eigenvalues --    0.36895   0.39190   0.39591   0.40060   0.42992

 Mulliken charges:
               1
     1  C    0.056262
     2  O   -0.342830
     3  H    0.048114
     4  H    0.045524
     5  H    0.075606
     6  H    0.117325
 Sum of Mulliken charges =   0.00000

 Dipole moment (field-independent basis, Debye):
    X=             -0.8253    Y=             -1.2886    Z=              0.1502  Tot=              1.5376
 Quadrupole moment (field-independent basis, Debye-Ang):
   XX=            -13.1133   YY=            -12.5178   ZZ=            -13.6278
   XY=             -2.0878   XZ=              0.1739   YZ=             -0.0783

 Normal termination of Gaussian 09 at Thu Aug 27 00:03:53 2020.
