 Gaussian 09, Revision D.01,
 Gaussian 09:  ES64L-G09RevD.01 24-Apr-2013

 --------------------
 #p B2PLYPD3/Def2QZVP
 --------------------

 --------
 methanol
 --------
 Symbolic Z-matrix:
 Charge =  0 Multiplicity = 1

                         Standard orientation:
 ---------------------------------------------------------------------
 Center     Atomic      Atomic             Coordinates (Angstroms)
 Number     Number       Type             X           Y           Z
 ---------------------------------------------------------------------
      1          6           0       -0.657381   -0.026971   -0.004942
      2          8           0        0.754711    0.096415   -0.016286
      3          1           0       -1.053216   -0.379710    1.005152
      4          1           0       -0.960161   -0.739171   -0.841086
      5          1           0       -1.175738    1.037351   -0.147227
      6          1           0        1.095712   -0.527959    0.143102
 ---------------------------------------------------------------------

 SCF Done:  E(RB2PLYPD3) =  -115.455233369     A.U. after   10 cycles
 E2(B2PLYPD3) =    -0.1443505246D+00 E(B2PLYPD3) =    -0.11559958389313D+03

 The electronic state is 1-A.
 Alpha  occ. eigenvalues --  -19.70285 -10.68291  -1.23195  -0.80472  -0.61511
 Alpha  occ. eigenvalues --   -0.52072  -0.49773  -0.40450  -0.36131
 Alpha virt. eigenvalues --    0.05341   0.09012   0.11904   0.11956   0.14349
 Alpha virt. eigenvalues --    0.17312   0.17890   0.28676   0.32454   0.33361
 Alpha virt. eigenvalues --    0.35553   0.38451   0.39019   0.40468   0.43137

 Mulliken charges:
               1
     1  C    0.056465
     2  O   -0.278382
     3  H    0.048841
     4  H    0.054451
     5  H    0.070339
     6  H    0.048287
 Sum of Mulliken charges =   0.00000

 Dipole moment (field-independent basis, Debye):
    X=             -0.9109    Y=             -1.2555    Z=              0.3269  Tot=              1.5852
 Quadrupole moment (field-independent basis, Debye-Ang):
   XX=            -13.0322   YY=            -12.6758   ZZ=            -13.5667
   XY=             -2.0109   XZ=              0.3620   YZ=             -0.1144

 Normal termination of Gaussian 09 at Wed Aug 26 14:38:14 2020.
