 Gaussian 09, Revision D.01,
 Gaussian 09:  ES64L-G09RevD.01 24-Apr-2013

 --------------------
 #p B2PLYPD3/Def2QZVP
 --------------------

 --------
 methanol
 --------
 Symbolic Z-matrix:
 Charge =  0 Multiplicity = 1

                         Standard orientation:
 ---------------------------------------------------------------------
 Center     Atomic      Atomic             Coordinates (Angstroms)
 Number     Number       Type             X           Y           Z
 ---------------------------------------------------------------------
      1          6           0        0.669048   -0.022276    0.008766
      2          8           0       -0.748133    0.127528   -0.006110
      3          1           0        1.026565   -0.563934   -0.872638
      4          1           0        0.985948   -0.512127    0.878615
      5          1           0        1.082105    0.974404   -0.024073
      6          1           0       -1.123846   -0.784914    0.014378
 ---------------------------------------------------------------------

 SCF Done:  E(RB2PLYPD3) =  -115.550519796     A.U. after   10 cycles
 E2(B2PLYPD3) =    -0.1476433686D+00 E(B2PLYPD3) =    -0.11569816316478D+03

 The electronic state is 1-A.
 Alpha  occ. eigenvalues --  -19.72658 -10.65011  -1.15475  -0.78795  -0.58304
 Alpha  occ. eigenvalues --   -0.52237  -0.49605  -0.41265  -0.35374
 Alpha virt. eigenvalues --    0.04794   0.08241   0.12421   0.12450   0.14832
 Alpha virt. eigenvalues --    0.17343   0.18034   0.29166   0.33021   0.33385
 Alpha virt. eigenvalues --    0.34544   0.38962   0.39996   0.41494   0.44477

 Mulliken charges:
               1
     1  C    0.075579
     2  O   -0.469953
     3  H    0.044890
     4  H    0.050790
     5  H    0.069082
     6  H    0.229612
 Sum of Mulliken charges =   0.00000

 Dipole moment (field-independent basis, Debye):
    X=              0.9442    Y=             -1.5462    Z=              0.0734  Tot=              1.8132
 Quadrupole moment (field-independent basis, Debye-Ang):
   XX=            -13.1322   YY=            -12.1051   ZZ=            -13.7487
   XY=              2.2574   XZ=             -0.0365   YZ=             -0.0672

 Normal termination of Gaussian 09 at Wed Aug 26 23:36:27 2020.
