 Gaussian 09, Revision D.01,
 Gaussian 09:  ES64L-G09RevD.01 24-Apr-2013

 --------------------
 #p B2PLYPD3/Def2QZVP
 --------------------

 --------
 methanol
 --------
 Symbolic Z-matrix:
 Charge =  0 Multiplicity = 1

                         Standard orientation:
 ---------------------------------------------------------------------
 Center     Atomic      Atomic             Coordinates (Angstroms)
 Number     Number       Type             X           Y           Z
 ---------------------------------------------------------------------
      1          6           0        0.652529   -0.004434    0.024645
      2          8           0       -0.753592   -0.019915   -0.087580
      3          1           0        0.827564   -0.589391    1.011950
      4          1           0        1.134562    1.156487    0.027981
      5          1           0        1.270997   -0.566309   -0.852978
      6          1           0       -1.119559    0.185139    0.365818
 ---------------------------------------------------------------------

 SCF Done:  E(RB2PLYPD3) =  -115.244173488     A.U. after   11 cycles
 E2(B2PLYPD3) =    -0.1440416449D+00 E(B2PLYPD3) =    -0.11538821513320D+03

 The electronic state is 1-A.
 Alpha  occ. eigenvalues --  -19.69118 -10.70446  -1.28044  -0.82872  -0.62060
 Alpha  occ. eigenvalues --   -0.51932  -0.50223  -0.39211  -0.36020
 Alpha virt. eigenvalues --    0.05020   0.09041   0.11309   0.11992   0.13645
 Alpha virt. eigenvalues --    0.17480   0.17682   0.28133   0.31597   0.32058
 Alpha virt. eigenvalues --    0.34280   0.35281   0.38628   0.40916   0.43922

 Mulliken charges:
               1
     1  C    0.050299
     2  O   -0.170633
     3  H    0.053306
     4  H    0.040636
     5  H    0.081447
     6  H   -0.055055
 Sum of Mulliken charges =   0.00000

 Dipole moment (field-independent basis, Debye):
    X=              0.8543    Y=              0.3217    Z=              1.0121  Tot=              1.3629
 Quadrupole moment (field-independent basis, Debye-Ang):
   XX=            -12.7916   YY=            -13.4602   ZZ=            -13.1078
   XY=             -0.7891   XZ=             -1.9843   YZ=              0.1644

 Normal termination of Gaussian 09 at Wed Aug 26 21:56:42 2020.
