 Gaussian 09, Revision D.01,
 Gaussian 09:  ES64L-G09RevD.01 24-Apr-2013

 --------------------
 #p B2PLYPD3/Def2QZVP
 --------------------

 --------
 methanol
 --------
 Symbolic Z-matrix:
 Charge =  0 Multiplicity = 1

                         Standard orientation:
 ---------------------------------------------------------------------
 Center     Atomic      Atomic             Coordinates (Angstroms)
 Number     Number       Type             X           Y           Z
 ---------------------------------------------------------------------
      1          6           0        0.679254   -0.003561    0.012217
      2          8           0       -0.742366   -0.112658   -0.029042
      3          1           0        1.012152    0.208293    0.981633
      4          1           0        1.051639    0.820930   -0.739261
      5          1           0        0.921703   -0.904351   -0.260254
      6          1           0       -1.122088    0.797760    0.176919
 ---------------------------------------------------------------------

 SCF Done:  E(RB2PLYPD3) =  -115.532880604     A.U. after   10 cycles
 E2(B2PLYPD3) =    -0.1481773222D+00 E(B2PLYPD3) =    -0.11568105792600D+03

 The electronic state is 1-A.
 Alpha  occ. eigenvalues --  -19.72634 -10.64625  -1.15045  -0.79267  -0.58304
 Alpha  occ. eigenvalues --   -0.51426  -0.50092  -0.41650  -0.35011
 Alpha virt. eigenvalues --    0.04599   0.08253   0.12105   0.12729   0.14852
 Alpha virt. eigenvalues --    0.16697   0.18155   0.29045   0.32686   0.33358
 Alpha virt. eigenvalues --    0.34314   0.37333   0.40461   0.41284   0.44353

 Mulliken charges:
               1
     1  C    0.067271
     2  O   -0.473542
     3  H    0.054910
     4  H    0.034251
     5  H    0.083707
     6  H    0.233403
 Sum of Mulliken charges =   0.00000

 Dipole moment (field-independent basis, Debye):
    X=              0.9189    Y=              1.3953    Z=              0.4253  Tot=              1.7240
 Quadrupole moment (field-independent basis, Debye-Ang):
   XX=            -13.3260   YY=            -12.0191   ZZ=            -13.6388
   XY=             -2.2042   XZ=             -0.3767   YZ=              0.3592

 Normal termination of Gaussian 09 at Wed Aug 26 23:52:12 2020.
