 Gaussian 09, Revision D.01,
 Gaussian 09:  ES64L-G09RevD.01 24-Apr-2013

 --------------------
 #p B2PLYPD3/Def2QZVP
 --------------------

 --------
 methanol
 --------
 Symbolic Z-matrix:
 Charge =  0 Multiplicity = 1

                         Standard orientation:
 ---------------------------------------------------------------------
 Center     Atomic      Atomic             Coordinates (Angstroms)
 Number     Number       Type             X           Y           Z
 ---------------------------------------------------------------------
      1          6           0        0.660521   -0.015153    0.002081
      2          8           0       -0.750682    0.113995   -0.000510
      3          1           0        1.037240   -0.573306   -0.891815
      4          1           0        0.999372   -0.515084    0.939605
      5          1           0        1.106043    0.973653   -0.039491
      6          1           0       -1.100326   -0.706301   -0.016704
 ---------------------------------------------------------------------

 SCF Done:  E(RB2PLYPD3) =  -115.548090091     A.U. after   10 cycles
 E2(B2PLYPD3) =    -0.1462144306D+00 E(B2PLYPD3) =    -0.11569430452170D+03

 The electronic state is 1-A.
 Alpha  occ. eigenvalues --  -19.72020 -10.66236  -1.17945  -0.79001  -0.59458
 Alpha  occ. eigenvalues --   -0.51742  -0.50359  -0.41193  -0.35509
 Alpha virt. eigenvalues --    0.05219   0.08502   0.12139   0.12512   0.14645
 Alpha virt. eigenvalues --    0.17453   0.18032   0.29011   0.32965   0.33543
 Alpha virt. eigenvalues --    0.36426   0.39033   0.40102   0.40314   0.43887

 Mulliken charges:
               1
     1  C    0.066305
     2  O   -0.425566
     3  H    0.044290
     4  H    0.047815
     5  H    0.072895
     6  H    0.194261
 Sum of Mulliken charges =   0.00000

 Dipole moment (field-independent basis, Debye):
    X=              0.9110    Y=             -1.4174    Z=             -0.0311  Tot=              1.6852
 Quadrupole moment (field-independent basis, Debye-Ang):
   XX=            -13.1367   YY=            -12.3427   ZZ=            -13.7088
   XY=              2.2296   XZ=             -0.0123   YZ=              0.0070

 Normal termination of Gaussian 09 at Thu Aug 27 00:15:06 2020.
