 Gaussian 09, Revision D.01,
 Gaussian 09:  ES64L-G09RevD.01 24-Apr-2013

 --------------------
 #p B2PLYPD3/Def2QZVP
 --------------------

 --------
 methanol
 --------
 Symbolic Z-matrix:
 Charge =  0 Multiplicity = 1

                         Standard orientation:
 ---------------------------------------------------------------------
 Center     Atomic      Atomic             Coordinates (Angstroms)
 Number     Number       Type             X           Y           Z
 ---------------------------------------------------------------------
      1          6           0       -0.674679   -0.014392    0.003318
      2          8           0        0.757964    0.097951   -0.006358
      3          1           0       -1.051681   -0.496213    0.933995
      4          1           0       -1.015329   -0.634083   -0.892887
      5          1           0       -1.082697    1.041589   -0.062790
      6          1           0        1.134070   -0.608550    0.052639
 ---------------------------------------------------------------------

 SCF Done:  E(RB2PLYPD3) =  -115.516956678     A.U. after   10 cycles
 E2(B2PLYPD3) =    -0.1451997849D+00 E(B2PLYPD3) =    -0.11566215646326D+03

 The electronic state is 1-A.
 Alpha  occ. eigenvalues --  -19.70842 -10.67422  -1.19645  -0.79839  -0.60417
 Alpha  occ. eigenvalues --   -0.51215  -0.49838  -0.41114  -0.35744
 Alpha virt. eigenvalues --    0.05390   0.08748   0.12072   0.12109   0.14681
 Alpha virt. eigenvalues --    0.17043   0.17798   0.29017   0.32294   0.33229
 Alpha virt. eigenvalues --    0.37403   0.38709   0.39697   0.39786   0.42508

 Mulliken charges:
               1
     1  C    0.064802
     2  O   -0.367201
     3  H    0.053140
     4  H    0.049146
     5  H    0.078013
     6  H    0.122101
 Sum of Mulliken charges =   0.00000

 Dipole moment (field-independent basis, Debye):
    X=             -0.9346    Y=             -1.3376    Z=              0.1390  Tot=              1.6377
 Quadrupole moment (field-independent basis, Debye-Ang):
   XX=            -12.9782   YY=            -12.4099   ZZ=            -13.7001
   XY=             -2.0822   XZ=              0.0955   YZ=             -0.0900

 Normal termination of Gaussian 09 at Wed Aug 26 10:21:13 2020.
