 Gaussian 09, Revision D.01,
 Gaussian 09:  ES64L-G09RevD.01 24-Apr-2013

 --------------------
 #p B2PLYPD3/Def2QZVP
 --------------------

 --------
 methanol
 --------
 Symbolic Z-matrix:
 Charge =  0 Multiplicity = 1

                         Standard orientation:
 ---------------------------------------------------------------------
 Center     Atomic      Atomic             Coordinates (Angstroms)
 Number     Number       Type             X           Y           Z
 ---------------------------------------------------------------------
      1          6           0        0.686993    0.013937   -0.011981
      2          8           0       -0.749505   -0.156334   -0.000541
      3          1           0        0.990426    0.516934    0.887450
      4          1           0        1.124087    0.555285   -0.773933
      5          1           0        1.014250   -0.886773   -0.004252
      6          1           0       -1.254680    0.981602   -0.033052
 ---------------------------------------------------------------------

 SCF Done:  E(RB2PLYPD3) =  -115.486468849     A.U. after   11 cycles
 E2(B2PLYPD3) =    -0.1527770010D+00 E(B2PLYPD3) =    -0.11563924584969D+03

 The electronic state is 1-A.
 Alpha  occ. eigenvalues --  -19.74419 -10.63206  -1.11512  -0.79414  -0.56197
 Alpha  occ. eigenvalues --   -0.51213  -0.48929  -0.40870  -0.34866
 Alpha virt. eigenvalues --    0.01751   0.07526   0.12568   0.12873   0.14804
 Alpha virt. eigenvalues --    0.17042   0.18381   0.25457   0.29400   0.32699
 Alpha virt. eigenvalues --    0.34288   0.38181   0.40098   0.41617   0.44082

 Mulliken charges:
               1
     1  C    0.080723
     2  O   -0.501406
     3  H    0.044749
     4  H    0.047862
     5  H    0.077467
     6  H    0.250605
 Sum of Mulliken charges =   0.00000

 Dipole moment (field-independent basis, Debye):
    X=              0.9688    Y=              1.6446    Z=             -0.0742  Tot=              1.9102
 Quadrupole moment (field-independent basis, Debye-Ang):
   XX=            -12.7462   YY=            -11.6953   ZZ=            -14.0299
   XY=             -2.4968   XZ=             -0.0803   YZ=             -0.0884

 Normal termination of Gaussian 09 at Wed Aug 26 22:59:29 2020.
