 Gaussian 09, Revision D.01,
 Gaussian 09:  ES64L-G09RevD.01 24-Apr-2013

 --------------------
 #p B2PLYPD3/Def2QZVP
 --------------------

 --------
 methanol
 --------
 Symbolic Z-matrix:
 Charge =  0 Multiplicity = 1

                         Standard orientation:
 ---------------------------------------------------------------------
 Center     Atomic      Atomic             Coordinates (Angstroms)
 Number     Number       Type             X           Y           Z
 ---------------------------------------------------------------------
      1          6           0        0.663926   -0.016247    0.005895
      2          8           0       -0.752860    0.102982   -0.004605
      3          1           0        1.079881   -0.576452   -0.904333
      4          1           0        1.053356   -0.515076    0.924248
      5          1           0        1.058197    1.027336   -0.031423
      6          1           0       -1.152105   -0.662180    0.012982
 ---------------------------------------------------------------------

 SCF Done:  E(RB2PLYPD3) =  -115.540459807     A.U. after   10 cycles
 E2(B2PLYPD3) =    -0.1460309678D+00 E(B2PLYPD3) =    -0.11568649077494D+03

 The electronic state is 1-A.
 Alpha  occ. eigenvalues --  -19.71783 -10.67016  -1.18344  -0.79191  -0.60026
 Alpha  occ. eigenvalues --   -0.51072  -0.49907  -0.40932  -0.35599
 Alpha virt. eigenvalues --    0.05318   0.08439   0.12192   0.12240   0.14865
 Alpha virt. eigenvalues --    0.17027   0.18134   0.28991   0.33245   0.33319
 Alpha virt. eigenvalues --    0.36979   0.38807   0.39342   0.39912   0.42570

 Mulliken charges:
               1
     1  C    0.060752
     2  O   -0.409309
     3  H    0.045606
     4  H    0.051767
     5  H    0.074444
     6  H    0.176740
 Sum of Mulliken charges =   0.00000

 Dipole moment (field-independent basis, Debye):
    X=              0.8224    Y=             -1.3785    Z=              0.0625  Tot=              1.6064
 Quadrupole moment (field-independent basis, Debye-Ang):
   XX=            -12.9008   YY=            -12.4362   ZZ=            -13.7948
   XY=              2.1378   XZ=             -0.0333   YZ=             -0.0547

 Normal termination of Gaussian 09 at Wed Aug 26 23:59:47 2020.
