 Gaussian 09, Revision D.01,
 Gaussian 09:  ES64L-G09RevD.01 24-Apr-2013

 --------------------
 #p B2PLYPD3/Def2QZVP
 --------------------

 --------
 methanol
 --------
 Symbolic Z-matrix:
 Charge =  0 Multiplicity = 1

                         Standard orientation:
 ---------------------------------------------------------------------
 Center     Atomic      Atomic             Coordinates (Angstroms)
 Number     Number       Type             X           Y           Z
 ---------------------------------------------------------------------
      1          6           0       -0.670209    0.037581   -0.013164
      2          8           0        0.772619   -0.149991    0.002673
      3          1           0       -1.084989    0.506975   -0.770277
      4          1           0       -1.152210    0.518485    0.780503
      5          1           0       -1.088206   -1.013857    0.027118
      6          1           0        1.165705    0.962844    0.020255
 ---------------------------------------------------------------------

 SCF Done:  E(RB2PLYPD3) =  -115.499944978     A.U. after   11 cycles
 E2(B2PLYPD3) =    -0.1524421650D+00 E(B2PLYPD3) =    -0.11565238714272D+03

 The electronic state is 1-A.
 Alpha  occ. eigenvalues --  -19.75024 -10.64391  -1.12275  -0.79460  -0.56190
 Alpha  occ. eigenvalues --   -0.51335  -0.47937  -0.40924  -0.35781
 Alpha virt. eigenvalues --    0.02667   0.07305   0.11896   0.13076   0.15162
 Alpha virt. eigenvalues --    0.17315   0.18547   0.26438   0.29321   0.32801
 Alpha virt. eigenvalues --    0.34353   0.36693   0.39334   0.41886   0.44062

 Mulliken charges:
               1
     1  C    0.079451
     2  O   -0.481047
     3  H    0.053810
     4  H    0.045398
     5  H    0.051837
     6  H    0.250550
 Sum of Mulliken charges =   0.00000

 Dipole moment (field-independent basis, Debye):
    X=             -1.0370    Y=              1.7780    Z=             -0.0097  Tot=              2.0584
 Quadrupole moment (field-independent basis, Debye-Ang):
   XX=            -12.9283   YY=            -11.7690   ZZ=            -14.2192
   XY=              2.1257   XZ=              0.0307   YZ=             -0.0530

 Normal termination of Gaussian 09 at Wed Aug 26 21:48:03 2020.
