 Gaussian 09, Revision D.01,
 Gaussian 09:  ES64L-G09RevD.01 24-Apr-2013

 --------------------
 #p B2PLYPD3/Def2QZVP
 --------------------

 --------
 methanol
 --------
 Symbolic Z-matrix:
 Charge =  0 Multiplicity = 1

                         Standard orientation:
 ---------------------------------------------------------------------
 Center     Atomic      Atomic             Coordinates (Angstroms)
 Number     Number       Type             X           Y           Z
 ---------------------------------------------------------------------
      1          6           0        0.658794    0.077510   -0.009308
      2          8           0       -0.700602   -0.188692   -0.009695
      3          1           0        0.866159    0.357254    0.875788
      4          1           0        0.934134    0.603011   -0.698134
      5          1           0        1.119158   -0.892483   -0.075443
      6          1           0       -1.267402    0.976693    0.031193
 ---------------------------------------------------------------------

 SCF Done:  E(RB2PLYPD3) =  -115.445098896     A.U. after   11 cycles
 E2(B2PLYPD3) =    -0.1523395696D+00 E(B2PLYPD3) =    -0.11559743846519D+03

 The electronic state is 1-A.
 Alpha  occ. eigenvalues --  -19.74056 -10.60999  -1.13372  -0.79718  -0.57519
 Alpha  occ. eigenvalues --   -0.54718  -0.48924  -0.38911  -0.35038
 Alpha virt. eigenvalues --    0.00873   0.07757   0.12523   0.12995   0.14813
 Alpha virt. eigenvalues --    0.17394   0.18399   0.24198   0.29318   0.33394
 Alpha virt. eigenvalues --    0.35424   0.38472   0.40594   0.43738   0.47099

 Mulliken charges:
               1
     1  C    0.086805
     2  O   -0.484093
     3  H    0.055545
     4  H    0.055829
     5  H    0.047055
     6  H    0.238859
 Sum of Mulliken charges =   0.00000

 Dipole moment (field-independent basis, Debye):
    X=              0.8523    Y=              1.7607    Z=              0.0639  Tot=              1.9572
 Quadrupole moment (field-independent basis, Debye-Ang):
   XX=            -12.7998   YY=            -11.8443   ZZ=            -13.6271
   XY=             -2.4790   XZ=             -0.1623   YZ=             -0.0948

 Normal termination of Gaussian 09 at Wed Aug 26 21:09:34 2020.
