 Gaussian 09, Revision D.01,
 Gaussian 09:  ES64L-G09RevD.01 24-Apr-2013

 --------------------
 #p B2PLYPD3/Def2QZVP
 --------------------

 --------
 methanol
 --------
 Symbolic Z-matrix:
 Charge =  0 Multiplicity = 1

                         Standard orientation:
 ---------------------------------------------------------------------
 Center     Atomic      Atomic             Coordinates (Angstroms)
 Number     Number       Type             X           Y           Z
 ---------------------------------------------------------------------
      1          6           0       -0.672373   -0.022334    0.003279
      2          8           0        0.749516    0.108375   -0.002589
      3          1           0       -1.033250   -0.496381    0.932753
      4          1           0       -0.996923   -0.616064   -0.892111
      5          1           0       -1.099783    1.018675   -0.065884
      6          1           0        1.168066   -0.639230    0.026279
 ---------------------------------------------------------------------

 SCF Done:  E(RB2PLYPD3) =  -115.539546165     A.U. after   10 cycles
 E2(B2PLYPD3) =    -0.1457624467D+00 E(B2PLYPD3) =    -0.11568530861213D+03

 The electronic state is 1-A.
 Alpha  occ. eigenvalues --  -19.71309 -10.66843  -1.18062  -0.79400  -0.59788
 Alpha  occ. eigenvalues --   -0.51658  -0.49863  -0.40587  -0.35572
 Alpha virt. eigenvalues --    0.05350   0.08559   0.12189   0.12259   0.14635
 Alpha virt. eigenvalues --    0.17115   0.17922   0.29083   0.32833   0.33250
 Alpha virt. eigenvalues --    0.37153   0.38882   0.39523   0.40357   0.42970

 Mulliken charges:
               1
     1  C    0.067709
     2  O   -0.416288
     3  H    0.053667
     4  H    0.049302
     5  H    0.074382
     6  H    0.171228
 Sum of Mulliken charges =   0.00000

 Dipole moment (field-independent basis, Debye):
    X=             -0.8496    Y=             -1.3919    Z=              0.0670  Tot=              1.6321
 Quadrupole moment (field-independent basis, Debye-Ang):
   XX=            -12.8563   YY=            -12.4639   ZZ=            -13.6895
   XY=             -2.2008   XZ=              0.0357   YZ=             -0.0519

 Normal termination of Gaussian 09 at Thu Aug 27 00:06:29 2020.
