 Gaussian 09, Revision D.01,
 Gaussian 09:  ES64L-G09RevD.01 24-Apr-2013

 --------------------
 #p B2PLYPD3/Def2QZVP
 --------------------

 --------
 methanol
 --------
 Symbolic Z-matrix:
 Charge =  0 Multiplicity = 1

                         Standard orientation:
 ---------------------------------------------------------------------
 Center     Atomic      Atomic             Coordinates (Angstroms)
 Number     Number       Type             X           Y           Z
 ---------------------------------------------------------------------
      1          6           0        0.679893   -0.009225    0.000715
      2          8           0       -0.753360    0.124325   -0.012360
      3          1           0        1.059211   -0.631999   -0.826753
      4          1           0        1.034303   -0.450415    0.896607
      5          1           0        0.993602    0.977576   -0.047289
      6          1           0       -1.139593   -0.834411    0.072027
 ---------------------------------------------------------------------

 SCF Done:  E(RB2PLYPD3) =  -115.542897205     A.U. after   10 cycles
 E2(B2PLYPD3) =    -0.1488584655D+00 E(B2PLYPD3) =    -0.11569175567003D+03

 The electronic state is 1-A.
 Alpha  occ. eigenvalues --  -19.73075 -10.64836  -1.14138  -0.78734  -0.57869
 Alpha  occ. eigenvalues --   -0.51301  -0.49225  -0.41735  -0.35179
 Alpha virt. eigenvalues --    0.04418   0.08033   0.12351   0.12525   0.15017
 Alpha virt. eigenvalues --    0.16925   0.18077   0.29068   0.32391   0.33439
 Alpha virt. eigenvalues --    0.33509   0.38756   0.39908   0.40744   0.44044

 Mulliken charges:
               1
     1  C    0.074405
     2  O   -0.483304
     3  H    0.045597
     4  H    0.048519
     5  H    0.076139
     6  H    0.238644
 Sum of Mulliken charges =   0.00000

 Dipole moment (field-independent basis, Debye):
    X=              0.9777    Y=             -1.5481    Z=              0.1831  Tot=              1.8401
 Quadrupole moment (field-independent basis, Debye-Ang):
   XX=            -13.1730   YY=            -11.8896   ZZ=            -13.8786
   XY=              2.2046   XZ=             -0.1451   YZ=             -0.1048

 Normal termination of Gaussian 09 at Wed Aug 26 11:42:53 2020.
