 Gaussian 09, Revision D.01,
 Gaussian 09:  ES64L-G09RevD.01 24-Apr-2013

 --------------------
 #p B2PLYPD3/Def2QZVP
 --------------------

 --------
 methanol
 --------
 Symbolic Z-matrix:
 Charge =  0 Multiplicity = 1

                         Standard orientation:
 ---------------------------------------------------------------------
 Center     Atomic      Atomic             Coordinates (Angstroms)
 Number     Number       Type             X           Y           Z
 ---------------------------------------------------------------------
      1          6           0        0.675237   -0.016373    0.011074
      2          8           0       -0.754780    0.095754   -0.012747
      3          1           0        1.068141   -0.684704   -0.852131
      4          1           0        1.007229   -0.416837    0.974636
      5          1           0        1.057193    1.040745   -0.132988
      6          1           0       -1.145746   -0.606998    0.046020
 ---------------------------------------------------------------------

 SCF Done:  E(RB2PLYPD3) =  -115.518012226     A.U. after   10 cycles
 E2(B2PLYPD3) =    -0.1452243672D+00 E(B2PLYPD3) =    -0.11566323659337D+03

 The electronic state is 1-A.
 Alpha  occ. eigenvalues --  -19.70814 -10.67369  -1.19490  -0.79905  -0.60336
 Alpha  occ. eigenvalues --   -0.51423  -0.49709  -0.40871  -0.35776
 Alpha virt. eigenvalues --    0.05404   0.08742   0.11994   0.12178   0.14675
 Alpha virt. eigenvalues --    0.16912   0.17903   0.29003   0.32480   0.33156
 Alpha virt. eigenvalues --    0.37182   0.38700   0.39576   0.40359   0.42543

 Mulliken charges:
               1
     1  C    0.062962
     2  O   -0.370627
     3  H    0.046064
     4  H    0.058727
     5  H    0.077435
     6  H    0.125439
 Sum of Mulliken charges =   0.00000

 Dipole moment (field-independent basis, Debye):
    X=              0.8979    Y=             -1.3244    Z=              0.1687  Tot=              1.6089
 Quadrupole moment (field-independent basis, Debye-Ang):
   XX=            -12.9554   YY=            -12.4546   ZZ=            -13.6504
   XY=              2.0649   XZ=             -0.1602   YZ=             -0.1244

 Normal termination of Gaussian 09 at Thu Aug 27 00:12:52 2020.
