 Gaussian 09, Revision D.01,
 Gaussian 09:  ES64L-G09RevD.01 24-Apr-2013

 --------------------
 #p B2PLYPD3/Def2QZVP
 --------------------

 --------
 methanol
 --------
 Symbolic Z-matrix:
 Charge =  0 Multiplicity = 1

                         Standard orientation:
 ---------------------------------------------------------------------
 Center     Atomic      Atomic             Coordinates (Angstroms)
 Number     Number       Type             X           Y           Z
 ---------------------------------------------------------------------
      1          6           0        0.705521   -0.021776   -0.013457
      2          8           0       -0.772313    0.106676   -0.004025
      3          1           0        1.144555   -0.414445   -0.866407
      4          1           0        0.861069   -0.681651    0.880715
      5          1           0        1.013879    1.060149    0.177843
      6          1           0       -1.074125   -0.686806   -0.079206
 ---------------------------------------------------------------------

 SCF Done:  E(RB2PLYPD3) =  -115.527894802     A.U. after   11 cycles
 E2(B2PLYPD3) =    -0.1466809274D+00 E(B2PLYPD3) =    -0.11567457572887D+03

 The electronic state is 1-A.
 Alpha  occ. eigenvalues --  -19.71138 -10.66613  -1.17168  -0.79437  -0.59312
 Alpha  occ. eigenvalues --   -0.52245  -0.47884  -0.42089  -0.35726
 Alpha virt. eigenvalues --    0.05196   0.08485   0.11771   0.12169   0.14520
 Alpha virt. eigenvalues --    0.16811   0.17851   0.28524   0.30472   0.33691
 Alpha virt. eigenvalues --    0.37178   0.37518   0.39942   0.41421   0.43062

 Mulliken charges:
               1
     1  C    0.063190
     2  O   -0.417523
     3  H    0.065988
     4  H    0.054326
     5  H    0.074178
     6  H    0.159840
 Sum of Mulliken charges =   0.00000

 Dipole moment (field-independent basis, Debye):
    X=              1.1837    Y=             -1.4589    Z=             -0.1785  Tot=              1.8871
 Quadrupole moment (field-independent basis, Debye-Ang):
   XX=            -13.4080   YY=            -12.1070   ZZ=            -13.6299
   XY=              1.9876   XZ=             -0.1640   YZ=              0.1899

 Normal termination of Gaussian 09 at Wed Aug 26 22:20:40 2020.
