 Gaussian 09, Revision D.01,
 Gaussian 09:  ES64L-G09RevD.01 24-Apr-2013

 --------------------
 #p B2PLYPD3/Def2QZVP
 --------------------

 --------
 methanol
 --------
 Symbolic Z-matrix:
 Charge =  0 Multiplicity = 1

                         Standard orientation:
 ---------------------------------------------------------------------
 Center     Atomic      Atomic             Coordinates (Angstroms)
 Number     Number       Type             X           Y           Z
 ---------------------------------------------------------------------
      1          6           0       -0.663219    0.003193   -0.000364
      2          8           0        0.756231   -0.016419    0.044302
      3          1           0       -1.119087   -0.852507   -0.808412
      4          1           0       -1.091398    1.198725   -0.262369
      5          1           0       -1.061567   -0.330293    1.026851
      6          1           0        1.201518    0.096267   -0.308303
 ---------------------------------------------------------------------

 SCF Done:  E(RB2PLYPD3) =  -115.112955570     A.U. after   11 cycles
 E2(B2PLYPD3) =    -0.1444650227D+00 E(B2PLYPD3) =    -0.11525742059219D+03

 The electronic state is 1-A.
 Alpha  occ. eigenvalues --  -19.68519 -10.71969  -1.28598  -0.84988  -0.61668
 Alpha  occ. eigenvalues --   -0.50924  -0.49933  -0.38392  -0.35903
 Alpha virt. eigenvalues --    0.04717   0.09260   0.10771   0.11784   0.13764
 Alpha virt. eigenvalues --    0.16570   0.18034   0.28488   0.31028   0.31769
 Alpha virt. eigenvalues --    0.33022   0.35999   0.37007   0.41350   0.42143

 Mulliken charges:
               1
     1  C    0.050130
     2  O   -0.135184
     3  H    0.048673
     4  H    0.046008
     5  H    0.100485
     6  H   -0.110113
 Sum of Mulliken charges =   0.00000

 Dipole moment (field-independent basis, Debye):
    X=             -0.7435    Y=              0.1992    Z=             -0.7167  Tot=              1.0517
 Quadrupole moment (field-independent basis, Debye-Ang):
   XX=            -12.4928   YY=            -13.3920   ZZ=            -13.2180
   XY=              0.6090   XZ=             -1.6634   YZ=             -0.1927

 Normal termination of Gaussian 09 at Wed Aug 26 23:07:45 2020.
