 Gaussian 09, Revision D.01,
 Gaussian 09:  ES64L-G09RevD.01 24-Apr-2013

 --------------------
 #p B2PLYPD3/Def2QZVP
 --------------------

 --------
 methanol
 --------
 Symbolic Z-matrix:
 Charge =  0 Multiplicity = 1

                         Standard orientation:
 ---------------------------------------------------------------------
 Center     Atomic      Atomic             Coordinates (Angstroms)
 Number     Number       Type             X           Y           Z
 ---------------------------------------------------------------------
      1          6           0       -0.648988   -0.008990    0.013610
      2          8           0        0.748015    0.085379   -0.036427
      3          1           0       -0.991881   -0.282628    1.037881
      4          1           0       -1.116978   -0.781964   -0.801385
      5          1           0       -1.060448    1.014059   -0.202922
      6          1           0        1.079116   -0.578563    0.176178
 ---------------------------------------------------------------------

 SCF Done:  E(RB2PLYPD3) =  -115.493549542     A.U. after   10 cycles
 E2(B2PLYPD3) =    -0.1447562692D+00 E(B2PLYPD3) =    -0.11563830581141D+03

 The electronic state is 1-A.
 Alpha  occ. eigenvalues --  -19.71052 -10.67778  -1.22246  -0.80094  -0.61251
 Alpha  occ. eigenvalues --   -0.51263  -0.50686  -0.41061  -0.35715
 Alpha virt. eigenvalues --    0.05358   0.08844   0.11825   0.12232   0.14671
 Alpha virt. eigenvalues --    0.17097   0.18068   0.28647   0.32653   0.33771
 Alpha virt. eigenvalues --    0.36148   0.38542   0.39810   0.40358   0.43006

 Mulliken charges:
               1
     1  C    0.051038
     2  O   -0.308424
     3  H    0.051203
     4  H    0.037135
     5  H    0.075586
     6  H    0.093462
 Sum of Mulliken charges =   0.00000

 Dipole moment (field-independent basis, Debye):
    X=             -0.8144    Y=             -1.1667    Z=              0.5061  Tot=              1.5102
 Quadrupole moment (field-independent basis, Debye-Ang):
   XX=            -13.2002   YY=            -12.6239   ZZ=            -13.5838
   XY=             -1.9633   XZ=              0.5543   YZ=             -0.3051

 Normal termination of Gaussian 09 at Wed Aug 26 14:32:14 2020.
