 Gaussian 09, Revision D.01,
 Gaussian 09:  ES64L-G09RevD.01 24-Apr-2013

 --------------------
 #p B2PLYPD3/Def2QZVP
 --------------------

 --------
 methanol
 --------
 Symbolic Z-matrix:
 Charge =  0 Multiplicity = 1

                         Standard orientation:
 ---------------------------------------------------------------------
 Center     Atomic      Atomic             Coordinates (Angstroms)
 Number     Number       Type             X           Y           Z
 ---------------------------------------------------------------------
      1          6           0        0.661550   -0.023936    0.015042
      2          8           0       -0.746419    0.135439   -0.015913
      3          1           0        1.026640   -0.673266   -0.807200
      4          1           0        0.959452   -0.464782    0.867442
      5          1           0        1.173941    0.973601   -0.079400
      6          1           0       -1.157974   -0.775449    0.056205
 ---------------------------------------------------------------------

 SCF Done:  E(RB2PLYPD3) =  -115.543620220     A.U. after   10 cycles
 E2(B2PLYPD3) =    -0.1478361153D+00 E(B2PLYPD3) =    -0.11569145633482D+03

 The electronic state is 1-A.
 Alpha  occ. eigenvalues --  -19.72897 -10.65144  -1.15438  -0.78757  -0.58533
 Alpha  occ. eigenvalues --   -0.52024  -0.49616  -0.40896  -0.35241
 Alpha virt. eigenvalues --    0.04645   0.08012   0.12334   0.12630   0.14903
 Alpha virt. eigenvalues --    0.17706   0.17896   0.29326   0.32734   0.33385
 Alpha virt. eigenvalues --    0.33918   0.38336   0.39512   0.41572   0.44676

 Mulliken charges:
               1
     1  C    0.080722
     2  O   -0.471987
     3  H    0.037836
     4  H    0.051271
     5  H    0.065744
     6  H    0.236414
 Sum of Mulliken charges =   0.00000

 Dipole moment (field-independent basis, Debye):
    X=              0.8631    Y=             -1.5955    Z=              0.2173  Tot=              1.8269
 Quadrupole moment (field-independent basis, Debye-Ang):
   XX=            -12.9052   YY=            -12.1603   ZZ=            -13.8970
   XY=              2.3395   XZ=             -0.1211   YZ=             -0.1572

 Normal termination of Gaussian 09 at Wed Aug 26 12:16:14 2020.
