 Gaussian 09, Revision D.01,
 Gaussian 09:  ES64L-G09RevD.01 24-Apr-2013

 --------------------
 #p B2PLYPD3/Def2QZVP
 --------------------

 --------
 methanol
 --------
 Symbolic Z-matrix:
 Charge =  0 Multiplicity = 1

                         Standard orientation:
 ---------------------------------------------------------------------
 Center     Atomic      Atomic             Coordinates (Angstroms)
 Number     Number       Type             X           Y           Z
 ---------------------------------------------------------------------
      1          6           0       -0.668504   -0.020016    0.013127
      2          8           0        0.756336    0.126426   -0.012280
      3          1           0       -1.035260   -0.439625    0.887418
      4          1           0       -1.068677   -0.634560   -0.835331
      5          1           0       -1.082654    0.981469   -0.085378
      6          1           0        1.146926   -0.798593    0.052773
 ---------------------------------------------------------------------

 SCF Done:  E(RB2PLYPD3) =  -115.547166232     A.U. after   10 cycles
 E2(B2PLYPD3) =    -0.1483015773D+00 E(B2PLYPD3) =    -0.11569546780963D+03

 The electronic state is 1-A.
 Alpha  occ. eigenvalues --  -19.73123 -10.65353  -1.14964  -0.78684  -0.58156
 Alpha  occ. eigenvalues --   -0.51476  -0.49371  -0.41293  -0.35447
 Alpha virt. eigenvalues --    0.04662   0.07977   0.12343   0.12519   0.14962
 Alpha virt. eigenvalues --    0.17301   0.18212   0.29083   0.32734   0.33418
 Alpha virt. eigenvalues --    0.34078   0.38395   0.39431   0.41216   0.44380

 Mulliken charges:
               1
     1  C    0.072722
     2  O   -0.472249
     3  H    0.053845
     4  H    0.041532
     5  H    0.068309
     6  H    0.235841
 Sum of Mulliken charges =   0.00000

 Dipole moment (field-independent basis, Debye):
    X=             -0.9264    Y=             -1.5492    Z=              0.1821  Tot=              1.8142
 Quadrupole moment (field-independent basis, Debye-Ang):
   XX=            -12.9910   YY=            -12.1333   ZZ=            -13.8769
   XY=             -2.2569   XZ=              0.0885   YZ=             -0.1417

 Normal termination of Gaussian 09 at Wed Aug 26 10:02:00 2020.
