 Gaussian 09, Revision D.01,
 Gaussian 09:  ES64L-G09RevD.01 24-Apr-2013

 --------------------
 #p B2PLYPD3/Def2QZVP
 --------------------

 --------
 methanol
 --------
 Symbolic Z-matrix:
 Charge =  0 Multiplicity = 1

                         Standard orientation:
 ---------------------------------------------------------------------
 Center     Atomic      Atomic             Coordinates (Angstroms)
 Number     Number       Type             X           Y           Z
 ---------------------------------------------------------------------
      1          6           0       -0.675571    0.024557   -0.004864
      2          8           0        0.747610   -0.170827   -0.000408
      3          1           0       -0.971460    0.505074   -0.758498
      4          1           0       -0.854478    0.584576    0.782707
      5          1           0       -1.146919   -0.901280    0.042847
      6          1           0        1.045401    1.030905   -0.034608
 ---------------------------------------------------------------------

 SCF Done:  E(RB2PLYPD3) =  -115.473005216     A.U. after   11 cycles
 E2(B2PLYPD3) =    -0.1523643001D+00 E(B2PLYPD3) =    -0.11562536951600D+03

 The electronic state is 1-A.
 Alpha  occ. eigenvalues --  -19.74203 -10.61919  -1.12287  -0.80134  -0.56342
 Alpha  occ. eigenvalues --   -0.54136  -0.48275  -0.41180  -0.35075
 Alpha virt. eigenvalues --    0.01680   0.07866   0.12349   0.12827   0.14597
 Alpha virt. eigenvalues --    0.17506   0.18141   0.25318   0.29679   0.32757
 Alpha virt. eigenvalues --    0.33898   0.39543   0.40003   0.43115   0.44660

 Mulliken charges:
               1
     1  C    0.106658
     2  O   -0.495529
     3  H    0.041708
     4  H    0.044156
     5  H    0.060755
     6  H    0.242252
 Sum of Mulliken charges =   0.00000

 Dipole moment (field-independent basis, Debye):
    X=             -1.2679    Y=              1.7840    Z=             -0.0698  Tot=              2.1897
 Quadrupole moment (field-independent basis, Debye-Ang):
   XX=            -13.6137   YY=            -11.3000   ZZ=            -13.8558
   XY=              2.2224   XZ=              0.0761   YZ=             -0.0674

 Normal termination of Gaussian 09 at Wed Aug 26 23:30:42 2020.
