 Gaussian 09, Revision D.01,
 Gaussian 09:  ES64L-G09RevD.01 24-Apr-2013

 --------------------
 #p B2PLYPD3/Def2QZVP
 --------------------

 --------
 methanol
 --------
 Symbolic Z-matrix:
 Charge =  0 Multiplicity = 1

                         Standard orientation:
 ---------------------------------------------------------------------
 Center     Atomic      Atomic             Coordinates (Angstroms)
 Number     Number       Type             X           Y           Z
 ---------------------------------------------------------------------
      1          6           0       -0.703307    0.034802   -0.019436
      2          8           0        0.752719   -0.188972   -0.003210
      3          1           0       -1.148162    0.363437   -0.743939
      4          1           0       -0.833895    0.643068    0.777513
      5          1           0       -1.027160   -0.841550    0.178899
      6          1           0        1.207307    1.138013   -0.070176
 ---------------------------------------------------------------------

 SCF Done:  E(RB2PLYPD3) =  -115.411897151     A.U. after   12 cycles
 E2(B2PLYPD3) =    -0.1567191644D+00 E(B2PLYPD3) =    -0.11556861631547D+03

 The electronic state is 1-A.
 Alpha  occ. eigenvalues --  -19.75227 -10.61244  -1.10151  -0.81322  -0.55876
 Alpha  occ. eigenvalues --   -0.54016  -0.47009  -0.39845  -0.35336
 Alpha virt. eigenvalues --   -0.01157   0.07534   0.12380   0.12835   0.14345
 Alpha virt. eigenvalues --    0.17038   0.18503   0.22290   0.28951   0.31298
 Alpha virt. eigenvalues --    0.34355   0.38531   0.39700   0.43321   0.46396

 Mulliken charges:
               1
     1  C    0.093573
     2  O   -0.488031
     3  H    0.055443
     4  H    0.046142
     5  H    0.066250
     6  H    0.226624
 Sum of Mulliken charges =   0.00000

 Dipole moment (field-independent basis, Debye):
    X=             -1.2843    Y=              1.7146    Z=             -0.0929  Tot=              2.1443
 Quadrupole moment (field-independent basis, Debye-Ang):
   XX=            -13.1241   YY=            -11.3271   ZZ=            -13.8887
   XY=              2.4073   XZ=              0.1761   YZ=             -0.1447

 Normal termination of Gaussian 09 at Wed Aug 26 18:39:37 2020.
