 Gaussian 09, Revision D.01,
 Gaussian 09:  ES64L-G09RevD.01 24-Apr-2013

 --------------------
 #p B2PLYPD3/Def2QZVP
 --------------------

 --------
 methanol
 --------
 Symbolic Z-matrix:
 Charge =  0 Multiplicity = 1

                         Standard orientation:
 ---------------------------------------------------------------------
 Center     Atomic      Atomic             Coordinates (Angstroms)
 Number     Number       Type             X           Y           Z
 ---------------------------------------------------------------------
      1          6           0        0.666391    0.016206   -0.006384
      2          8           0       -0.746775   -0.137896    0.001013
      3          1           0        1.013406    0.524150    0.894156
      4          1           0        0.980151    0.568466   -0.861549
      5          1           0        1.136373   -0.906818   -0.014362
      6          1           0       -1.154077    0.820129    0.011954
 ---------------------------------------------------------------------

 SCF Done:  E(RB2PLYPD3) =  -115.543569626     A.U. after   11 cycles
 E2(B2PLYPD3) =    -0.1484259326D+00 E(B2PLYPD3) =    -0.11569199555894D+03

 The electronic state is 1-A.
 Alpha  occ. eigenvalues --  -19.73100 -10.64611  -1.14592  -0.78810  -0.57378
 Alpha  occ. eigenvalues --   -0.51959  -0.50456  -0.40913  -0.35104
 Alpha virt. eigenvalues --    0.04358   0.07999   0.12423   0.12781   0.14685
 Alpha virt. eigenvalues --    0.17718   0.18072   0.29211   0.31841   0.33225
 Alpha virt. eigenvalues --    0.33607   0.39417   0.40857   0.41296   0.43721

 Mulliken charges:
               1
     1  C    0.079206
     2  O   -0.482150
     3  H    0.041934
     4  H    0.045196
     5  H    0.070834
     6  H    0.244980
 Sum of Mulliken charges =   0.00000

 Dipole moment (field-independent basis, Debye):
    X=              0.9136    Y=              1.5560    Z=             -0.0043  Tot=              1.8044
 Quadrupole moment (field-independent basis, Debye-Ang):
   XX=            -12.9526   YY=            -12.1239   ZZ=            -13.8115
   XY=             -2.4620   XZ=             -0.0261   YZ=             -0.0219

 Normal termination of Gaussian 09 at Thu Aug 27 00:09:09 2020.
