 Gaussian 09, Revision D.01,
 Gaussian 09:  ES64L-G09RevD.01 24-Apr-2013

 --------------------
 #p B2PLYPD3/Def2QZVP
 --------------------

 --------
 methanol
 --------
 Symbolic Z-matrix:
 Charge =  0 Multiplicity = 1

                         Standard orientation:
 ---------------------------------------------------------------------
 Center     Atomic      Atomic             Coordinates (Angstroms)
 Number     Number       Type             X           Y           Z
 ---------------------------------------------------------------------
      1          6           0       -0.688468   -0.013444    0.013009
      2          8           0        0.731378   -0.132370   -0.027810
      3          1           0       -1.078722    0.725968   -0.821161
      4          1           0       -1.025266    0.422100    0.904939
      5          1           0       -0.941560   -0.858461   -0.078555
      6          1           0        1.325327    0.850022    0.139202
 ---------------------------------------------------------------------

 SCF Done:  E(RB2PLYPD3) =  -115.478822868     A.U. after   11 cycles
 E2(B2PLYPD3) =    -0.1507232970D+00 E(B2PLYPD3) =    -0.11562954616479D+03

 The electronic state is 1-A.
 Alpha  occ. eigenvalues --  -19.73396 -10.63767  -1.12648  -0.79715  -0.57427
 Alpha  occ. eigenvalues --   -0.51347  -0.49898  -0.40449  -0.34159
 Alpha virt. eigenvalues --    0.02989   0.07645   0.12421   0.12947   0.14823
 Alpha virt. eigenvalues --    0.16940   0.18109   0.27906   0.29317   0.32874
 Alpha virt. eigenvalues --    0.34160   0.36934   0.39194   0.41810   0.43873

 Mulliken charges:
               1
     1  C    0.050277
     2  O   -0.507844
     3  H    0.035656
     4  H    0.050119
     5  H    0.112939
     6  H    0.258853
 Sum of Mulliken charges =   0.00000

 Dipole moment (field-independent basis, Debye):
    X=             -0.6770    Y=              1.4663    Z=              0.4009  Tot=              1.6640
 Quadrupole moment (field-independent basis, Debye-Ang):
   XX=            -12.4151   YY=            -11.9871   ZZ=            -13.9790
   XY=              2.5976   XZ=              0.2641   YZ=              0.2977

 Normal termination of Gaussian 09 at Wed Aug 26 20:40:51 2020.
