 Gaussian 09, Revision D.01,
 Gaussian 09:  ES64L-G09RevD.01 24-Apr-2013

 --------------------
 #p B2PLYPD3/Def2QZVP
 --------------------

 --------
 methanol
 --------
 Symbolic Z-matrix:
 Charge =  0 Multiplicity = 1

                         Standard orientation:
 ---------------------------------------------------------------------
 Center     Atomic      Atomic             Coordinates (Angstroms)
 Number     Number       Type             X           Y           Z
 ---------------------------------------------------------------------
      1          6           0        0.638861   -0.022542    0.007480
      2          8           0       -0.741801    0.100487    0.002093
      3          1           0        1.029193   -0.618837   -0.875625
      4          1           0        1.069969   -0.511909    0.900460
      5          1           0        1.091186    1.087310   -0.079206
      6          1           0       -1.089103   -0.625203   -0.007254
 ---------------------------------------------------------------------

 SCF Done:  E(RB2PLYPD3) =  -115.513458811     A.U. after   10 cycles
 E2(B2PLYPD3) =    -0.1450263282D+00 E(B2PLYPD3) =    -0.11565848513960D+03

 The electronic state is 1-A.
 Alpha  occ. eigenvalues --  -19.71537 -10.67440  -1.21645  -0.79529  -0.61885
 Alpha  occ. eigenvalues --   -0.51765  -0.49966  -0.40643  -0.35714
 Alpha virt. eigenvalues --    0.05273   0.08787   0.11752   0.12354   0.15086
 Alpha virt. eigenvalues --    0.17196   0.17910   0.28889   0.33087   0.34271
 Alpha virt. eigenvalues --    0.36110   0.38632   0.39957   0.40432   0.42220

 Mulliken charges:
               1
     1  C    0.054206
     2  O   -0.335276
     3  H    0.041257
     4  H    0.051549
     5  H    0.061054
     6  H    0.127210
 Sum of Mulliken charges =   0.00000

 Dipole moment (field-independent basis, Debye):
    X=              0.7363    Y=             -1.4169    Z=              0.0070  Tot=              1.5968
 Quadrupole moment (field-independent basis, Debye-Ang):
   XX=            -13.1251   YY=            -12.4308   ZZ=            -13.8521
   XY=              1.9300   XZ=              0.0774   YZ=             -0.0367

 Normal termination of Gaussian 09 at Wed Aug 26 13:57:49 2020.
