 Gaussian 09, Revision D.01,
 Gaussian 09:  ES64L-G09RevD.01 24-Apr-2013

 --------------------
 #p B2PLYPD3/Def2QZVP
 --------------------

 --------
 methanol
 --------
 Symbolic Z-matrix:
 Charge =  0 Multiplicity = 1

                         Standard orientation:
 ---------------------------------------------------------------------
 Center     Atomic      Atomic             Coordinates (Angstroms)
 Number     Number       Type             X           Y           Z
 ---------------------------------------------------------------------
      1          6           0        0.657798    0.038891   -0.000024
      2          8           0       -0.748425   -0.201753   -0.020686
      3          1           0        0.989773    0.301688    0.856243
      4          1           0        1.044749    0.665861   -0.708518
      5          1           0        1.245613   -0.741870   -0.084031
      6          1           0       -1.239520    1.155000    0.101935
 ---------------------------------------------------------------------

 SCF Done:  E(RB2PLYPD3) =  -115.418483642     A.U. after   11 cycles
 E2(B2PLYPD3) =    -0.1568527389D+00 E(B2PLYPD3) =    -0.11557533638087D+03

 The electronic state is 1-A.
 Alpha  occ. eigenvalues --  -19.75887 -10.61668  -1.11382  -0.81216  -0.53448
 Alpha  occ. eigenvalues --   -0.52486  -0.49960  -0.38603  -0.35577
 Alpha virt. eigenvalues --   -0.02527   0.07210   0.12679   0.13123   0.14351
 Alpha virt. eigenvalues --    0.18358   0.19096   0.21642   0.29458   0.33355
 Alpha virt. eigenvalues --    0.33950   0.39063   0.40479   0.42699   0.43315

 Mulliken charges:
               1
     1  C    0.102528
     2  O   -0.478853
     3  H    0.049639
     4  H    0.040491
     5  H    0.045437
     6  H    0.240758
 Sum of Mulliken charges =   0.00000

 Dipole moment (field-independent basis, Debye):
    X=              1.1058    Y=              1.7557    Z=              0.2255  Tot=              2.0871
 Quadrupole moment (field-independent basis, Debye-Ang):
   XX=            -12.6849   YY=            -11.6543   ZZ=            -13.9847
   XY=             -2.6675   XZ=             -0.1719   YZ=              0.0551

 Normal termination of Gaussian 09 at Wed Aug 26 19:11:11 2020.
