 Gaussian 09, Revision D.01,
 Gaussian 09:  ES64L-G09RevD.01 24-Apr-2013

 --------------------
 #p B2PLYPD3/Def2QZVP
 --------------------

 --------
 methanol
 --------
 Symbolic Z-matrix:
 Charge =  0 Multiplicity = 1

                         Standard orientation:
 ---------------------------------------------------------------------
 Center     Atomic      Atomic             Coordinates (Angstroms)
 Number     Number       Type             X           Y           Z
 ---------------------------------------------------------------------
      1          6           0       -0.657317   -0.041799    0.015864
      2          8           0        0.759850    0.060068   -0.016352
      3          1           0       -0.962653   -0.493511    1.019176
      4          1           0       -1.134215   -0.664334   -0.918724
      5          1           0       -1.171237    1.219513   -0.075726
      6          1           0        1.133204   -0.291414    0.010906
 ---------------------------------------------------------------------

 SCF Done:  E(RB2PLYPD3) =  -114.824529416     A.U. after   12 cycles
 E2(B2PLYPD3) =    -0.1441460431D+00 E(B2PLYPD3) =    -0.11496867545860D+03

 The electronic state is 1-A.
 Alpha  occ. eigenvalues --  -19.68662 -10.71936  -1.32495  -0.85399  -0.62896
 Alpha  occ. eigenvalues --   -0.51832  -0.48798  -0.38218  -0.37050
 Alpha virt. eigenvalues --    0.04362   0.09601   0.10325   0.11634   0.14042
 Alpha virt. eigenvalues --    0.16758   0.17711   0.28218   0.30513   0.31648
 Alpha virt. eigenvalues --    0.32664   0.35478   0.38811   0.40875   0.42164

 Mulliken charges:
               1
     1  C    0.050150
     2  O   -0.059839
     3  H    0.072445
     4  H    0.059771
     5  H    0.062584
     6  H   -0.185111
 Sum of Mulliken charges =   0.00000

 Dipole moment (field-independent basis, Debye):
    X=             -0.8724    Y=             -1.0765    Z=              0.1582  Tot=              1.3947
 Quadrupole moment (field-independent basis, Debye-Ang):
   XX=            -12.6799   YY=            -12.9643   ZZ=            -13.3725
   XY=             -1.4572   XZ=              0.1948   YZ=             -0.0724

 Normal termination of Gaussian 09 at Wed Aug 26 23:23:00 2020.
