 Gaussian 09, Revision D.01,
 Gaussian 09:  ES64L-G09RevD.01 24-Apr-2013

 --------------------
 #p B2PLYPD3/Def2QZVP
 --------------------

 --------
 methanol
 --------
 Symbolic Z-matrix:
 Charge =  0 Multiplicity = 1

                         Standard orientation:
 ---------------------------------------------------------------------
 Center     Atomic      Atomic             Coordinates (Angstroms)
 Number     Number       Type             X           Y           Z
 ---------------------------------------------------------------------
      1          6           0        0.659734    0.037834   -0.012264
      2          8           0       -0.721547   -0.191674    0.003111
      3          1           0        0.984396    0.478806    0.878244
      4          1           0        1.130309    0.505087   -0.743606
      5          1           0        1.038759   -0.784788   -0.030547
      6          1           0       -1.339497    1.107289   -0.055397
 ---------------------------------------------------------------------

 SCF Done:  E(RB2PLYPD3) =  -115.414248915     A.U. after   12 cycles
 E2(B2PLYPD3) =    -0.1561475915D+00 E(B2PLYPD3) =    -0.11557039650643D+03

 The electronic state is 1-A.
 Alpha  occ. eigenvalues --  -19.75528 -10.61262  -1.12348  -0.80718  -0.55155
 Alpha  occ. eigenvalues --   -0.52751  -0.49625  -0.39001  -0.35048
 Alpha virt. eigenvalues --   -0.02087   0.07423   0.12843   0.13106   0.14916
 Alpha virt. eigenvalues --    0.17146   0.18897   0.21773   0.29453   0.33335
 Alpha virt. eigenvalues --    0.35787   0.38205   0.39821   0.42880   0.44968

 Mulliken charges:
               1
     1  C    0.072014
     2  O   -0.471201
     3  H    0.043754
     4  H    0.040927
     5  H    0.080028
     6  H    0.234478
 Sum of Mulliken charges =   0.00000

 Dipole moment (field-independent basis, Debye):
    X=              0.9035    Y=              1.6333    Z=             -0.1298  Tot=              1.8710
 Quadrupole moment (field-independent basis, Debye-Ang):
   XX=            -12.4330   YY=            -11.6960   ZZ=            -13.9734
   XY=             -2.6922   XZ=             -0.0799   YZ=             -0.0911

 Normal termination of Gaussian 09 at Wed Aug 26 20:12:21 2020.
