 Gaussian 09, Revision D.01,
 Gaussian 09:  ES64L-G09RevD.01 24-Apr-2013

 --------------------
 #p B2PLYPD3/Def2QZVP
 --------------------

 --------
 methanol
 --------
 Symbolic Z-matrix:
 Charge =  0 Multiplicity = 1

                         Standard orientation:
 ---------------------------------------------------------------------
 Center     Atomic      Atomic             Coordinates (Angstroms)
 Number     Number       Type             X           Y           Z
 ---------------------------------------------------------------------
      1          6           0       -0.685827   -0.030072    0.002524
      2          8           0        0.757518    0.092405   -0.005273
      3          1           0       -0.974214   -0.537733    0.950358
      4          1           0       -1.074157   -0.571714   -0.905512
      5          1           0       -1.071733    1.098820   -0.007324
      6          1           0        1.174925   -0.548176   -0.010483
 ---------------------------------------------------------------------

 SCF Done:  E(RB2PLYPD3) =  -115.486267987     A.U. after   11 cycles
 E2(B2PLYPD3) =    -0.1449497745D+00 E(B2PLYPD3) =    -0.11563121776131D+03

 The electronic state is 1-A.
 Alpha  occ. eigenvalues --  -19.70032 -10.68129  -1.20274  -0.80340  -0.60533
 Alpha  occ. eigenvalues --   -0.51764  -0.48889  -0.40220  -0.36024
 Alpha virt. eigenvalues --    0.05373   0.08856   0.11705   0.12067   0.14471
 Alpha virt. eigenvalues --    0.16760   0.17837   0.28956   0.31611   0.33340
 Alpha virt. eigenvalues --    0.36043   0.38873   0.39755   0.40057   0.42142

 Mulliken charges:
               1
     1  C    0.059357
     2  O   -0.333456
     3  H    0.061722
     4  H    0.059870
     5  H    0.074669
     6  H    0.077838
 Sum of Mulliken charges =   0.00000

 Dipole moment (field-independent basis, Debye):
    X=             -0.9161    Y=             -1.3256    Z=              0.0037  Tot=              1.6114
 Quadrupole moment (field-independent basis, Debye-Ang):
   XX=            -12.8392   YY=            -12.5578   ZZ=            -13.5720
   XY=             -1.9761   XZ=              0.0709   YZ=              0.0060

 Normal termination of Gaussian 09 at Wed Aug 26 14:53:00 2020.
