 Gaussian 09, Revision D.01,
 Gaussian 09:  ES64L-G09RevD.01 24-Apr-2013

 --------------------
 #p B2PLYPD3/Def2QZVP
 --------------------

 --------
 methanol
 --------
 Symbolic Z-matrix:
 Charge =  0 Multiplicity = 1

                         Standard orientation:
 ---------------------------------------------------------------------
 Center     Atomic      Atomic             Coordinates (Angstroms)
 Number     Number       Type             X           Y           Z
 ---------------------------------------------------------------------
      1          6           0       -0.665134   -0.024519   -0.000708
      2          8           0        0.745978    0.105444    0.000142
      3          1           0       -1.026313   -0.536507    0.907143
      4          1           0       -1.051704   -0.530283   -0.896592
      5          1           0       -1.016856    1.053748    0.003417
      6          1           0        1.117852   -0.683396   -0.010853
 ---------------------------------------------------------------------

 SCF Done:  E(RB2PLYPD3) =  -115.543517983     A.U. after   10 cycles
 E2(B2PLYPD3) =    -0.1459753928D+00 E(B2PLYPD3) =    -0.11568949337535D+03

 The electronic state is 1-A.
 Alpha  occ. eigenvalues --  -19.71684 -10.66395  -1.18306  -0.79114  -0.60054
 Alpha  occ. eigenvalues --   -0.51956  -0.49352  -0.41057  -0.35698
 Alpha virt. eigenvalues --    0.05277   0.08624   0.12071   0.12298   0.14936
 Alpha virt. eigenvalues --    0.16911   0.18084   0.29039   0.33296   0.33564
 Alpha virt. eigenvalues --    0.37560   0.38053   0.39988   0.40768   0.42841

 Mulliken charges:
               1
     1  C    0.060854
     2  O   -0.413072
     3  H    0.051911
     4  H    0.052389
     5  H    0.068734
     6  H    0.179184
 Sum of Mulliken charges =   0.00000

 Dipole moment (field-independent basis, Debye):
    X=             -0.8546    Y=             -1.4456    Z=             -0.0239  Tot=              1.6795
 Quadrupole moment (field-independent basis, Debye-Ang):
   XX=            -13.1419   YY=            -12.2971   ZZ=            -13.6965
   XY=             -2.0263   XZ=              0.0027   YZ=              0.0178

 Normal termination of Gaussian 09 at Wed Aug 26 23:52:43 2020.
