 Gaussian 09, Revision D.01,
 Gaussian 09:  ES64L-G09RevD.01 24-Apr-2013

 --------------------
 #p B2PLYPD3/Def2QZVP
 --------------------

 --------
 methanol
 --------
 Symbolic Z-matrix:
 Charge =  0 Multiplicity = 1

                         Standard orientation:
 ---------------------------------------------------------------------
 Center     Atomic      Atomic             Coordinates (Angstroms)
 Number     Number       Type             X           Y           Z
 ---------------------------------------------------------------------
      1          6           0       -0.677848    0.020443   -0.003487
      2          8           0        0.750511   -0.143070   -0.004256
      3          1           0       -0.997346    0.578560   -0.839226
      4          1           0       -1.062453    0.464397    0.867642
      5          1           0       -1.040345   -0.924467   -0.029639
      6          1           0        1.163148    0.903416    0.056196
 ---------------------------------------------------------------------

 SCF Done:  E(RB2PLYPD3) =  -115.524813633     A.U. after   11 cycles
 E2(B2PLYPD3) =    -0.1502812134D+00 E(B2PLYPD3) =    -0.11567509484638D+03

 The electronic state is 1-A.
 Alpha  occ. eigenvalues --  -19.73702 -10.63771  -1.12960  -0.79033  -0.56647
 Alpha  occ. eigenvalues --   -0.52161  -0.49135  -0.41221  -0.35216
 Alpha virt. eigenvalues --    0.03518   0.07826   0.12558   0.12655   0.14871
 Alpha virt. eigenvalues --    0.17177   0.18288   0.28407   0.29920   0.33218
 Alpha virt. eigenvalues --    0.33813   0.38982   0.40158   0.42008   0.43960

 Mulliken charges:
               1
     1  C    0.082235
     2  O   -0.495413
     3  H    0.047793
     4  H    0.046307
     5  H    0.070193
     6  H    0.248885
 Sum of Mulliken charges =   0.00000

 Dipole moment (field-independent basis, Debye):
    X=             -1.0050    Y=              1.6134    Z=              0.1002  Tot=              1.9034
 Quadrupole moment (field-independent basis, Debye-Ang):
   XX=            -13.0569   YY=            -11.8532   ZZ=            -13.8356
   XY=              2.3607   XZ=              0.0594   YZ=              0.0461

 Normal termination of Gaussian 09 at Thu Aug 27 00:08:29 2020.
