 Gaussian 09, Revision D.01,
 Gaussian 09:  ES64L-G09RevD.01 24-Apr-2013

 --------------------
 #p B2PLYPD3/Def2QZVP
 --------------------

 --------
 methanol
 --------
 Symbolic Z-matrix:
 Charge =  0 Multiplicity = 1

                         Standard orientation:
 ---------------------------------------------------------------------
 Center     Atomic      Atomic             Coordinates (Angstroms)
 Number     Number       Type             X           Y           Z
 ---------------------------------------------------------------------
      1          6           0       -0.670191    0.019710   -0.014980
      2          8           0        0.752661   -0.164402    0.004377
      3          1           0       -1.098095    0.468549   -0.767186
      4          1           0       -0.959567    0.619271    0.803052
      5          1           0       -1.118537   -0.893212    0.078792
      6          1           0        1.176054    1.002353   -0.059795
 ---------------------------------------------------------------------

 SCF Done:  E(RB2PLYPD3) =  -115.487103663     A.U. after   11 cycles
 E2(B2PLYPD3) =    -0.1525891531D+00 E(B2PLYPD3) =    -0.11563969281646D+03

 The electronic state is 1-A.
 Alpha  occ. eigenvalues --  -19.74713 -10.62924  -1.12100  -0.79769  -0.55954
 Alpha  occ. eigenvalues --   -0.51872  -0.49032  -0.40962  -0.35067
 Alpha virt. eigenvalues --    0.01616   0.07547   0.12550   0.12936   0.14841
 Alpha virt. eigenvalues --    0.17728   0.18252   0.25177   0.29679   0.32756
 Alpha virt. eigenvalues --    0.34405   0.38826   0.39441   0.42071   0.44878

 Mulliken charges:
               1
     1  C    0.099194
     2  O   -0.491392
     3  H    0.043074
     4  H    0.035992
     5  H    0.061818
     6  H    0.251313
 Sum of Mulliken charges =   0.00000

 Dipole moment (field-independent basis, Debye):
    X=             -1.0432    Y=              1.7311    Z=             -0.1424  Tot=              2.0262
 Quadrupole moment (field-independent basis, Debye-Ang):
   XX=            -12.9544   YY=            -11.6041   ZZ=            -14.0766
   XY=              2.4177   XZ=              0.0440   YZ=             -0.1403

 Normal termination of Gaussian 09 at Wed Aug 26 12:02:46 2020.
