 Gaussian 09, Revision D.01,
 Gaussian 09:  ES64L-G09RevD.01 24-Apr-2013

 --------------------
 #p B2PLYPD3/Def2QZVP
 --------------------

 --------
 methanol
 --------
 Symbolic Z-matrix:
 Charge =  0 Multiplicity = 1

                         Standard orientation:
 ---------------------------------------------------------------------
 Center     Atomic      Atomic             Coordinates (Angstroms)
 Number     Number       Type             X           Y           Z
 ---------------------------------------------------------------------
      1          6           0        0.670041    0.015596    0.019415
      2          8           0       -0.753270   -0.180059   -0.005155
      3          1           0        1.030925    0.503652    0.813190
      4          1           0        1.204681    0.532516   -0.782250
      5          1           0        1.059226   -0.812557   -0.060456
      6          1           0       -1.288919    1.123285   -0.045732
 ---------------------------------------------------------------------

 SCF Done:  E(RB2PLYPD3) =  -115.426761725     A.U. after   11 cycles
 E2(B2PLYPD3) =    -0.1565450196D+00 E(B2PLYPD3) =    -0.11558330674423D+03

 The electronic state is 1-A.
 Alpha  occ. eigenvalues --  -19.75861 -10.62480  -1.11260  -0.80505  -0.55496
 Alpha  occ. eigenvalues --   -0.50951  -0.48814  -0.39848  -0.35102
 Alpha virt. eigenvalues --   -0.01595   0.07168   0.12724   0.12973   0.14848
 Alpha virt. eigenvalues --    0.17408   0.18732   0.22055   0.29389   0.33056
 Alpha virt. eigenvalues --    0.34229   0.37573   0.39317   0.42043   0.43906

 Mulliken charges:
               1
     1  C    0.077556
     2  O   -0.482160
     3  H    0.048752
     4  H    0.032306
     5  H    0.080148
     6  H    0.243399
 Sum of Mulliken charges =   0.00000

 Dipole moment (field-independent basis, Debye):
    X=              0.9923    Y=              1.6763    Z=              0.0093  Tot=              1.9480
 Quadrupole moment (field-independent basis, Debye-Ang):
   XX=            -12.5736   YY=            -11.5494   ZZ=            -14.2367
   XY=             -2.6304   XZ=              0.0337   YZ=              0.0927

 Normal termination of Gaussian 09 at Wed Aug 26 22:45:40 2020.
