 Gaussian 09, Revision D.01,
 Gaussian 09:  ES64L-G09RevD.01 24-Apr-2013

 --------------------
 #p B2PLYPD3/Def2QZVP
 --------------------

 --------
 methanol
 --------
 Symbolic Z-matrix:
 Charge =  0 Multiplicity = 1

                         Standard orientation:
 ---------------------------------------------------------------------
 Center     Atomic      Atomic             Coordinates (Angstroms)
 Number     Number       Type             X           Y           Z
 ---------------------------------------------------------------------
      1          6           0       -0.644930   -0.007767   -0.018109
      2          8           0        0.729373   -0.016908    0.074026
      3          1           0       -0.908992   -0.806977   -0.812048
      4          1           0       -0.995048    1.184307   -0.214140
      5          1           0       -1.066920   -0.342615    0.964493
      6          1           0        1.005558    0.147152   -0.421859
 ---------------------------------------------------------------------

 SCF Done:  E(RB2PLYPD3) =  -115.182087809     A.U. after   11 cycles
 E2(B2PLYPD3) =    -0.1427080965D+00 E(B2PLYPD3) =    -0.11532479590528D+03

 The electronic state is 1-A.
 Alpha  occ. eigenvalues --  -19.68694 -10.68818  -1.30640  -0.83696  -0.61954
 Alpha  occ. eigenvalues --   -0.52662  -0.51985  -0.40504  -0.35945
 Alpha virt. eigenvalues --    0.05216   0.09773   0.11145   0.12232   0.13684
 Alpha virt. eigenvalues --    0.16986   0.17760   0.27665   0.31956   0.33226
 Alpha virt. eigenvalues --    0.35643   0.38319   0.39670   0.41657   0.43942

 Mulliken charges:
               1
     1  C    0.045039
     2  O   -0.132828
     3  H    0.050482
     4  H    0.033909
     5  H    0.084485
     6  H   -0.081087
 Sum of Mulliken charges =   0.00000

 Dipole moment (field-independent basis, Debye):
    X=             -0.8361    Y=              0.2084    Z=             -0.9813  Tot=              1.3060
 Quadrupole moment (field-independent basis, Debye-Ang):
   XX=            -13.5164   YY=            -13.1307   ZZ=            -12.7510
   XY=              0.6716   XZ=             -1.8689   YZ=             -0.1601

 Normal termination of Gaussian 09 at Wed Aug 26 18:36:15 2020.
