 Gaussian 09, Revision D.01,
 Gaussian 09:  ES64L-G09RevD.01 24-Apr-2013

 --------------------
 #p B2PLYPD3/Def2QZVP
 --------------------

 --------
 methanol
 --------
 Symbolic Z-matrix:
 Charge =  0 Multiplicity = 1

                         Standard orientation:
 ---------------------------------------------------------------------
 Center     Atomic      Atomic             Coordinates (Angstroms)
 Number     Number       Type             X           Y           Z
 ---------------------------------------------------------------------
      1          6           0       -0.679172   -0.023131    0.004218
      2          8           0        0.753869    0.102741   -0.011890
      3          1           0       -0.982279   -0.475190    0.966614
      4          1           0       -1.047147   -0.613449   -0.892086
      5          1           0       -1.082360    1.023904   -0.049008
      6          1           0        1.155865   -0.618407    0.044287
 ---------------------------------------------------------------------

 SCF Done:  E(RB2PLYPD3) =  -115.528857913     A.U. after   10 cycles
 E2(B2PLYPD3) =    -0.1454721026D+00 E(B2PLYPD3) =    -0.11567433001555D+03

 The electronic state is 1-A.
 Alpha  occ. eigenvalues --  -19.70899 -10.67093  -1.18621  -0.79703  -0.59768
 Alpha  occ. eigenvalues --   -0.51745  -0.49776  -0.40650  -0.35741
 Alpha virt. eigenvalues --    0.05408   0.08678   0.12047   0.12251   0.14463
 Alpha virt. eigenvalues --    0.17005   0.17963   0.29003   0.32308   0.33229
 Alpha virt. eigenvalues --    0.37327   0.39052   0.39547   0.40161   0.43007

 Mulliken charges:
               1
     1  C    0.065917
     2  O   -0.396035
     3  H    0.055753
     4  H    0.053037
     5  H    0.076060
     6  H    0.145268
 Sum of Mulliken charges =   0.00000

 Dipole moment (field-independent basis, Debye):
    X=             -0.9125    Y=             -1.3494    Z=              0.1355  Tot=              1.6346
 Quadrupole moment (field-independent basis, Debye-Ang):
   XX=            -12.9278   YY=            -12.4979   ZZ=            -13.5832
   XY=             -2.1513   XZ=              0.1857   YZ=             -0.0642

 Normal termination of Gaussian 09 at Wed Aug 26 23:52:33 2020.
