 Gaussian 09, Revision D.01,
 Gaussian 09:  ES64L-G09RevD.01 24-Apr-2013

 --------------------
 #p B2PLYPD3/Def2QZVP
 --------------------

 --------
 methanol
 --------
 Symbolic Z-matrix:
 Charge =  0 Multiplicity = 1

                         Standard orientation:
 ---------------------------------------------------------------------
 Center     Atomic      Atomic             Coordinates (Angstroms)
 Number     Number       Type             X           Y           Z
 ---------------------------------------------------------------------
      1          6           0        0.648293    0.039602   -0.000299
      2          8           0       -0.731057   -0.160905   -0.012789
      3          1           0        0.984318    0.408092    0.860319
      4          1           0        1.031588    0.654549   -0.744484
      5          1           0        1.148689   -0.929122   -0.070757
      6          1           0       -1.205897    0.916108    0.059030
 ---------------------------------------------------------------------

 SCF Done:  E(RB2PLYPD3) =  -115.509826331     A.U. after   11 cycles
 E2(B2PLYPD3) =    -0.1506425957D+00 E(B2PLYPD3) =    -0.11566046892711D+03

 The electronic state is 1-A.
 Alpha  occ. eigenvalues --  -19.74219 -10.63399  -1.13962  -0.78741  -0.56605
 Alpha  occ. eigenvalues --   -0.52826  -0.49585  -0.40037  -0.35143
 Alpha virt. eigenvalues --    0.02619   0.07633   0.12538   0.12976   0.15046
 Alpha virt. eigenvalues --    0.17613   0.18410   0.26770   0.29578   0.33547
 Alpha virt. eigenvalues --    0.35198   0.38587   0.39912   0.42879   0.44082

 Mulliken charges:
               1
     1  C    0.087266
     2  O   -0.482657
     3  H    0.045470
     4  H    0.040206
     5  H    0.054933
     6  H    0.254782
 Sum of Mulliken charges =   0.00000

 Dipole moment (field-independent basis, Debye):
    X=              0.8018    Y=              1.7274    Z=              0.1659  Tot=              1.9117
 Quadrupole moment (field-independent basis, Debye-Ang):
   XX=            -12.7927   YY=            -11.9460   ZZ=            -13.9695
   XY=             -2.4244   XZ=             -0.1236   YZ=              0.0526

 Normal termination of Gaussian 09 at Wed Aug 26 15:55:33 2020.
