 Gaussian 09, Revision D.01,
 Gaussian 09:  ES64L-G09RevD.01 24-Apr-2013

 --------------------
 #p B2PLYPD3/Def2QZVP
 --------------------

 --------
 methanol
 --------
 Symbolic Z-matrix:
 Charge =  0 Multiplicity = 1

                         Standard orientation:
 ---------------------------------------------------------------------
 Center     Atomic      Atomic             Coordinates (Angstroms)
 Number     Number       Type             X           Y           Z
 ---------------------------------------------------------------------
      1          6           0       -0.648555    0.000033    0.007713
      2          8           0        0.740087   -0.104084   -0.032021
      3          1           0       -1.040945    0.882694   -0.707826
      4          1           0       -1.023561    0.214599    1.015987
      5          1           0       -1.103535   -0.917135   -0.283031
      6          1           0        1.138674    0.652317    0.184761
 ---------------------------------------------------------------------

 SCF Done:  E(RB2PLYPD3) =  -115.540771418     A.U. after   11 cycles
 E2(B2PLYPD3) =    -0.1458921642D+00 E(B2PLYPD3) =    -0.11568666358194D+03

 The electronic state is 1-A.
 Alpha  occ. eigenvalues --  -19.72052 -10.66588  -1.18810  -0.79341  -0.60184
 Alpha  occ. eigenvalues --   -0.51480  -0.51034  -0.40782  -0.35049
 Alpha virt. eigenvalues --    0.05186   0.08468   0.12032   0.12658   0.14816
 Alpha virt. eigenvalues --    0.17354   0.18044   0.28988   0.32568   0.34276
 Alpha virt. eigenvalues --    0.35977   0.38579   0.40221   0.40611   0.43733

 Mulliken charges:
               1
     1  C    0.065050
     2  O   -0.410556
     3  H    0.025767
     4  H    0.046631
     5  H    0.079496
     6  H    0.193612
 Sum of Mulliken charges =   0.00000

 Dipole moment (field-independent basis, Debye):
    X=             -0.7217    Y=              1.2463    Z=              0.4728  Tot=              1.5158
 Quadrupole moment (field-independent basis, Debye-Ang):
   XX=            -12.9411   YY=            -12.5191   ZZ=            -13.7761
   XY=              2.2763   XZ=              0.5141   YZ=              0.3461

 Normal termination of Gaussian 09 at Wed Aug 26 11:51:05 2020.
