 Gaussian 09, Revision D.01,
 Gaussian 09:  ES64L-G09RevD.01 24-Apr-2013

 --------------------
 #p B2PLYPD3/Def2QZVP
 --------------------

 --------
 methanol
 --------
 Symbolic Z-matrix:
 Charge =  0 Multiplicity = 1

                         Standard orientation:
 ---------------------------------------------------------------------
 Center     Atomic      Atomic             Coordinates (Angstroms)
 Number     Number       Type             X           Y           Z
 ---------------------------------------------------------------------
      1          6           0        0.658746    0.035712    0.014187
      2          8           0       -0.747807   -0.175354   -0.003290
      3          1           0        1.058958    0.408998    0.826430
      4          1           0        1.119074    0.516405   -0.785289
      5          1           0        1.015924   -0.869263   -0.086446
      6          1           0       -1.163971    1.132421   -0.013494
 ---------------------------------------------------------------------

 SCF Done:  E(RB2PLYPD3) =  -115.447127625     A.U. after   12 cycles
 E2(B2PLYPD3) =    -0.1556374695D+00 E(B2PLYPD3) =    -0.11560276509484D+03

 The electronic state is 1-A.
 Alpha  occ. eigenvalues --  -19.75723 -10.62149  -1.12094  -0.80122  -0.55227
 Alpha  occ. eigenvalues --   -0.52522  -0.48906  -0.39587  -0.35675
 Alpha virt. eigenvalues --   -0.00769   0.07400   0.12617   0.12876   0.14968
 Alpha virt. eigenvalues --    0.17166   0.18898   0.22531   0.29254   0.34088
 Alpha virt. eigenvalues --    0.34420   0.38086   0.39743   0.42838   0.44430

 Mulliken charges:
               1
     1  C    0.088865
     2  O   -0.471430
     3  H    0.047482
     4  H    0.040069
     5  H    0.057892
     6  H    0.237122
 Sum of Mulliken charges =   0.00000

 Dipole moment (field-independent basis, Debye):
    X=              1.1274    Y=              1.6820    Z=              0.0095  Tot=              2.0249
 Quadrupole moment (field-independent basis, Debye-Ang):
   XX=            -13.1689   YY=            -11.5019   ZZ=            -13.9773
   XY=             -2.3023   XZ=              0.0020   YZ=              0.0585

 Normal termination of Gaussian 09 at Wed Aug 26 21:30:05 2020.
