 Gaussian 09, Revision D.01,
 Gaussian 09:  ES64L-G09RevD.01 24-Apr-2013

 --------------------
 #p B2PLYPD3/Def2QZVP
 --------------------

 --------
 methanol
 --------
 Symbolic Z-matrix:
 Charge =  0 Multiplicity = 1

                         Standard orientation:
 ---------------------------------------------------------------------
 Center     Atomic      Atomic             Coordinates (Angstroms)
 Number     Number       Type             X           Y           Z
 ---------------------------------------------------------------------
      1          6           0        0.651506    0.018441   -0.042498
      2          8           0       -0.716937   -0.197599    0.036710
      3          1           0        1.084473    0.649063    0.774475
      4          1           0        0.848820    0.518290   -0.661940
      5          1           0        1.141625   -0.824746   -0.037723
      6          1           0       -1.248463    1.127542   -0.113508
 ---------------------------------------------------------------------

 SCF Done:  E(RB2PLYPD3) =  -115.365768930     A.U. after   12 cycles
 E2(B2PLYPD3) =    -0.1558156148D+00 E(B2PLYPD3) =    -0.11552158454455D+03

 The electronic state is 1-A.
 Alpha  occ. eigenvalues --  -19.75440 -10.60968  -1.13022  -0.81399  -0.58165
 Alpha  occ. eigenvalues --   -0.50970  -0.50057  -0.39891  -0.34229
 Alpha virt. eigenvalues --   -0.02384   0.07403   0.12490   0.13324   0.15023
 Alpha virt. eigenvalues --    0.17891   0.18130   0.21755   0.29923   0.32248
 Alpha virt. eigenvalues --    0.35494   0.38699   0.39967   0.40583   0.46554

 Mulliken charges:
               1
     1  C    0.007883
     2  O   -0.469782
     3  H    0.025632
     4  H    0.135404
     5  H    0.066444
     6  H    0.234420
 Sum of Mulliken charges =   0.00000

 Dipole moment (field-independent basis, Debye):
    X=              0.9004    Y=              1.7507    Z=             -0.4443  Tot=              2.0182
 Quadrupole moment (field-independent basis, Debye-Ang):
   XX=            -12.8922   YY=            -11.2392   ZZ=            -14.2064
   XY=             -2.6321   XZ=              0.0909   YZ=             -0.3728

 Normal termination of Gaussian 09 at Wed Aug 26 18:49:28 2020.
