 Gaussian 09, Revision D.01,
 Gaussian 09:  ES64L-G09RevD.01 24-Apr-2013

 --------------------
 #p B2PLYPD3/Def2QZVP
 --------------------

 --------
 methanol
 --------
 Symbolic Z-matrix:
 Charge =  0 Multiplicity = 1

                         Standard orientation:
 ---------------------------------------------------------------------
 Center     Atomic      Atomic             Coordinates (Angstroms)
 Number     Number       Type             X           Y           Z
 ---------------------------------------------------------------------
      1          6           0        0.650514   -0.030983   -0.007548
      2          8           0       -0.739322    0.097077    0.002038
      3          1           0        0.934476   -0.658005   -0.905618
      4          1           0        1.091510   -0.426491    1.012588
      5          1           0        1.138362    1.023371   -0.134150
      6          1           0       -1.152855   -0.529593    0.056162
 ---------------------------------------------------------------------

 SCF Done:  E(RB2PLYPD3) =  -115.476296564     A.U. after   10 cycles
 E2(B2PLYPD3) =    -0.1444311403D+00 E(B2PLYPD3) =    -0.11562072770421D+03

 The electronic state is 1-A.
 Alpha  occ. eigenvalues --  -19.70446 -10.68208  -1.22449  -0.80801  -0.61288
 Alpha  occ. eigenvalues --   -0.52161  -0.50270  -0.39539  -0.35826
 Alpha virt. eigenvalues --    0.05396   0.08894   0.11896   0.12209   0.14256
 Alpha virt. eigenvalues --    0.17151   0.18131   0.28613   0.32726   0.33813
 Alpha virt. eigenvalues --    0.36138   0.38152   0.39491   0.40358   0.43022

 Mulliken charges:
               1
     1  C    0.050271
     2  O   -0.292074
     3  H    0.053240
     4  H    0.046599
     5  H    0.071180
     6  H    0.070783
 Sum of Mulliken charges =   0.00000

 Dipole moment (field-independent basis, Debye):
    X=              0.7008    Y=             -1.2339    Z=              0.0516  Tot=              1.4200
 Quadrupole moment (field-independent basis, Debye-Ang):
   XX=            -12.8130   YY=            -12.8513   ZZ=            -13.5609
   XY=              2.1180   XZ=             -0.1032   YZ=             -0.0034

 Normal termination of Gaussian 09 at Wed Aug 26 11:38:01 2020.
