 Gaussian 09, Revision D.01,
 Gaussian 09:  ES64L-G09RevD.01 24-Apr-2013

 --------------------
 #p B2PLYPD3/Def2QZVP
 --------------------

 --------
 methanol
 --------
 Symbolic Z-matrix:
 Charge =  0 Multiplicity = 1

                         Standard orientation:
 ---------------------------------------------------------------------
 Center     Atomic      Atomic             Coordinates (Angstroms)
 Number     Number       Type             X           Y           Z
 ---------------------------------------------------------------------
      1          6           0       -0.657260   -0.039734   -0.002356
      2          8           0        0.745285    0.121094   -0.006884
      3          1           0       -0.956579   -0.524594    0.927136
      4          1           0       -1.010259   -0.560582   -0.891648
      5          1           0       -1.191307    1.008757    0.008834
      6          1           0        1.139425   -0.653924    0.024891
 ---------------------------------------------------------------------

 SCF Done:  E(RB2PLYPD3) =  -115.539817155     A.U. after   10 cycles
 E2(B2PLYPD3) =    -0.1458751798D+00 E(B2PLYPD3) =    -0.11568569233466D+03

 The electronic state is 1-A.
 Alpha  occ. eigenvalues --  -19.71686 -10.66630  -1.18528  -0.79053  -0.59964
 Alpha  occ. eigenvalues --   -0.52757  -0.49567  -0.40073  -0.35816
 Alpha virt. eigenvalues --    0.05289   0.08481   0.12197   0.12302   0.14426
 Alpha virt. eigenvalues --    0.17599   0.18075   0.28922   0.33176   0.33484
 Alpha virt. eigenvalues --    0.35755   0.38105   0.40249   0.41175   0.43979

 Mulliken charges:
               1
     1  C    0.065076
     2  O   -0.414213
     3  H    0.052809
     4  H    0.055298
     5  H    0.060205
     6  H    0.180825
 Sum of Mulliken charges =   0.00000

 Dipole moment (field-independent basis, Debye):
    X=             -0.8256    Y=             -1.4787    Z=              0.0649  Tot=              1.6948
 Quadrupole moment (field-independent basis, Debye-Ang):
   XX=            -12.9282   YY=            -12.5950   ZZ=            -13.6244
   XY=             -2.2117   XZ=              0.1220   YZ=             -0.0066

 Normal termination of Gaussian 09 at Wed Aug 26 15:28:57 2020.
