 Gaussian 09, Revision D.01,
 Gaussian 09:  ES64L-G09RevD.01 24-Apr-2013

 --------------------
 #p B2PLYPD3/Def2QZVP
 --------------------

 --------
 methanol
 --------
 Symbolic Z-matrix:
 Charge =  0 Multiplicity = 1

                         Standard orientation:
 ---------------------------------------------------------------------
 Center     Atomic      Atomic             Coordinates (Angstroms)
 Number     Number       Type             X           Y           Z
 ---------------------------------------------------------------------
      1          6           0       -0.662189   -0.005540    0.012478
      2          8           0        0.751560    0.088854   -0.025645
      3          1           0       -1.051109   -0.281539    1.022225
      4          1           0       -1.053336   -0.798257   -0.804050
      5          1           0       -1.047113    0.991206   -0.245005
      6          1           0        1.112214   -0.589003    0.157125
 ---------------------------------------------------------------------

 SCF Done:  E(RB2PLYPD3) =  -115.506862851     A.U. after   11 cycles
 E2(B2PLYPD3) =    -0.1449603928D+00 E(B2PLYPD3) =    -0.11565182324408D+03

 The electronic state is 1-A.
 Alpha  occ. eigenvalues --  -19.70961 -10.67559  -1.20831  -0.80114  -0.60721
 Alpha  occ. eigenvalues --   -0.51000  -0.50637  -0.41131  -0.35631
 Alpha virt. eigenvalues --    0.05380   0.08804   0.11851   0.12308   0.14651
 Alpha virt. eigenvalues --    0.17002   0.18015   0.28822   0.32666   0.33341
 Alpha virt. eigenvalues --    0.36402   0.39075   0.39908   0.40131   0.42722

 Mulliken charges:
               1
     1  C    0.056496
     2  O   -0.339316
     3  H    0.053662
     4  H    0.037788
     5  H    0.080850
     6  H    0.110520
 Sum of Mulliken charges =   0.00000

 Dipole moment (field-independent basis, Debye):
    X=             -0.8534    Y=             -1.1952    Z=              0.4191  Tot=              1.5272
 Quadrupole moment (field-independent basis, Debye-Ang):
   XX=            -13.0780   YY=            -12.5668   ZZ=            -13.5971
   XY=             -2.0532   XZ=              0.4210   YZ=             -0.2998

 Normal termination of Gaussian 09 at Wed Aug 26 14:19:32 2020.
