 Gaussian 09, Revision D.01,
 Gaussian 09:  ES64L-G09RevD.01 24-Apr-2013

 --------------------
 #p B2PLYPD3/Def2QZVP
 --------------------

 --------
 methanol
 --------
 Symbolic Z-matrix:
 Charge =  0 Multiplicity = 1

                         Standard orientation:
 ---------------------------------------------------------------------
 Center     Atomic      Atomic             Coordinates (Angstroms)
 Number     Number       Type             X           Y           Z
 ---------------------------------------------------------------------
      1          6           0        0.679495    0.034211    0.001250
      2          8           0       -0.726992   -0.184465    0.019944
      3          1           0        0.990287    0.555299    0.857194
      4          1           0        1.092942    0.421735   -0.796652
      5          1           0        0.973269   -0.801713   -0.072963
      6          1           0       -1.317527    1.095132   -0.154633
 ---------------------------------------------------------------------

 SCF Done:  E(RB2PLYPD3) =  -115.409973692     A.U. after   11 cycles
 E2(B2PLYPD3) =    -0.1561359931D+00 E(B2PLYPD3) =    -0.11556610968519D+03

 The electronic state is 1-A.
 Alpha  occ. eigenvalues --  -19.75222 -10.61258  -1.11638  -0.80885  -0.55820
 Alpha  occ. eigenvalues --   -0.53340  -0.48225  -0.39193  -0.35228
 Alpha virt. eigenvalues --   -0.01437   0.07497   0.12636   0.12933   0.14886
 Alpha virt. eigenvalues --    0.16754   0.18808   0.22266   0.29282   0.33112
 Alpha virt. eigenvalues --    0.34905   0.38018   0.39875   0.43058   0.45038

 Mulliken charges:
               1
     1  C    0.053265
     2  O   -0.483091
     3  H    0.054844
     4  H    0.043775
     5  H    0.101334
     6  H    0.229872
 Sum of Mulliken charges =   0.00000

 Dipole moment (field-independent basis, Debye):
    X=              1.0182    Y=              1.6067    Z=             -0.3189  Tot=              1.9287
 Quadrupole moment (field-independent basis, Debye-Ang):
   XX=            -12.6776   YY=            -11.6629   ZZ=            -13.7998
   XY=             -2.5656   XZ=              0.0969   YZ=             -0.0909

 Normal termination of Gaussian 09 at Wed Aug 26 22:34:52 2020.
