 Gaussian 09, Revision D.01,
 Gaussian 09:  ES64L-G09RevD.01 24-Apr-2013

 --------------------
 #p B2PLYPD3/Def2QZVP
 --------------------

 --------
 methanol
 --------
 Symbolic Z-matrix:
 Charge =  0 Multiplicity = 1

                         Standard orientation:
 ---------------------------------------------------------------------
 Center     Atomic      Atomic             Coordinates (Angstroms)
 Number     Number       Type             X           Y           Z
 ---------------------------------------------------------------------
      1          6           0        0.671756    0.019082   -0.027267
      2          8           0       -0.745967   -0.185518    0.024869
      3          1           0        1.050355    0.605792    0.773553
      4          1           0        0.923099    0.390301   -0.742691
      5          1           0        1.040179   -0.840260    0.028399
      6          1           0       -1.076435    1.213821   -0.094614
 ---------------------------------------------------------------------

 SCF Done:  E(RB2PLYPD3) =  -115.373862030     A.U. after   12 cycles
 E2(B2PLYPD3) =    -0.1569338814D+00 E(B2PLYPD3) =    -0.11553079591145D+03

 The electronic state is 1-A.
 Alpha  occ. eigenvalues --  -19.75569 -10.60526  -1.11538  -0.81923  -0.57285
 Alpha  occ. eigenvalues --   -0.53070  -0.48256  -0.39784  -0.35449
 Alpha virt. eigenvalues --   -0.02203   0.07542   0.12544   0.12823   0.14656
 Alpha virt. eigenvalues --    0.17561   0.18279   0.21900   0.29510   0.33202
 Alpha virt. eigenvalues --    0.33806   0.38412   0.40135   0.42392   0.46383

 Mulliken charges:
               1
     1  C    0.048085
     2  O   -0.477721
     3  H    0.042079
     4  H    0.101656
     5  H    0.063818
     6  H    0.222082
 Sum of Mulliken charges =   0.00000

 Dipole moment (field-independent basis, Debye):
    X=              1.3561    Y=              1.7080    Z=             -0.2888  Tot=              2.1999
 Quadrupole moment (field-independent basis, Debye-Ang):
   XX=            -13.6281   YY=            -11.0045   ZZ=            -13.8676
   XY=             -2.1573   XZ=              0.0661   YZ=             -0.2238

 Normal termination of Gaussian 09 at Wed Aug 26 21:55:48 2020.
