 Gaussian 09, Revision D.01,
 Gaussian 09:  ES64L-G09RevD.01 24-Apr-2013

 --------------------
 #p B2PLYPD3/Def2QZVP
 --------------------

 --------
 methanol
 --------
 Symbolic Z-matrix:
 Charge =  0 Multiplicity = 1

                         Standard orientation:
 ---------------------------------------------------------------------
 Center     Atomic      Atomic             Coordinates (Angstroms)
 Number     Number       Type             X           Y           Z
 ---------------------------------------------------------------------
      1          6           0        0.708867    0.019448   -0.021270
      2          8           0       -0.752161   -0.182983    0.031436
      3          1           0        1.118327    0.609038    0.776969
      4          1           0        0.915120    0.531161   -0.709220
      5          1           0        1.048415   -0.878292   -0.081467
      6          1           0       -1.317774    1.085270   -0.110152
 ---------------------------------------------------------------------

 SCF Done:  E(RB2PLYPD3) =  -115.410777023     A.U. after   12 cycles
 E2(B2PLYPD3) =    -0.1562277201D+00 E(B2PLYPD3) =    -0.11556700474356D+03

 The electronic state is 1-A.
 Alpha  occ. eigenvalues --  -19.75003 -10.61778  -1.09833  -0.81245  -0.57163
 Alpha  occ. eigenvalues --   -0.51221  -0.47585  -0.40196  -0.34953
 Alpha virt. eigenvalues --   -0.00970   0.07319   0.12291   0.13134   0.14667
 Alpha virt. eigenvalues --    0.17079   0.17948   0.22573   0.29180   0.32301
 Alpha virt. eigenvalues --    0.33399   0.38619   0.40034   0.40527   0.45972

 Mulliken charges:
               1
     1  C    0.068712
     2  O   -0.508216
     3  H    0.047287
     4  H    0.080858
     5  H    0.078640
     6  H    0.232719
 Sum of Mulliken charges =   0.00000

 Dipole moment (field-independent basis, Debye):
    X=              1.1285    Y=              1.7401    Z=             -0.3557  Tot=              2.1043
 Quadrupole moment (field-independent basis, Debye-Ang):
   XX=            -12.6673   YY=            -11.2972   ZZ=            -14.1463
   XY=             -2.5041   XZ=              0.1848   YZ=             -0.2039

 Normal termination of Gaussian 09 at Thu Aug 27 00:48:48 2020.
