 Gaussian 09, Revision D.01,
 Gaussian 09:  ES64L-G09RevD.01 24-Apr-2013

 --------------------
 #p B2PLYPD3/Def2QZVP
 --------------------

 --------
 methanol
 --------
 Symbolic Z-matrix:
 Charge =  0 Multiplicity = 1

                         Standard orientation:
 ---------------------------------------------------------------------
 Center     Atomic      Atomic             Coordinates (Angstroms)
 Number     Number       Type             X           Y           Z
 ---------------------------------------------------------------------
      1          6           0        0.691830    0.026354    0.020257
      2          8           0       -0.732547   -0.164796   -0.004808
      3          1           0        0.955445    0.463120    0.878783
      4          1           0        1.050124    0.584337   -0.829582
      5          1           0        1.035658   -0.836775   -0.108513
      6          1           0       -1.331829    0.949567   -0.023767
 ---------------------------------------------------------------------

 SCF Done:  E(RB2PLYPD3) =  -115.474072066     A.U. after   11 cycles
 E2(B2PLYPD3) =    -0.1525927507D+00 E(B2PLYPD3) =    -0.11562666481684D+03

 The electronic state is 1-A.
 Alpha  occ. eigenvalues --  -19.73964 -10.62523  -1.11400  -0.79636  -0.56017
 Alpha  occ. eigenvalues --   -0.52533  -0.49133  -0.39714  -0.34857
 Alpha virt. eigenvalues --    0.01480   0.07611   0.12659   0.12948   0.14665
 Alpha virt. eigenvalues --    0.16994   0.18375   0.25102   0.29368   0.33075
 Alpha virt. eigenvalues --    0.33934   0.38308   0.40635   0.42818   0.44343

 Mulliken charges:
               1
     1  C    0.083392
     2  O   -0.513896
     3  H    0.056999
     4  H    0.041935
     5  H    0.079823
     6  H    0.251747
 Sum of Mulliken charges =   0.00000

 Dipole moment (field-independent basis, Debye):
    X=              0.8745    Y=              1.6066    Z=              0.0056  Tot=              1.8292
 Quadrupole moment (field-independent basis, Debye-Ang):
   XX=            -12.4343   YY=            -11.9545   ZZ=            -13.7745
   XY=             -2.7029   XZ=             -0.0129   YZ=              0.0965

 Normal termination of Gaussian 09 at Wed Aug 26 21:11:09 2020.
