 Gaussian 09, Revision D.01,
 Gaussian 09:  ES64L-G09RevD.01 24-Apr-2013

 --------------------
 #p B2PLYPD3/Def2QZVP
 --------------------

 --------
 methanol
 --------
 Symbolic Z-matrix:
 Charge =  0 Multiplicity = 1

                         Standard orientation:
 ---------------------------------------------------------------------
 Center     Atomic      Atomic             Coordinates (Angstroms)
 Number     Number       Type             X           Y           Z
 ---------------------------------------------------------------------
      1          6           0       -0.658718    0.021663    0.000911
      2          8           0        0.743346   -0.143247    0.000577
      3          1           0       -1.070459    0.499025   -0.848964
      4          1           0       -0.975509    0.565234    0.854863
      5          1           0       -1.099349   -0.923735    0.025014
      6          1           0        1.150855    0.875477   -0.041000
 ---------------------------------------------------------------------

 SCF Done:  E(RB2PLYPD3) =  -115.533475742     A.U. after   11 cycles
 E2(B2PLYPD3) =    -0.1494389698D+00 E(B2PLYPD3) =    -0.11568291471209D+03

 The electronic state is 1-A.
 Alpha  occ. eigenvalues --  -19.73699 -10.64084  -1.14255  -0.78680  -0.57170
 Alpha  occ. eigenvalues --   -0.52167  -0.49836  -0.40936  -0.35149
 Alpha virt. eigenvalues --    0.03761   0.07865   0.12619   0.12674   0.14933
 Alpha virt. eigenvalues --    0.17547   0.18271   0.28843   0.30218   0.33282
 Alpha virt. eigenvalues --    0.34515   0.39230   0.40058   0.41862   0.43895

 Mulliken charges:
               1
     1  C    0.078976
     2  O   -0.481481
     3  H    0.042712
     4  H    0.043477
     5  H    0.065531
     6  H    0.250786
 Sum of Mulliken charges =   0.00000

 Dipole moment (field-independent basis, Debye):
    X=             -0.8996    Y=              1.6156    Z=             -0.0682  Tot=              1.8504
 Quadrupole moment (field-independent basis, Debye-Ang):
   XX=            -13.0025   YY=            -11.9823   ZZ=            -13.8867
   XY=              2.3894   XZ=             -0.0042   YZ=             -0.0414

 Normal termination of Gaussian 09 at Wed Aug 26 10:11:15 2020.
