 Gaussian 09, Revision D.01,
 Gaussian 09:  ES64L-G09RevD.01 24-Apr-2013

 --------------------
 #p B2PLYPD3/Def2QZVP
 --------------------

 --------
 methanol
 --------
 Symbolic Z-matrix:
 Charge =  0 Multiplicity = 1

                         Standard orientation:
 ---------------------------------------------------------------------
 Center     Atomic      Atomic             Coordinates (Angstroms)
 Number     Number       Type             X           Y           Z
 ---------------------------------------------------------------------
      1          6           0        0.665469    0.008127    0.009963
      2          8           0       -0.762078   -0.071613   -0.042919
      3          1           0        0.982761    0.006512    1.143474
      4          1           0        1.034346    1.017876   -0.558954
      5          1           0        1.210556   -0.895511   -0.507739
      6          1           0       -1.123851    0.395261    0.206795
 ---------------------------------------------------------------------

 SCF Done:  E(RB2PLYPD3) =  -115.310216411     A.U. after   11 cycles
 E2(B2PLYPD3) =    -0.1439455267D+00 E(B2PLYPD3) =    -0.11545416193765D+03

 The electronic state is 1-A.
 Alpha  occ. eigenvalues --  -19.69138 -10.69908  -1.26316  -0.82087  -0.61769
 Alpha  occ. eigenvalues --   -0.51061  -0.50500  -0.39937  -0.36123
 Alpha virt. eigenvalues --    0.05172   0.09225   0.11415   0.11993   0.13869
 Alpha virt. eigenvalues --    0.17320   0.17624   0.28414   0.31652   0.32461
 Alpha virt. eigenvalues --    0.35273   0.36466   0.37987   0.40766   0.43350

 Mulliken charges:
               1
     1  C    0.056943
     2  O   -0.208218
     3  H    0.052911
     4  H    0.044715
     5  H    0.086639
     6  H   -0.032992
 Sum of Mulliken charges =   0.00000

 Dipole moment (field-independent basis, Debye):
    X=              0.9601    Y=              0.9376    Z=              0.5456  Tot=              1.4487
 Quadrupole moment (field-independent basis, Debye-Ang):
   XX=            -12.8371   YY=            -12.9873   ZZ=            -13.3776
   XY=             -1.8413   XZ=             -0.9990   YZ=              0.2837

 Normal termination of Gaussian 09 at Wed Aug 26 22:49:35 2020.
