 Gaussian 09, Revision D.01,
 Gaussian 09:  ES64L-G09RevD.01 24-Apr-2013

 --------------------
 #p B2PLYPD3/Def2QZVP
 --------------------

 --------
 methanol
 --------
 Symbolic Z-matrix:
 Charge =  0 Multiplicity = 1

                         Standard orientation:
 ---------------------------------------------------------------------
 Center     Atomic      Atomic             Coordinates (Angstroms)
 Number     Number       Type             X           Y           Z
 ---------------------------------------------------------------------
      1          6           0        0.685876    0.006900   -0.001256
      2          8           0       -0.768921    0.083933   -0.035451
      3          1           0        1.100961   -0.907606   -0.684711
      4          1           0        1.003426   -0.229030    1.039116
      5          1           0        1.088386    0.983106   -0.256080
      6          1           0       -1.156662   -0.559333    0.192818
 ---------------------------------------------------------------------

 SCF Done:  E(RB2PLYPD3) =  -115.499126862     A.U. after   11 cycles
 E2(B2PLYPD3) =    -0.1453612089D+00 E(B2PLYPD3) =    -0.11564448807131D+03

 The electronic state is 1-A.
 Alpha  occ. eigenvalues --  -19.70588 -10.68024  -1.19573  -0.80270  -0.60195
 Alpha  occ. eigenvalues --   -0.50862  -0.49930  -0.41176  -0.35501
 Alpha virt. eigenvalues --    0.05335   0.08629   0.11704   0.12288   0.14573
 Alpha virt. eigenvalues --    0.16847   0.17865   0.28992   0.31345   0.32609
 Alpha virt. eigenvalues --    0.36328   0.38302   0.39533   0.40370   0.42630

 Mulliken charges:
               1
     1  C    0.069818
     2  O   -0.358957
     3  H    0.040988
     4  H    0.051745
     5  H    0.090940
     6  H    0.105466
 Sum of Mulliken charges =   0.00000

 Dipole moment (field-independent basis, Debye):
    X=              0.9934    Y=             -1.1483    Z=              0.5319  Tot=              1.6089
 Quadrupole moment (field-independent basis, Debye-Ang):
   XX=            -12.8741   YY=            -12.4500   ZZ=            -13.7413
   XY=              2.0593   XZ=             -0.6326   YZ=             -0.3300

 Normal termination of Gaussian 09 at Wed Aug 26 21:33:43 2020.
