 Gaussian 09, Revision D.01,
 Gaussian 09:  ES64L-G09RevD.01 24-Apr-2013

 --------------------
 #p B2PLYPD3/Def2QZVP
 --------------------

 --------
 methanol
 --------
 Symbolic Z-matrix:
 Charge =  0 Multiplicity = 1

                         Standard orientation:
 ---------------------------------------------------------------------
 Center     Atomic      Atomic             Coordinates (Angstroms)
 Number     Number       Type             X           Y           Z
 ---------------------------------------------------------------------
      1          6           0       -0.658767   -0.014742    0.005371
      2          8           0        0.747189    0.108893   -0.006449
      3          1           0       -1.023091   -0.507061    0.912390
      4          1           0       -0.994086   -0.615768   -0.892883
      5          1           0       -1.098484    1.009976   -0.048320
      6          1           0        1.090756   -0.669843    0.048184
 ---------------------------------------------------------------------

 SCF Done:  E(RB2PLYPD3) =  -115.539362413     A.U. after   10 cycles
 E2(B2PLYPD3) =    -0.1455419721D+00 E(B2PLYPD3) =    -0.11568490438550D+03

 The electronic state is 1-A.
 Alpha  occ. eigenvalues --  -19.71564 -10.66506  -1.19153  -0.79260  -0.60282
 Alpha  occ. eigenvalues --   -0.51760  -0.50248  -0.41318  -0.35505
 Alpha virt. eigenvalues --    0.05293   0.08719   0.12195   0.12276   0.14783
 Alpha virt. eigenvalues --    0.17343   0.17816   0.29032   0.32967   0.33615
 Alpha virt. eigenvalues --    0.37271   0.38791   0.39821   0.40446   0.43471

 Mulliken charges:
               1
     1  C    0.066928
     2  O   -0.398558
     3  H    0.048375
     4  H    0.043017
     5  H    0.072563
     6  H    0.167675
 Sum of Mulliken charges =   0.00000

 Dipole moment (field-independent basis, Debye):
    X=             -0.8929    Y=             -1.4040    Z=              0.1356  Tot=              1.6694
 Quadrupole moment (field-independent basis, Debye-Ang):
   XX=            -13.1824   YY=            -12.3095   ZZ=            -13.7229
   XY=             -2.1377   XZ=              0.0658   YZ=             -0.0987

 Normal termination of Gaussian 09 at Thu Aug 27 00:12:40 2020.
