 Gaussian 09, Revision D.01,
 Gaussian 09:  ES64L-G09RevD.01 24-Apr-2013

 --------------------
 #p B2PLYPD3/Def2QZVP
 --------------------

 --------
 methanol
 --------
 Symbolic Z-matrix:
 Charge =  0 Multiplicity = 1

                         Standard orientation:
 ---------------------------------------------------------------------
 Center     Atomic      Atomic             Coordinates (Angstroms)
 Number     Number       Type             X           Y           Z
 ---------------------------------------------------------------------
      1          6           0        0.654371   -0.019486    0.012963
      2          8           0       -0.743525    0.106646   -0.012641
      3          1           0        1.062923   -0.672117   -0.849442
      4          1           0        1.008058   -0.434573    0.946617
      5          1           0        1.096358    1.020480   -0.116874
      6          1           0       -1.145360   -0.650038    0.043049
 ---------------------------------------------------------------------

 SCF Done:  E(RB2PLYPD3) =  -115.538555917     A.U. after   10 cycles
 E2(B2PLYPD3) =    -0.1456606004D+00 E(B2PLYPD3) =    -0.11568421651742D+03

 The electronic state is 1-A.
 Alpha  occ. eigenvalues --  -19.71703 -10.66813  -1.19025  -0.79299  -0.60503
 Alpha  occ. eigenvalues --   -0.51649  -0.50073  -0.40604  -0.35530
 Alpha virt. eigenvalues --    0.05309   0.08552   0.12150   0.12336   0.14869
 Alpha virt. eigenvalues --    0.17201   0.18021   0.29016   0.33059   0.33989
 Alpha virt. eigenvalues --    0.36854   0.38649   0.39136   0.40783   0.43060

 Mulliken charges:
               1
     1  C    0.062884
     2  O   -0.400747
     3  H    0.039206
     4  H    0.054216
     5  H    0.070254
     6  H    0.174187
 Sum of Mulliken charges =   0.00000

 Dipole moment (field-independent basis, Debye):
    X=              0.7606    Y=             -1.3870    Z=              0.1727  Tot=              1.5912
 Quadrupole moment (field-independent basis, Debye-Ang):
   XX=            -12.9135   YY=            -12.4765   ZZ=            -13.7671
   XY=              2.1534   XZ=             -0.1229   YZ=             -0.1324

 Normal termination of Gaussian 09 at Thu Aug 27 00:03:25 2020.
