 Gaussian 09, Revision D.01,
 Gaussian 09:  ES64L-G09RevD.01 24-Apr-2013

 --------------------
 #p B2PLYPD3/Def2QZVP
 --------------------

 --------
 methanol
 --------
 Symbolic Z-matrix:
 Charge =  0 Multiplicity = 1

                         Standard orientation:
 ---------------------------------------------------------------------
 Center     Atomic      Atomic             Coordinates (Angstroms)
 Number     Number       Type             X           Y           Z
 ---------------------------------------------------------------------
      1          6           0        0.687884   -0.019115   -0.007259
      2          8           0       -0.758615    0.096870   -0.004451
      3          1           0        1.032852   -0.621655   -0.889552
      4          1           0        0.985058   -0.484860    1.009344
      5          1           0        1.096184    1.018085   -0.052972
      6          1           0       -1.172480   -0.571842    0.012342
 ---------------------------------------------------------------------

 SCF Done:  E(RB2PLYPD3) =  -115.504992892     A.U. after   11 cycles
 E2(B2PLYPD3) =    -0.1450938059D+00 E(B2PLYPD3) =    -0.11565008669814D+03

 The electronic state is 1-A.
 Alpha  occ. eigenvalues --  -19.70248 -10.67747  -1.19416  -0.80230  -0.59884
 Alpha  occ. eigenvalues --   -0.51347  -0.50128  -0.40440  -0.35700
 Alpha virt. eigenvalues --    0.05431   0.08776   0.11854   0.12273   0.14215
 Alpha virt. eigenvalues --    0.16948   0.17864   0.28971   0.31443   0.33146
 Alpha virt. eigenvalues --    0.37150   0.39009   0.39529   0.39956   0.42709

 Mulliken charges:
               1
     1  C    0.065948
     2  O   -0.362788
     3  H    0.057910
     4  H    0.052339
     5  H    0.082682
     6  H    0.103909
 Sum of Mulliken charges =   0.00000

 Dipole moment (field-independent basis, Debye):
    X=              0.9513    Y=             -1.2775    Z=              0.0010  Tot=              1.5927
 Quadrupole moment (field-independent basis, Debye-Ang):
   XX=            -12.8380   YY=            -12.5750   ZZ=            -13.5468
   XY=              2.1683   XZ=             -0.1531   YZ=              0.0389

 Normal termination of Gaussian 09 at Wed Aug 26 12:05:52 2020.
