 Gaussian 09, Revision D.01,
 Gaussian 09:  ES64L-G09RevD.01 24-Apr-2013

 --------------------
 #p B2PLYPD3/Def2QZVP
 --------------------

 --------
 methanol
 --------
 Symbolic Z-matrix:
 Charge =  0 Multiplicity = 1

                         Standard orientation:
 ---------------------------------------------------------------------
 Center     Atomic      Atomic             Coordinates (Angstroms)
 Number     Number       Type             X           Y           Z
 ---------------------------------------------------------------------
      1          6           0        0.661438   -0.014588    0.008810
      2          8           0       -0.740857    0.076176   -0.026648
      3          1           0        1.027879   -0.879882   -0.711783
      4          1           0        0.975719   -0.178400    1.061017
      5          1           0        1.018880    1.036289   -0.334871
      6          1           0       -1.064250   -0.499886    0.145963
 ---------------------------------------------------------------------

 SCF Done:  E(RB2PLYPD3) =  -115.397426522     A.U. after   11 cycles
 E2(B2PLYPD3) =    -0.1434797171D+00 E(B2PLYPD3) =    -0.11554090623935D+03

 The electronic state is 1-A.
 Alpha  occ. eigenvalues --  -19.69349 -10.68021  -1.25217  -0.81690  -0.61688
 Alpha  occ. eigenvalues --   -0.52098  -0.50289  -0.40904  -0.36012
 Alpha virt. eigenvalues --    0.05364   0.09434   0.11677   0.12023   0.14525
 Alpha virt. eigenvalues --    0.16680   0.17716   0.28667   0.32752   0.33166
 Alpha virt. eigenvalues --    0.36726   0.37868   0.40174   0.41036   0.42868

 Mulliken charges:
               1
     1  C    0.052596
     2  O   -0.231620
     3  H    0.043803
     4  H    0.055725
     5  H    0.077789
     6  H    0.001707
 Sum of Mulliken charges =   0.00000

 Dipole moment (field-independent basis, Debye):
    X=              0.8778    Y=             -1.1440    Z=              0.4145  Tot=              1.5003
 Quadrupole moment (field-independent basis, Debye-Ang):
   XX=            -13.3210   YY=            -12.4764   ZZ=            -13.4140
   XY=              1.7927   XZ=             -0.4985   YZ=             -0.2230

 Normal termination of Gaussian 09 at Wed Aug 26 11:11:33 2020.
