 Gaussian 09, Revision D.01,
 Gaussian 09:  ES64L-G09RevD.01 24-Apr-2013

 --------------------
 #p B2PLYPD3/Def2QZVP
 --------------------

 --------
 methanol
 --------
 Symbolic Z-matrix:
 Charge =  0 Multiplicity = 1

                         Standard orientation:
 ---------------------------------------------------------------------
 Center     Atomic      Atomic             Coordinates (Angstroms)
 Number     Number       Type             X           Y           Z
 ---------------------------------------------------------------------
      1          6           0        0.662604    0.028084   -0.018276
      2          8           0       -0.720817   -0.154916   -0.000132
      3          1           0        0.844578    0.543795    0.910185
      4          1           0        1.049821    0.515641   -0.772775
      5          1           0        1.049835   -0.904359    0.037971
      6          1           0       -1.153325    0.915753   -0.064672
 ---------------------------------------------------------------------

 SCF Done:  E(RB2PLYPD3) =  -115.506934888     A.U. after   11 cycles
 E2(B2PLYPD3) =    -0.1501064767D+00 E(B2PLYPD3) =    -0.11565704136493D+03

 The electronic state is 1-A.
 Alpha  occ. eigenvalues --  -19.73542 -10.62744  -1.14114  -0.78913  -0.57537
 Alpha  occ. eigenvalues --   -0.53234  -0.49622  -0.40759  -0.34523
 Alpha virt. eigenvalues --    0.03003   0.08062   0.12438   0.12831   0.14792
 Alpha virt. eigenvalues --    0.17336   0.18190   0.27742   0.29747   0.32729
 Alpha virt. eigenvalues --    0.35258   0.39133   0.40205   0.42453   0.45565

 Mulliken charges:
               1
     1  C    0.082400
     2  O   -0.478061
     3  H    0.041134
     4  H    0.041818
     5  H    0.063529
     6  H    0.249179
 Sum of Mulliken charges =   0.00000

 Dipole moment (field-independent basis, Debye):
    X=              0.8778    Y=              1.6363    Z=             -0.1647  Tot=              1.8641
 Quadrupole moment (field-independent basis, Debye-Ang):
   XX=            -13.1708   YY=            -11.8097   ZZ=            -13.7547
   XY=             -2.4224   XZ=             -0.1571   YZ=             -0.1962

 Normal termination of Gaussian 09 at Wed Aug 26 23:08:19 2020.
