 Gaussian 09, Revision D.01,
 Gaussian 09:  ES64L-G09RevD.01 24-Apr-2013

 --------------------
 #p B2PLYPD3/Def2QZVP
 --------------------

 --------
 methanol
 --------
 Symbolic Z-matrix:
 Charge =  0 Multiplicity = 1

                         Standard orientation:
 ---------------------------------------------------------------------
 Center     Atomic      Atomic             Coordinates (Angstroms)
 Number     Number       Type             X           Y           Z
 ---------------------------------------------------------------------
      1          6           0       -0.691829    0.032629   -0.027098
      2          8           0        0.720915   -0.179530    0.002541
      3          1           0       -1.011353    0.437660   -0.760723
      4          1           0       -0.912856    0.669782    0.763151
      5          1           0       -1.015070   -0.876349    0.164601
      6          1           0        1.322933    1.009377   -0.024772
 ---------------------------------------------------------------------

 SCF Done:  E(RB2PLYPD3) =  -115.437433303     A.U. after   12 cycles
 E2(B2PLYPD3) =    -0.1538247198D+00 E(B2PLYPD3) =    -0.11559125802285D+03

 The electronic state is 1-A.
 Alpha  occ. eigenvalues --  -19.74257 -10.61349  -1.11475  -0.80332  -0.57523
 Alpha  occ. eigenvalues --   -0.52871  -0.48321  -0.39699  -0.34752
 Alpha virt. eigenvalues --    0.00249   0.07689   0.12494   0.13103   0.14857
 Alpha virt. eigenvalues --    0.16961   0.18001   0.23676   0.29606   0.33109
 Alpha virt. eigenvalues --    0.34339   0.37973   0.39859   0.43216   0.47170

 Mulliken charges:
               1
     1  C    0.085933
     2  O   -0.501217
     3  H    0.064415
     4  H    0.038189
     5  H    0.074259
     6  H    0.238422
 Sum of Mulliken charges =   0.00000

 Dipole moment (field-independent basis, Debye):
    X=             -0.9440    Y=              1.7034    Z=             -0.0873  Tot=              1.9494
 Quadrupole moment (field-independent basis, Debye-Ang):
   XX=            -12.6135   YY=            -11.5672   ZZ=            -13.9061
   XY=              2.5435   XZ=              0.1015   YZ=             -0.1773

 Normal termination of Gaussian 09 at Wed Aug 26 21:42:33 2020.
