 Gaussian 09, Revision D.01,
 Gaussian 09:  ES64L-G09RevD.01 24-Apr-2013

 --------------------
 #p B2PLYPD3/Def2QZVP
 --------------------

 --------
 methanol
 --------
 Symbolic Z-matrix:
 Charge =  0 Multiplicity = 1

                         Standard orientation:
 ---------------------------------------------------------------------
 Center     Atomic      Atomic             Coordinates (Angstroms)
 Number     Number       Type             X           Y           Z
 ---------------------------------------------------------------------
      1          6           0        0.674473    0.044749    0.005559
      2          8           0       -0.752043   -0.162509   -0.012219
      3          1           0        1.043241    0.381064    0.853211
      4          1           0        1.047683    0.635939   -0.764469
      5          1           0        1.140049   -0.917847   -0.089904
      6          1           0       -1.261464    0.932424    0.065560
 ---------------------------------------------------------------------

 SCF Done:  E(RB2PLYPD3) =  -115.500571296     A.U. after   11 cycles
 E2(B2PLYPD3) =    -0.1519476478D+00 E(B2PLYPD3) =    -0.11565251894430D+03

 The electronic state is 1-A.
 Alpha  occ. eigenvalues --  -19.74444 -10.63503  -1.11928  -0.79415  -0.55231
 Alpha  occ. eigenvalues --   -0.52644  -0.48716  -0.40152  -0.35515
 Alpha virt. eigenvalues --    0.02320   0.07420   0.12529   0.12910   0.14867
 Alpha virt. eigenvalues --    0.17404   0.18613   0.26100   0.29348   0.33372
 Alpha virt. eigenvalues --    0.33968   0.38541   0.39668   0.42703   0.43884

 Mulliken charges:
               1
     1  C    0.088328
     2  O   -0.500031
     3  H    0.053261
     4  H    0.047861
     5  H    0.056978
     6  H    0.253603
 Sum of Mulliken charges =   0.00000

 Dipole moment (field-independent basis, Debye):
    X=              0.9299    Y=              1.7062    Z=              0.1691  Tot=              1.9505
 Quadrupole moment (field-independent basis, Debye-Ang):
   XX=            -12.5333   YY=            -12.0080   ZZ=            -13.9437
   XY=             -2.4984   XZ=             -0.1083   YZ=              0.0660

 Normal termination of Gaussian 09 at Wed Aug 26 16:04:53 2020.
