 Gaussian 09, Revision D.01,
 Gaussian 09:  ES64L-G09RevD.01 24-Apr-2013

 --------------------
 #p B2PLYPD3/Def2QZVP
 --------------------

 --------
 methanol
 --------
 Symbolic Z-matrix:
 Charge =  0 Multiplicity = 1

                         Standard orientation:
 ---------------------------------------------------------------------
 Center     Atomic      Atomic             Coordinates (Angstroms)
 Number     Number       Type             X           Y           Z
 ---------------------------------------------------------------------
      1          6           0       -0.648584    0.022448   -0.033161
      2          8           0        0.726313   -0.198654    0.018897
      3          1           0       -1.054421    0.342264   -0.807598
      4          1           0       -1.056289    0.619287    0.811617
      5          1           0       -1.041898   -0.724460    0.126164
      6          1           0        1.233610    1.217449   -0.082396
 ---------------------------------------------------------------------

 SCF Done:  E(RB2PLYPD3) =  -115.363259749     A.U. after   13 cycles
 E2(B2PLYPD3) =    -0.1579046287D+00 E(B2PLYPD3) =    -0.11552116437798D+03

 The electronic state is 1-A.
 Alpha  occ. eigenvalues --  -19.76094 -10.60813  -1.12702  -0.81837  -0.56076
 Alpha  occ. eigenvalues --   -0.51844  -0.50267  -0.38598  -0.35193
 Alpha virt. eigenvalues --   -0.03686   0.07328   0.12766   0.13083   0.14781
 Alpha virt. eigenvalues --    0.17576   0.18939   0.21015   0.29379   0.33482
 Alpha virt. eigenvalues --    0.35433   0.37040   0.40914   0.42132   0.45623

 Mulliken charges:
               1
     1  C    0.047890
     2  O   -0.457714
     3  H    0.045358
     4  H    0.031912
     5  H    0.105359
     6  H    0.227194
 Sum of Mulliken charges =   0.00000

 Dipole moment (field-independent basis, Debye):
    X=             -1.0515    Y=              1.6077    Z=             -0.2301  Tot=              1.9348
 Quadrupole moment (field-independent basis, Debye-Ang):
   XX=            -12.9712   YY=            -11.4137   ZZ=            -13.9240
   XY=              2.6415   XZ=             -0.0275   YZ=             -0.2448

 Normal termination of Gaussian 09 at Wed Aug 26 19:03:58 2020.
