 Gaussian 09, Revision D.01,
 Gaussian 09:  ES64L-G09RevD.01 24-Apr-2013

 --------------------
 #p B2PLYPD3/Def2QZVP
 --------------------

 --------
 methanol
 --------
 Symbolic Z-matrix:
 Charge =  0 Multiplicity = 1

                         Standard orientation:
 ---------------------------------------------------------------------
 Center     Atomic      Atomic             Coordinates (Angstroms)
 Number     Number       Type             X           Y           Z
 ---------------------------------------------------------------------
      1          6           0        0.665593    0.027665   -0.005905
      2          8           0       -0.745751   -0.145998   -0.001950
      3          1           0        1.059806    0.454876    0.878125
      4          1           0        0.962249    0.623760   -0.812061
      5          1           0        1.137667   -0.926819   -0.066731
      6          1           0       -1.187273    0.850178    0.051693
 ---------------------------------------------------------------------

 SCF Done:  E(RB2PLYPD3) =  -115.535076241     A.U. after   11 cycles
 E2(B2PLYPD3) =    -0.1493615325D+00 E(B2PLYPD3) =    -0.11568443777389D+03

 The electronic state is 1-A.
 Alpha  occ. eigenvalues --  -19.73529 -10.64291  -1.13855  -0.78713  -0.56970
 Alpha  occ. eigenvalues --   -0.52299  -0.49589  -0.40703  -0.35186
 Alpha virt. eigenvalues --    0.03882   0.07790   0.12566   0.12716   0.14840
 Alpha virt. eigenvalues --    0.17567   0.18239   0.28989   0.30378   0.33231
 Alpha virt. eigenvalues --    0.33973   0.39384   0.39896   0.41967   0.43801

 Mulliken charges:
               1
     1  C    0.081922
     2  O   -0.489069
     3  H    0.045119
     4  H    0.045879
     5  H    0.065536
     6  H    0.250614
 Sum of Mulliken charges =   0.00000

 Dipole moment (field-independent basis, Debye):
    X=              0.8872    Y=              1.6298    Z=              0.0790  Tot=              1.8573
 Quadrupole moment (field-independent basis, Debye-Ang):
   XX=            -12.8210   YY=            -12.0700   ZZ=            -13.8909
   XY=             -2.4495   XZ=             -0.0529   YZ=              0.0207

 Normal termination of Gaussian 09 at Thu Aug 27 00:02:29 2020.
