 Gaussian 09, Revision D.01,
 Gaussian 09:  ES64L-G09RevD.01 24-Apr-2013

 --------------------
 #p B2PLYPD3/Def2QZVP
 --------------------

 --------
 methanol
 --------
 Symbolic Z-matrix:
 Charge =  0 Multiplicity = 1

                         Standard orientation:
 ---------------------------------------------------------------------
 Center     Atomic      Atomic             Coordinates (Angstroms)
 Number     Number       Type             X           Y           Z
 ---------------------------------------------------------------------
      1          6           0       -0.647464   -0.055302    0.016348
      2          8           0        0.751107    0.062235   -0.046829
      3          1           0       -0.900508    0.075112    1.136360
      4          1           0       -1.043159   -1.005679   -0.526993
      5          1           0       -1.225252    1.043579   -0.513726
      6          1           0        1.044842   -0.279082    0.180902
 ---------------------------------------------------------------------

 SCF Done:  E(RB2PLYPD3) =  -114.786495977     A.U. after   12 cycles
 E2(B2PLYPD3) =    -0.1434584576D+00 E(B2PLYPD3) =    -0.11492995443491D+03

 The electronic state is 1-A.
 Alpha  occ. eigenvalues --  -19.68927 -10.70767  -1.34263  -0.84745  -0.62980
 Alpha  occ. eigenvalues --   -0.53284  -0.49478  -0.38814  -0.37237
 Alpha virt. eigenvalues --    0.04586   0.09772   0.10669   0.11522   0.13761
 Alpha virt. eigenvalues --    0.16891   0.18069   0.27639   0.30451   0.32559
 Alpha virt. eigenvalues --    0.33177   0.37109   0.39051   0.40827   0.43825

 Mulliken charges:
               1
     1  C    0.049654
     2  O   -0.027924
     3  H    0.058790
     4  H    0.070167
     5  H    0.052804
     6  H   -0.203491
 Sum of Mulliken charges =   0.00000

 Dipole moment (field-independent basis, Debye):
    X=             -0.9326    Y=             -0.9814    Z=              0.6587  Tot=              1.5056
 Quadrupole moment (field-independent basis, Debye-Ang):
   XX=            -13.1201   YY=            -12.8157   ZZ=            -13.2623
   XY=             -1.3205   XZ=              0.9863   YZ=              0.0256

 Normal termination of Gaussian 09 at Wed Aug 26 22:13:09 2020.
