 Gaussian 09, Revision D.01,
 Gaussian 09:  ES64L-G09RevD.01 24-Apr-2013

 --------------------
 #p B2PLYPD3/Def2QZVP
 --------------------

 --------
 methanol
 --------
 Symbolic Z-matrix:
 Charge =  0 Multiplicity = 1

                         Standard orientation:
 ---------------------------------------------------------------------
 Center     Atomic      Atomic             Coordinates (Angstroms)
 Number     Number       Type             X           Y           Z
 ---------------------------------------------------------------------
      1          6           0       -0.660579   -0.026414    0.010125
      2          8           0        0.746683    0.106585   -0.011441
      3          1           0       -1.006549   -0.493216    0.919852
      4          1           0       -1.065880   -0.616502   -0.877899
      5          1           0       -1.099356    1.051540   -0.049356
      6          1           0        1.161798   -0.636013    0.038176
 ---------------------------------------------------------------------

 SCF Done:  E(RB2PLYPD3) =  -115.535436830     A.U. after   10 cycles
 E2(B2PLYPD3) =    -0.1457170311D+00 E(B2PLYPD3) =    -0.11568115386138D+03

 The electronic state is 1-A.
 Alpha  occ. eigenvalues --  -19.71549 -10.67035  -1.18805  -0.79320  -0.60490
 Alpha  occ. eigenvalues --   -0.51670  -0.49556  -0.40471  -0.35666
 Alpha virt. eigenvalues --    0.05320   0.08533   0.12030   0.12311   0.14854
 Alpha virt. eigenvalues --    0.17113   0.18013   0.29034   0.33213   0.33562
 Alpha virt. eigenvalues --    0.36644   0.38379   0.39363   0.40668   0.42767

 Mulliken charges:
               1
     1  C    0.062527
     2  O   -0.400941
     3  H    0.055790
     4  H    0.046537
     5  H    0.067919
     6  H    0.168168
 Sum of Mulliken charges =   0.00000

 Dipole moment (field-independent basis, Debye):
    X=             -0.7756    Y=             -1.4140    Z=              0.1538  Tot=              1.6200
 Quadrupole moment (field-independent basis, Debye-Ang):
   XX=            -12.8528   YY=            -12.4934   ZZ=            -13.7617
   XY=             -2.1086   XZ=              0.1129   YZ=             -0.1009

 Normal termination of Gaussian 09 at Wed Aug 26 10:12:48 2020.
