 Gaussian 09, Revision D.01,
 Gaussian 09:  ES64L-G09RevD.01 24-Apr-2013

 --------------------
 #p B2PLYPD3/Def2QZVP
 --------------------

 --------
 methanol
 --------
 Symbolic Z-matrix:
 Charge =  0 Multiplicity = 1

                         Standard orientation:
 ---------------------------------------------------------------------
 Center     Atomic      Atomic             Coordinates (Angstroms)
 Number     Number       Type             X           Y           Z
 ---------------------------------------------------------------------
      1          6           0       -0.664194    0.013911    0.021470
      2          8           0        0.729686   -0.149009   -0.022794
      3          1           0       -1.017569    0.659077   -0.842351
      4          1           0       -0.974310    0.406440    0.879336
      5          1           0       -1.062230   -0.856952   -0.087604
      6          1           0        1.201780    0.900042    0.104151
 ---------------------------------------------------------------------

 SCF Done:  E(RB2PLYPD3) =  -115.505306001     A.U. after   11 cycles
 E2(B2PLYPD3) =    -0.1501578188D+00 E(B2PLYPD3) =    -0.11565546381943D+03

 The electronic state is 1-A.
 Alpha  occ. eigenvalues --  -19.73707 -10.63118  -1.13662  -0.79280  -0.56959
 Alpha  occ. eigenvalues --   -0.51960  -0.50725  -0.40573  -0.34722
 Alpha virt. eigenvalues --    0.02991   0.07866   0.12500   0.12970   0.14863
 Alpha virt. eigenvalues --    0.17413   0.18271   0.27662   0.29594   0.33080
 Alpha virt. eigenvalues --    0.34609   0.38367   0.41415   0.41667   0.44598

 Mulliken charges:
               1
     1  C    0.083883
     2  O   -0.489807
     3  H    0.033209
     4  H    0.046016
     5  H    0.071362
     6  H    0.255337
 Sum of Mulliken charges =   0.00000

 Dipole moment (field-independent basis, Debye):
    X=             -0.8278    Y=              1.5514    Z=              0.3166  Tot=              1.7867
 Quadrupole moment (field-independent basis, Debye-Ang):
   XX=            -12.8867   YY=            -11.9660   ZZ=            -13.7764
   XY=              2.5840   XZ=              0.1633   YZ=              0.2517

 Normal termination of Gaussian 09 at Wed Aug 26 16:38:15 2020.
