 Gaussian 09, Revision D.01,
 Gaussian 09:  ES64L-G09RevD.01 24-Apr-2013

 --------------------
 #p B2PLYPD3/Def2QZVP
 --------------------

 --------
 methanol
 --------
 Symbolic Z-matrix:
 Charge =  0 Multiplicity = 1

                         Standard orientation:
 ---------------------------------------------------------------------
 Center     Atomic      Atomic             Coordinates (Angstroms)
 Number     Number       Type             X           Y           Z
 ---------------------------------------------------------------------
      1          6           0       -0.647117   -0.013496    0.010288
      2          8           0        0.743914    0.079458   -0.030101
      3          1           0       -0.959367   -0.342283    1.053319
      4          1           0       -1.121768   -0.761774   -0.814045
      5          1           0       -1.096189    1.050967   -0.173785
      6          1           0        1.108715   -0.501601    0.113587
 ---------------------------------------------------------------------

 SCF Done:  E(RB2PLYPD3) =  -115.419317833     A.U. after   11 cycles
 E2(B2PLYPD3) =    -0.1439366560D+00 E(B2PLYPD3) =    -0.11556325448851D+03

 The electronic state is 1-A.
 Alpha  occ. eigenvalues --  -19.70084 -10.68677  -1.24792  -0.81542  -0.61932
 Alpha  occ. eigenvalues --   -0.51532  -0.50617  -0.40274  -0.35851
 Alpha virt. eigenvalues --    0.05336   0.09086   0.11784   0.12045   0.14530
 Alpha virt. eigenvalues --    0.17003   0.17892   0.28581   0.32530   0.33848
 Alpha virt. eigenvalues --    0.36069   0.37380   0.39397   0.40549   0.42754

 Mulliken charges:
               1
     1  C    0.047934
     2  O   -0.236274
     3  H    0.049863
     4  H    0.040604
     5  H    0.076744
     6  H    0.021130
 Sum of Mulliken charges =   0.00000

 Dipole moment (field-independent basis, Debye):
    X=             -0.7544    Y=             -1.1284    Z=              0.3693  Tot=              1.4067
 Quadrupole moment (field-independent basis, Debye-Ang):
   XX=            -12.9961   YY=            -12.7259   ZZ=            -13.5983
   XY=             -1.9182   XZ=              0.4971   YZ=             -0.1957

 Normal termination of Gaussian 09 at Wed Aug 26 16:26:56 2020.
