 Gaussian 09, Revision D.01,
 Gaussian 09:  ES64L-G09RevD.01 24-Apr-2013

 --------------------
 #p B2PLYPD3/Def2QZVP
 --------------------

 --------
 methanol
 --------
 Symbolic Z-matrix:
 Charge =  0 Multiplicity = 1

                         Standard orientation:
 ---------------------------------------------------------------------
 Center     Atomic      Atomic             Coordinates (Angstroms)
 Number     Number       Type             X           Y           Z
 ---------------------------------------------------------------------
      1          6           0        0.669282   -0.006252   -0.003340
      2          8           0       -0.747896    0.086376    0.000422
      3          1           0        1.000814   -0.643085   -0.907579
      4          1           0        1.122389   -0.464117    0.966662
      5          1           0        0.987726    1.044132   -0.098174
      6          1           0       -1.143451   -0.590425    0.055750
 ---------------------------------------------------------------------

 SCF Done:  E(RB2PLYPD3) =  -115.504435290     A.U. after   10 cycles
 E2(B2PLYPD3) =    -0.1449262977D+00 E(B2PLYPD3) =    -0.11564936158782D+03

 The electronic state is 1-A.
 Alpha  occ. eigenvalues --  -19.70650 -10.67654  -1.20540  -0.80338  -0.60574
 Alpha  occ. eigenvalues --   -0.51105  -0.50209  -0.40925  -0.35543
 Alpha virt. eigenvalues --    0.05410   0.08801   0.11980   0.12163   0.14748
 Alpha virt. eigenvalues --    0.16688   0.17949   0.28951   0.32565   0.33424
 Alpha virt. eigenvalues --    0.36910   0.38797   0.39665   0.40017   0.42514

 Mulliken charges:
               1
     1  C    0.054961
     2  O   -0.338596
     3  H    0.047419
     4  H    0.047311
     5  H    0.084077
     6  H    0.104828
 Sum of Mulliken charges =   0.00000

 Dipole moment (field-independent basis, Debye):
    X=              0.8094    Y=             -1.2507    Z=              0.0875  Tot=              1.4923
 Quadrupole moment (field-independent basis, Debye-Ang):
   XX=            -12.9942   YY=            -12.4443   ZZ=            -13.6984
   XY=              2.0181   XZ=             -0.0681   YZ=             -0.0748

 Normal termination of Gaussian 09 at Wed Aug 26 13:07:45 2020.
