 Gaussian 09, Revision D.01,
 Gaussian 09:  ES64L-G09RevD.01 24-Apr-2013

 --------------------
 #p B2PLYPD3/Def2QZVP
 --------------------

 --------
 methanol
 --------
 Symbolic Z-matrix:
 Charge =  0 Multiplicity = 1

                         Standard orientation:
 ---------------------------------------------------------------------
 Center     Atomic      Atomic             Coordinates (Angstroms)
 Number     Number       Type             X           Y           Z
 ---------------------------------------------------------------------
      1          6           0        0.664193   -0.016722    0.008971
      2          8           0       -0.740556    0.132973   -0.007829
      3          1           0        1.031573   -0.591355   -0.838515
      4          1           0        0.964993   -0.509989    0.866109
      5          1           0        1.067421    0.963305   -0.033785
      6          1           0       -1.124702   -0.825409    0.014999
 ---------------------------------------------------------------------

 SCF Done:  E(RB2PLYPD3) =  -115.544403928     A.U. after   10 cycles
 E2(B2PLYPD3) =    -0.1481934021D+00 E(B2PLYPD3) =    -0.11569259732971D+03

 The electronic state is 1-A.
 Alpha  occ. eigenvalues --  -19.72977 -10.64391  -1.15090  -0.78709  -0.58218
 Alpha  occ. eigenvalues --   -0.52183  -0.49779  -0.41344  -0.35083
 Alpha virt. eigenvalues --    0.04405   0.08184   0.12455   0.12583   0.15013
 Alpha virt. eigenvalues --    0.17356   0.17911   0.29248   0.32218   0.33318
 Alpha virt. eigenvalues --    0.34353   0.39229   0.39980   0.41612   0.44559

 Mulliken charges:
               1
     1  C    0.080277
     2  O   -0.475981
     3  H    0.039419
     4  H    0.046599
     5  H    0.070030
     6  H    0.239657
 Sum of Mulliken charges =   0.00000

 Dipole moment (field-independent basis, Debye):
    X=              0.9129    Y=             -1.5845    Z=              0.0840  Tot=              1.8306
 Quadrupole moment (field-independent basis, Debye-Ang):
   XX=            -13.1697   YY=            -11.9351   ZZ=            -13.8376
   XY=              2.2797   XZ=             -0.0533   YZ=             -0.0743

 Normal termination of Gaussian 09 at Thu Aug 27 00:12:20 2020.
