 Gaussian 09, Revision D.01,
 Gaussian 09:  ES64L-G09RevD.01 24-Apr-2013

 --------------------
 #p B2PLYPD3/Def2QZVP
 --------------------

 --------
 methanol
 --------
 Symbolic Z-matrix:
 Charge =  0 Multiplicity = 1

                         Standard orientation:
 ---------------------------------------------------------------------
 Center     Atomic      Atomic             Coordinates (Angstroms)
 Number     Number       Type             X           Y           Z
 ---------------------------------------------------------------------
      1          6           0       -0.641918    0.059264   -0.020720
      2          8           0        0.729702   -0.174321    0.013049
      3          1           0       -1.006227    0.391059   -0.786885
      4          1           0       -0.984972    0.587551    0.799514
      5          1           0       -1.137784   -0.942309    0.073931
      6          1           0        1.142874    1.002688   -0.066627
 ---------------------------------------------------------------------

 SCF Done:  E(RB2PLYPD3) =  -115.469188459     A.U. after   11 cycles
 E2(B2PLYPD3) =    -0.1522919956D+00 E(B2PLYPD3) =    -0.11562148045431D+03

 The electronic state is 1-A.
 Alpha  occ. eigenvalues --  -19.74875 -10.62690  -1.13822  -0.79551  -0.56049
 Alpha  occ. eigenvalues --   -0.54246  -0.49146  -0.39222  -0.35682
 Alpha virt. eigenvalues --    0.01418   0.07579   0.12455   0.12780   0.14904
 Alpha virt. eigenvalues --    0.17782   0.18681   0.24746   0.29222   0.33738
 Alpha virt. eigenvalues --    0.35500   0.37159   0.40030   0.42890   0.45718

 Mulliken charges:
               1
     1  C    0.082362
     2  O   -0.471338
     3  H    0.057982
     4  H    0.044593
     5  H    0.039210
     6  H    0.247192
 Sum of Mulliken charges =   0.00000

 Dipole moment (field-independent basis, Debye):
    X=             -0.9260    Y=              1.8015    Z=             -0.2001  Tot=              2.0354
 Quadrupole moment (field-independent basis, Debye-Ang):
   XX=            -13.2117   YY=            -11.8176   ZZ=            -13.8308
   XY=              2.2482   XZ=             -0.0174   YZ=             -0.1285

 Normal termination of Gaussian 09 at Wed Aug 26 19:02:37 2020.
