 Gaussian 09, Revision D.01,
 Gaussian 09:  ES64L-G09RevD.01 24-Apr-2013

 --------------------
 #p B2PLYPD3/Def2QZVP
 --------------------

 --------
 methanol
 --------
 Symbolic Z-matrix:
 Charge =  0 Multiplicity = 1

                         Standard orientation:
 ---------------------------------------------------------------------
 Center     Atomic      Atomic             Coordinates (Angstroms)
 Number     Number       Type             X           Y           Z
 ---------------------------------------------------------------------
      1          6           0        0.661985   -0.014130    0.002226
      2          8           0       -0.744060    0.099790   -0.009695
      3          1           0        1.029708   -0.680358   -0.840036
      4          1           0        1.003849   -0.443422    0.957765
      5          1           0        1.051071    1.043442   -0.103059
      6          1           0       -1.104054   -0.633204    0.049536
 ---------------------------------------------------------------------

 SCF Done:  E(RB2PLYPD3) =  -115.526135568     A.U. after   10 cycles
 E2(B2PLYPD3) =    -0.1450568276D+00 E(B2PLYPD3) =    -0.11567119239519D+03

 The electronic state is 1-A.
 Alpha  occ. eigenvalues --  -19.71054 -10.66852  -1.20006  -0.79688  -0.60713
 Alpha  occ. eigenvalues --   -0.51677  -0.50075  -0.41204  -0.35549
 Alpha virt. eigenvalues --    0.05353   0.08875   0.12037   0.12245   0.14880
 Alpha virt. eigenvalues --    0.16993   0.17767   0.29039   0.33048   0.33523
 Alpha virt. eigenvalues --    0.37747   0.38636   0.39819   0.40342   0.42915

 Mulliken charges:
               1
     1  C    0.064325
     2  O   -0.370855
     3  H    0.044169
     4  H    0.050104
     5  H    0.074410
     6  H    0.137847
 Sum of Mulliken charges =   0.00000

 Dipole moment (field-independent basis, Debye):
    X=              0.8535    Y=             -1.3663    Z=              0.1425  Tot=              1.6173
 Quadrupole moment (field-independent basis, Debye-Ang):
   XX=            -13.1643   YY=            -12.3023   ZZ=            -13.7122
   XY=              2.0399   XZ=             -0.1474   YZ=             -0.0854

 Normal termination of Gaussian 09 at Thu Aug 27 00:13:56 2020.
