 Gaussian 09, Revision D.01,
 Gaussian 09:  ES64L-G09RevD.01 24-Apr-2013

 --------------------
 #p B2PLYPD3/Def2QZVP
 --------------------

 --------
 methanol
 --------
 Symbolic Z-matrix:
 Charge =  0 Multiplicity = 1

                         Standard orientation:
 ---------------------------------------------------------------------
 Center     Atomic      Atomic             Coordinates (Angstroms)
 Number     Number       Type             X           Y           Z
 ---------------------------------------------------------------------
      1          6           0        0.665378    0.016499   -0.000732
      2          8           0       -0.747634   -0.148546    0.004177
      3          1           0        1.010187    0.549825    0.856836
      4          1           0        1.005202    0.527941   -0.853312
      5          1           0        1.128363   -0.887766   -0.007663
      6          1           0       -1.154944    0.899370   -0.024882
 ---------------------------------------------------------------------

 SCF Done:  E(RB2PLYPD3) =  -115.526112457     A.U. after   11 cycles
 E2(B2PLYPD3) =    -0.1499657882D+00 E(B2PLYPD3) =    -0.11567607824551D+03

 The electronic state is 1-A.
 Alpha  occ. eigenvalues --  -19.73793 -10.63845  -1.13512  -0.78943  -0.56495
 Alpha  occ. eigenvalues --   -0.51972  -0.50172  -0.40939  -0.35082
 Alpha virt. eigenvalues --    0.03432   0.07801   0.12574   0.12801   0.14756
 Alpha virt. eigenvalues --    0.17790   0.18165   0.28412   0.29799   0.33346
 Alpha virt. eigenvalues --    0.33829   0.39326   0.40954   0.41618   0.43436

 Mulliken charges:
               1
     1  C    0.085479
     2  O   -0.490576
     3  H    0.042402
     4  H    0.041959
     5  H    0.067236
     6  H    0.253501
 Sum of Mulliken charges =   0.00000

 Dipole moment (field-independent basis, Debye):
    X=              0.9585    Y=              1.6245    Z=             -0.0652  Tot=              1.8873
 Quadrupole moment (field-independent basis, Debye-Ang):
   XX=            -12.9923   YY=            -11.9317   ZZ=            -13.8777
   XY=             -2.4750   XZ=              0.0357   YZ=             -0.0336

 Normal termination of Gaussian 09 at Wed Aug 26 11:39:20 2020.
