 Gaussian 09, Revision D.01,
 Gaussian 09:  ES64L-G09RevD.01 24-Apr-2013

 --------------------
 #p B2PLYPD3/Def2QZVP
 --------------------

 --------
 methanol
 --------
 Symbolic Z-matrix:
 Charge =  0 Multiplicity = 1

                         Standard orientation:
 ---------------------------------------------------------------------
 Center     Atomic      Atomic             Coordinates (Angstroms)
 Number     Number       Type             X           Y           Z
 ---------------------------------------------------------------------
      1          6           0       -0.662058    0.014300    0.013859
      2          8           0        0.748387   -0.145478   -0.011833
      3          1           0       -1.065008    0.605331   -0.793546
      4          1           0       -0.941060    0.499991    0.828509
      5          1           0       -1.105508   -0.941243   -0.039125
      6          1           0        1.096833    0.913944    0.015673
 ---------------------------------------------------------------------

 SCF Done:  E(RB2PLYPD3) =  -115.523084240     A.U. after   11 cycles
 E2(B2PLYPD3) =    -0.1498983468D+00 E(B2PLYPD3) =    -0.11567298258688D+03

 The electronic state is 1-A.
 Alpha  occ. eigenvalues --  -19.73811 -10.63688  -1.13930  -0.79018  -0.57425
 Alpha  occ. eigenvalues --   -0.52155  -0.49358  -0.41546  -0.35080
 Alpha virt. eigenvalues --    0.03487   0.07907   0.12418   0.12776   0.15017
 Alpha virt. eigenvalues --    0.17731   0.17902   0.28542   0.29937   0.33243
 Alpha virt. eigenvalues --    0.34232   0.39048   0.39841   0.41843   0.44428

 Mulliken charges:
               1
     1  C    0.090917
     2  O   -0.484866
     3  H    0.033925
     4  H    0.045083
     5  H    0.065960
     6  H    0.248980
 Sum of Mulliken charges =   0.00000

 Dipole moment (field-independent basis, Debye):
    X=             -1.0254    Y=              1.6753    Z=              0.1175  Tot=              1.9677
 Quadrupole moment (field-independent basis, Debye-Ang):
   XX=            -13.2775   YY=            -11.6925   ZZ=            -13.9649
   XY=              2.2659   XZ=              0.0664   YZ=              0.1106

 Normal termination of Gaussian 09 at Wed Aug 26 13:50:00 2020.
