 Gaussian 09, Revision D.01,
 Gaussian 09:  ES64L-G09RevD.01 24-Apr-2013

 --------------------
 #p B2PLYPD3/Def2QZVP
 --------------------

 --------
 methanol
 --------
 Symbolic Z-matrix:
 Charge =  0 Multiplicity = 1

                         Standard orientation:
 ---------------------------------------------------------------------
 Center     Atomic      Atomic             Coordinates (Angstroms)
 Number     Number       Type             X           Y           Z
 ---------------------------------------------------------------------
      1          6           0       -0.674346    0.006770   -0.003599
      2          8           0        0.751351   -0.152581   -0.012167
      3          1           0       -1.085256    0.629055   -0.800363
      4          1           0       -1.030310    0.475312    0.878415
      5          1           0       -1.104555   -0.856777   -0.018516
      6          1           0        1.255389    0.932440    0.059394
 ---------------------------------------------------------------------

 SCF Done:  E(RB2PLYPD3) =  -115.501221784     A.U. after   11 cycles
 E2(B2PLYPD3) =    -0.1516056777D+00 E(B2PLYPD3) =    -0.11565282746203D+03

 The electronic state is 1-A.
 Alpha  occ. eigenvalues --  -19.74301 -10.63735  -1.12209  -0.79321  -0.55753
 Alpha  occ. eigenvalues --   -0.50758  -0.50380  -0.40693  -0.34820
 Alpha virt. eigenvalues --    0.02361   0.07480   0.12663   0.12932   0.14834
 Alpha virt. eigenvalues --    0.17560   0.18351   0.26434   0.29594   0.33328
 Alpha virt. eigenvalues --    0.33692   0.38501   0.40658   0.41145   0.43129

 Mulliken charges:
               1
     1  C    0.085020
     2  O   -0.500644
     3  H    0.040541
     4  H    0.041000
     5  H    0.074661
     6  H    0.259423
 Sum of Mulliken charges =   0.00000

 Dipole moment (field-independent basis, Debye):
    X=             -0.8762    Y=              1.6160    Z=              0.1507  Tot=              1.8444
 Quadrupole moment (field-independent basis, Debye-Ang):
   XX=            -12.5522   YY=            -11.8964   ZZ=            -14.0805
   XY=              2.6334   XZ=              0.1437   YZ=              0.0674

 Normal termination of Gaussian 09 at Wed Aug 26 13:01:13 2020.
