 Gaussian 09, Revision D.01,
 Gaussian 09:  ES64L-G09RevD.01 24-Apr-2013

 --------------------
 #p B2PLYPD3/Def2QZVP
 --------------------

 --------
 methanol
 --------
 Symbolic Z-matrix:
 Charge =  0 Multiplicity = 1

                         Standard orientation:
 ---------------------------------------------------------------------
 Center     Atomic      Atomic             Coordinates (Angstroms)
 Number     Number       Type             X           Y           Z
 ---------------------------------------------------------------------
      1          6           0        0.667087   -0.012868    0.005644
      2          8           0       -0.751839    0.097976   -0.009267
      3          1           0        1.025729   -0.687716   -0.844977
      4          1           0        0.984451   -0.443215    0.967860
      5          1           0        1.075180    1.041692   -0.117799
      6          1           0       -1.073166   -0.617359    0.035190
 ---------------------------------------------------------------------

 SCF Done:  E(RB2PLYPD3) =  -115.507859192     A.U. after   10 cycles
 E2(B2PLYPD3) =    -0.1447742579D+00 E(B2PLYPD3) =    -0.11565263345000D+03

 The electronic state is 1-A.
 Alpha  occ. eigenvalues --  -19.70679 -10.67166  -1.20905  -0.79873  -0.60766
 Alpha  occ. eigenvalues --   -0.51740  -0.49987  -0.41505  -0.35747
 Alpha virt. eigenvalues --    0.05368   0.08991   0.11956   0.12148   0.14717
 Alpha virt. eigenvalues --    0.17097   0.17644   0.28955   0.32740   0.33063
 Alpha virt. eigenvalues --    0.37535   0.38600   0.39674   0.40497   0.43036

 Mulliken charges:
               1
     1  C    0.065026
     2  O   -0.342017
     3  H    0.044111
     4  H    0.053237
     5  H    0.075719
     6  H    0.103924
 Sum of Mulliken charges =   0.00000

 Dipole moment (field-independent basis, Debye):
    X=              0.9623    Y=             -1.3451    Z=              0.1207  Tot=              1.6583
 Quadrupole moment (field-independent basis, Debye-Ang):
   XX=            -13.2815   YY=            -12.2959   ZZ=            -13.6468
   XY=              2.0177   XZ=             -0.1268   YZ=             -0.0883

 Normal termination of Gaussian 09 at Thu Aug 27 00:06:58 2020.
