 Gaussian 09, Revision D.01,
 Gaussian 09:  ES64L-G09RevD.01 24-Apr-2013

 --------------------
 #p B2PLYPD3/Def2QZVP
 --------------------

 --------
 methanol
 --------
 Symbolic Z-matrix:
 Charge =  0 Multiplicity = 1

                         Standard orientation:
 ---------------------------------------------------------------------
 Center     Atomic      Atomic             Coordinates (Angstroms)
 Number     Number       Type             X           Y           Z
 ---------------------------------------------------------------------
      1          6           0       -0.681215    0.017262   -0.012466
      2          8           0        0.738686   -0.179146    0.004081
      3          1           0       -1.018481    0.527225   -0.762897
      4          1           0       -1.127244    0.502696    0.774933
      5          1           0       -0.927163   -0.853153    0.007434
      6          1           0        1.250693    1.152826    0.022679
 ---------------------------------------------------------------------

 SCF Done:  E(RB2PLYPD3) =  -115.411259390     A.U. after   11 cycles
 E2(B2PLYPD3) =    -0.1566372645D+00 E(B2PLYPD3) =    -0.11556789665435D+03

 The electronic state is 1-A.
 Alpha  occ. eigenvalues --  -19.75496 -10.61199  -1.11466  -0.80756  -0.57616
 Alpha  occ. eigenvalues --   -0.51801  -0.48058  -0.39927  -0.35165
 Alpha virt. eigenvalues --   -0.01649   0.07456   0.12560   0.13174   0.14885
 Alpha virt. eigenvalues --    0.16862   0.18399   0.22119   0.29392   0.33418
 Alpha virt. eigenvalues --    0.34159   0.37742   0.39786   0.42627   0.45450

 Mulliken charges:
               1
     1  C    0.072676
     2  O   -0.480294
     3  H    0.045660
     4  H    0.040112
     5  H    0.096487
     6  H    0.225358
 Sum of Mulliken charges =   0.00000

 Dipole moment (field-independent basis, Debye):
    X=             -1.1300    Y=              1.6929    Z=             -0.0156  Tot=              2.0354
 Quadrupole moment (field-independent basis, Debye-Ang):
   XX=            -12.9593   YY=            -11.2119   ZZ=            -14.1009
   XY=              2.3001   XZ=              0.0045   YZ=             -0.0454

 Normal termination of Gaussian 09 at Wed Aug 26 22:42:02 2020.
