 Gaussian 09, Revision D.01,
 Gaussian 09:  ES64L-G09RevD.01 24-Apr-2013

 --------------------
 #p B2PLYPD3/Def2QZVP
 --------------------

 --------
 methanol
 --------
 Symbolic Z-matrix:
 Charge =  0 Multiplicity = 1

                         Standard orientation:
 ---------------------------------------------------------------------
 Center     Atomic      Atomic             Coordinates (Angstroms)
 Number     Number       Type             X           Y           Z
 ---------------------------------------------------------------------
      1          6           0        0.673984    0.017123    0.004760
      2          8           0       -0.759762   -0.156286   -0.003607
      3          1           0        1.146491    0.431834    0.802691
      4          1           0        0.982759    0.651712   -0.783343
      5          1           0        1.092028   -0.912089   -0.093996
      6          1           0       -1.187087    0.976092    0.074946
 ---------------------------------------------------------------------

 SCF Done:  E(RB2PLYPD3) =  -115.499950841     A.U. after   11 cycles
 E2(B2PLYPD3) =    -0.1523165306D+00 E(B2PLYPD3) =    -0.11565226737184D+03

 The electronic state is 1-A.
 Alpha  occ. eigenvalues --  -19.74662 -10.63583  -1.12036  -0.79402  -0.55984
 Alpha  occ. eigenvalues --   -0.51443  -0.48750  -0.41192  -0.35133
 Alpha virt. eigenvalues --    0.02156   0.07480   0.12459   0.12913   0.14924
 Alpha virt. eigenvalues --    0.17465   0.18360   0.25949   0.29538   0.32593
 Alpha virt. eigenvalues --    0.34234   0.38757   0.39170   0.41882   0.44277

 Mulliken charges:
               1
     1  C    0.091307
     2  O   -0.492682
     3  H    0.044374
     4  H    0.038501
     5  H    0.065881
     6  H    0.252619
 Sum of Mulliken charges =   0.00000

 Dipole moment (field-independent basis, Debye):
    X=              1.0280    Y=              1.6975    Z=              0.1452  Tot=              1.9898
 Quadrupole moment (field-independent basis, Debye-Ang):
   XX=            -12.8842   YY=            -11.6757   ZZ=            -14.1382
   XY=             -2.4033   XZ=              0.0044   YZ=              0.1113

 Normal termination of Gaussian 09 at Wed Aug 26 15:54:54 2020.
