 Gaussian 09, Revision D.01,
 Gaussian 09:  ES64L-G09RevD.01 24-Apr-2013

 --------------------
 #p B2PLYPD3/Def2QZVP
 --------------------

 --------
 methanol
 --------
 Symbolic Z-matrix:
 Charge =  0 Multiplicity = 1

                         Standard orientation:
 ---------------------------------------------------------------------
 Center     Atomic      Atomic             Coordinates (Angstroms)
 Number     Number       Type             X           Y           Z
 ---------------------------------------------------------------------
      1          6           0        0.657796   -0.015893    0.010235
      2          8           0       -0.741490    0.114958   -0.008931
      3          1           0        1.035242   -0.640064   -0.856018
      4          1           0        0.988983   -0.489790    0.913238
      5          1           0        1.100201    1.000128   -0.073283
      6          1           0       -1.139285   -0.694576    0.026102
 ---------------------------------------------------------------------

 SCF Done:  E(RB2PLYPD3) =  -115.548982213     A.U. after   10 cycles
 E2(B2PLYPD3) =    -0.1461430784D+00 E(B2PLYPD3) =    -0.11569512529149D+03

 The electronic state is 1-A.
 Alpha  occ. eigenvalues --  -19.71981 -10.66088  -1.17810  -0.79005  -0.59882
 Alpha  occ. eigenvalues --   -0.51741  -0.50221  -0.40932  -0.35283
 Alpha virt. eigenvalues --    0.05178   0.08480   0.12293   0.12405   0.14919
 Alpha virt. eigenvalues --    0.17315   0.17863   0.29160   0.33056   0.33996
 Alpha virt. eigenvalues --    0.36486   0.38864   0.39445   0.40853   0.43704

 Mulliken charges:
               1
     1  C    0.070231
     2  O   -0.431831
     3  H    0.038545
     4  H    0.049964
     5  H    0.072192
     6  H    0.200898
 Sum of Mulliken charges =   0.00000

 Dipole moment (field-independent basis, Debye):
    X=              0.8010    Y=             -1.4469    Z=              0.1178  Tot=              1.6580
 Quadrupole moment (field-independent basis, Debye-Ang):
   XX=            -12.9847   YY=            -12.3012   ZZ=            -13.8070
   XY=              2.2262   XZ=             -0.0716   YZ=             -0.1021

 Normal termination of Gaussian 09 at Wed Aug 26 21:26:00 2020.
