 Gaussian 09, Revision D.01,
 Gaussian 09:  ES64L-G09RevD.01 24-Apr-2013

 --------------------
 #p B2PLYPD3/Def2QZVP
 --------------------

 --------
 methanol
 --------
 Symbolic Z-matrix:
 Charge =  0 Multiplicity = 1

                         Standard orientation:
 ---------------------------------------------------------------------
 Center     Atomic      Atomic             Coordinates (Angstroms)
 Number     Number       Type             X           Y           Z
 ---------------------------------------------------------------------
      1          6           0        0.675582   -0.020589    0.000527
      2          8           0       -0.755592    0.087877   -0.010885
      3          1           0        0.916698   -0.817006   -0.800822
      4          1           0        1.074137   -0.298609    1.020678
      5          1           0        1.089394    1.041227   -0.265428
      6          1           0       -1.088987   -0.505091    0.129489
 ---------------------------------------------------------------------

 SCF Done:  E(RB2PLYPD3) =  -115.413960073     A.U. after   11 cycles
 E2(B2PLYPD3) =    -0.1439780955D+00 E(B2PLYPD3) =    -0.11555793816890D+03

 The electronic state is 1-A.
 Alpha  occ. eigenvalues --  -19.69396 -10.68345  -1.23885  -0.81071  -0.61229
 Alpha  occ. eigenvalues --   -0.51954  -0.49696  -0.40918  -0.36076
 Alpha virt. eigenvalues --    0.05338   0.09202   0.11775   0.11915   0.14315
 Alpha virt. eigenvalues --    0.16912   0.17629   0.28721   0.31636   0.33171
 Alpha virt. eigenvalues --    0.36540   0.38124   0.39173   0.40537   0.42850

 Mulliken charges:
               1
     1  C    0.057856
     2  O   -0.257600
     3  H    0.052443
     4  H    0.056077
     5  H    0.078960
     6  H    0.012264
 Sum of Mulliken charges =   0.00000

 Dipole moment (field-independent basis, Debye):
    X=              0.9967    Y=             -1.2061    Z=              0.3043  Tot=              1.5940
 Quadrupole moment (field-independent basis, Debye-Ang):
   XX=            -13.1702   YY=            -12.5079   ZZ=            -13.4688
   XY=              1.9654   XZ=             -0.2665   YZ=             -0.1661

 Normal termination of Gaussian 09 at Wed Aug 26 12:44:02 2020.
