 Gaussian 09, Revision D.01,
 Gaussian 09:  ES64L-G09RevD.01 24-Apr-2013

 --------------------
 #p B2PLYPD3/Def2QZVP
 --------------------

 --------
 methanol
 --------
 Symbolic Z-matrix:
 Charge =  0 Multiplicity = 1

                         Standard orientation:
 ---------------------------------------------------------------------
 Center     Atomic      Atomic             Coordinates (Angstroms)
 Number     Number       Type             X           Y           Z
 ---------------------------------------------------------------------
      1          6           0        0.657463   -0.022131   -0.000293
      2          8           0       -0.748888    0.118313   -0.004494
      3          1           0        1.002762   -0.648376   -0.829682
      4          1           0        1.056446   -0.433377    0.915808
      5          1           0        1.080492    1.010730   -0.098549
      6          1           0       -1.093376   -0.742696    0.050134
 ---------------------------------------------------------------------

 SCF Done:  E(RB2PLYPD3) =  -115.551282307     A.U. after   10 cycles
 E2(B2PLYPD3) =    -0.1468166798D+00 E(B2PLYPD3) =    -0.11569809898653D+03

 The electronic state is 1-A.
 Alpha  occ. eigenvalues --  -19.72464 -10.65837  -1.17282  -0.78660  -0.59470
 Alpha  occ. eigenvalues --   -0.51979  -0.49573  -0.41326  -0.35542
 Alpha virt. eigenvalues --    0.05045   0.08400   0.12200   0.12436   0.14958
 Alpha virt. eigenvalues --    0.17311   0.18072   0.29085   0.33255   0.33558
 Alpha virt. eigenvalues --    0.36261   0.38078   0.39941   0.41081   0.43711

 Mulliken charges:
               1
     1  C    0.067850
     2  O   -0.438843
     3  H    0.045514
     4  H    0.049231
     5  H    0.065668
     6  H    0.210580
 Sum of Mulliken charges =   0.00000

 Dipole moment (field-independent basis, Debye):
    X=              0.9031    Y=             -1.5129    Z=              0.1085  Tot=              1.7653
 Quadrupole moment (field-independent basis, Debye-Ang):
   XX=            -13.2051   YY=            -12.1829   ZZ=            -13.8052
   XY=              2.1230   XZ=             -0.0701   YZ=             -0.0579

 Normal termination of Gaussian 09 at Wed Aug 26 18:34:01 2020.
