 Gaussian 09, Revision D.01,
 Gaussian 09:  ES64L-G09RevD.01 24-Apr-2013

 --------------------
 #p B2PLYPD3/Def2QZVP
 --------------------

 --------
 methanol
 --------
 Symbolic Z-matrix:
 Charge =  0 Multiplicity = 1

                         Standard orientation:
 ---------------------------------------------------------------------
 Center     Atomic      Atomic             Coordinates (Angstroms)
 Number     Number       Type             X           Y           Z
 ---------------------------------------------------------------------
      1          6           0        0.679739    0.029079    0.007815
      2          8           0       -0.747343   -0.144086   -0.002851
      3          1           0        0.988157    0.488376    0.881472
      4          1           0        1.035850    0.546636   -0.854008
      5          1           0        1.076015   -0.921469   -0.042700
      6          1           0       -1.199714    0.864670   -0.008852
 ---------------------------------------------------------------------

 SCF Done:  E(RB2PLYPD3) =  -115.530657940     A.U. after   11 cycles
 E2(B2PLYPD3) =    -0.1497397738D+00 E(B2PLYPD3) =    -0.11568039771353D+03

 The electronic state is 1-A.
 Alpha  occ. eigenvalues --  -19.73394 -10.63949  -1.13043  -0.78988  -0.56451
 Alpha  occ. eigenvalues --   -0.52573  -0.49348  -0.40718  -0.35265
 Alpha virt. eigenvalues --    0.03822   0.07835   0.12530   0.12696   0.14739
 Alpha virt. eigenvalues --    0.17238   0.18317   0.28813   0.30253   0.33236
 Alpha virt. eigenvalues --    0.33661   0.39125   0.40266   0.42258   0.43826

 Mulliken charges:
               1
     1  C    0.081741
     2  O   -0.499323
     3  H    0.052916
     4  H    0.047223
     5  H    0.068308
     6  H    0.249135
 Sum of Mulliken charges =   0.00000

 Dipole moment (field-independent basis, Debye):
    X=              0.9476    Y=              1.6005    Z=              0.0086  Tot=              1.8600
 Quadrupole moment (field-independent basis, Debye-Ang):
   XX=            -12.8622   YY=            -12.0495   ZZ=            -13.7480
   XY=             -2.4476   XZ=             -0.0146   YZ=              0.0316

 Normal termination of Gaussian 09 at Wed Aug 26 21:58:41 2020.
