 Gaussian 09, Revision D.01,
 Gaussian 09:  ES64L-G09RevD.01 24-Apr-2013

 --------------------
 #p B2PLYPD3/Def2QZVP
 --------------------

 --------
 methanol
 --------
 Symbolic Z-matrix:
 Charge =  0 Multiplicity = 1

                         Standard orientation:
 ---------------------------------------------------------------------
 Center     Atomic      Atomic             Coordinates (Angstroms)
 Number     Number       Type             X           Y           Z
 ---------------------------------------------------------------------
      1          6           0        0.665283   -0.014832   -0.001116
      2          8           0       -0.736051    0.103627   -0.019185
      3          1           0        1.036102   -0.809214   -0.738798
      4          1           0        1.032472   -0.339175    0.953645
      5          1           0        1.041658    1.043635   -0.174709
      6          1           0       -1.213519   -0.635267    0.120036
 ---------------------------------------------------------------------

 SCF Done:  E(RB2PLYPD3) =  -115.542281513     A.U. after   11 cycles
 E2(B2PLYPD3) =    -0.1461120838D+00 E(B2PLYPD3) =    -0.11568839359646D+03

 The electronic state is 1-A.
 Alpha  occ. eigenvalues --  -19.71584 -10.66640  -1.17603  -0.79265  -0.60260
 Alpha  occ. eigenvalues --   -0.51247  -0.49787  -0.40380  -0.35055
 Alpha virt. eigenvalues --    0.05227   0.08426   0.11960   0.12519   0.15130
 Alpha virt. eigenvalues --    0.16732   0.17921   0.29260   0.32950   0.33975
 Alpha virt. eigenvalues --    0.37166   0.38124   0.39086   0.40418   0.42868

 Mulliken charges:
               1
     1  C    0.070365
     2  O   -0.432018
     3  H    0.040181
     4  H    0.050509
     5  H    0.075718
     6  H    0.195244
 Sum of Mulliken charges =   0.00000

 Dipole moment (field-independent basis, Debye):
    X=              0.6683    Y=             -1.3750    Z=              0.3419  Tot=              1.5665
 Quadrupole moment (field-independent basis, Debye-Ang):
   XX=            -12.6997   YY=            -12.3316   ZZ=            -13.9210
   XY=              2.1320   XZ=             -0.2806   YZ=             -0.1732

 Normal termination of Gaussian 09 at Wed Aug 26 20:08:40 2020.
