 Gaussian 09, Revision D.01,
 Gaussian 09:  ES64L-G09RevD.01 24-Apr-2013

 --------------------
 #p B2PLYPD3/Def2QZVP
 --------------------

 --------
 methanol
 --------
 Symbolic Z-matrix:
 Charge =  0 Multiplicity = 1

                         Standard orientation:
 ---------------------------------------------------------------------
 Center     Atomic      Atomic             Coordinates (Angstroms)
 Number     Number       Type             X           Y           Z
 ---------------------------------------------------------------------
      1          6           0        0.666940    0.000425   -0.003385
      2          8           0       -0.766760    0.102257   -0.016474
      3          1           0        1.140798   -0.656689   -0.848443
      4          1           0        1.060703   -0.420015    0.987992
      5          1           0        1.048511    0.972459   -0.070887
      6          1           0       -1.117572   -0.716358    0.083437
 ---------------------------------------------------------------------

 SCF Done:  E(RB2PLYPD3) =  -115.542183676     A.U. after   10 cycles
 E2(B2PLYPD3) =    -0.1469461629D+00 E(B2PLYPD3) =    -0.11568912983840D+03

 The electronic state is 1-A.
 Alpha  occ. eigenvalues --  -19.72446 -10.66905  -1.17353  -0.79017  -0.59156
 Alpha  occ. eigenvalues --   -0.50535  -0.50140  -0.41726  -0.35470
 Alpha virt. eigenvalues --    0.05183   0.08154   0.11998   0.12508   0.14821
 Alpha virt. eigenvalues --    0.17170   0.18257   0.28894   0.32538   0.33249
 Alpha virt. eigenvalues --    0.35901   0.38310   0.38760   0.40406   0.43707

 Mulliken charges:
               1
     1  C    0.061750
     2  O   -0.427523
     3  H    0.043265
     4  H    0.043189
     5  H    0.081023
     6  H    0.198296
 Sum of Mulliken charges =   0.00000

 Dipole moment (field-independent basis, Debye):
    X=              0.9314    Y=             -1.3455    Z=              0.1982  Tot=              1.6484
 Quadrupole moment (field-independent basis, Debye-Ang):
   XX=            -13.0476   YY=            -12.3230   ZZ=            -13.8833
   XY=              2.1885   XZ=             -0.2820   YZ=             -0.1137

 Normal termination of Gaussian 09 at Wed Aug 26 16:08:53 2020.
