 Gaussian 09, Revision D.01,
 Gaussian 09:  ES64L-G09RevD.01 24-Apr-2013

 --------------------
 #p B2PLYPD3/Def2QZVP
 --------------------

 --------
 methanol
 --------
 Symbolic Z-matrix:
 Charge =  0 Multiplicity = 1

                         Standard orientation:
 ---------------------------------------------------------------------
 Center     Atomic      Atomic             Coordinates (Angstroms)
 Number     Number       Type             X           Y           Z
 ---------------------------------------------------------------------
      1          6           0        0.706900   -0.006524    0.004428
      2          8           0       -0.775108   -0.032337    0.039913
      3          1           0        1.082475    1.187154   -0.026701
      4          1           0        1.074151   -0.675151   -0.915858
      5          1           0        0.879514   -0.492429    0.963008
      6          1           0       -1.076676    0.278263   -0.366318
 ---------------------------------------------------------------------

 SCF Done:  E(RB2PLYPD3) =  -115.182488687     A.U. after   11 cycles
 E2(B2PLYPD3) =    -0.1440617965D+00 E(B2PLYPD3) =    -0.11532655048307D+03

 The electronic state is 1-A.
 Alpha  occ. eigenvalues --  -19.68004 -10.69818  -1.27493  -0.82483  -0.60464
 Alpha  occ. eigenvalues --   -0.50548  -0.49949  -0.41327  -0.36410
 Alpha virt. eigenvalues --    0.05082   0.09137   0.10933   0.12093   0.13770
 Alpha virt. eigenvalues --    0.16168   0.17864   0.28257   0.29713   0.32344
 Alpha virt. eigenvalues --    0.33676   0.37095   0.40078   0.41550   0.41925

 Mulliken charges:
               1
     1  C    0.043854
     2  O   -0.173596
     3  H    0.052068
     4  H    0.066182
     5  H    0.104565
     6  H   -0.093072
 Sum of Mulliken charges =   0.00000

 Dipole moment (field-independent basis, Debye):
    X=              1.1893    Y=              0.6083    Z=             -0.8254  Tot=              1.5703
 Quadrupole moment (field-independent basis, Debye-Ang):
   XX=            -13.3596   YY=            -12.8974   ZZ=            -12.7635
   XY=             -1.0564   XZ=              1.3322   YZ=             -0.4026

 Normal termination of Gaussian 09 at Wed Aug 26 18:50:48 2020.
