 Gaussian 09, Revision D.01,
 Gaussian 09:  ES64L-G09RevD.01 24-Apr-2013

 --------------------
 #p B2PLYPD3/Def2QZVP
 --------------------

 --------
 methanol
 --------
 Symbolic Z-matrix:
 Charge =  0 Multiplicity = 1

                         Standard orientation:
 ---------------------------------------------------------------------
 Center     Atomic      Atomic             Coordinates (Angstroms)
 Number     Number       Type             X           Y           Z
 ---------------------------------------------------------------------
      1          6           0        0.678613   -0.012021    0.026980
      2          8           0       -0.737615   -0.072877   -0.049649
      3          1           0        1.052242   -0.036176    1.034634
      4          1           0        0.918429    1.055659   -0.592049
      5          1           0        0.967339   -0.826811   -0.567207
      6          1           0       -1.108765    0.462470    0.359931
 ---------------------------------------------------------------------

 SCF Done:  E(RB2PLYPD3) =  -115.482390165     A.U. after   10 cycles
 E2(B2PLYPD3) =    -0.1446254906D+00 E(B2PLYPD3) =    -0.11562701565516D+03

 The electronic state is 1-A.
 Alpha  occ. eigenvalues --  -19.70067 -10.67161  -1.21094  -0.81121  -0.60757
 Alpha  occ. eigenvalues --   -0.51511  -0.50955  -0.41363  -0.34867
 Alpha virt. eigenvalues --    0.05295   0.09108   0.11357   0.12457   0.14327
 Alpha virt. eigenvalues --    0.16641   0.17924   0.28996   0.31234   0.33564
 Alpha virt. eigenvalues --    0.35793   0.39959   0.40594   0.40994   0.43586

 Mulliken charges:
               1
     1  C    0.054130
     2  O   -0.318634
     3  H    0.062245
     4  H    0.029916
     5  H    0.087314
     6  H    0.085030
 Sum of Mulliken charges =   0.00000

 Dipole moment (field-independent basis, Debye):
    X=              0.8340    Y=              0.8399    Z=              0.8894  Tot=              1.4806
 Quadrupole moment (field-independent basis, Debye-Ang):
   XX=            -13.2754   YY=            -12.9664   ZZ=            -12.9647
   XY=             -1.9064   XZ=             -0.9238   YZ=              0.5722

 Normal termination of Gaussian 09 at Wed Aug 26 23:42:33 2020.
