 Gaussian 09, Revision D.01,
 Gaussian 09:  ES64L-G09RevD.01 24-Apr-2013

 --------------------
 #p B2PLYPD3/Def2QZVP
 --------------------

 --------
 methanol
 --------
 Symbolic Z-matrix:
 Charge =  0 Multiplicity = 1

                         Standard orientation:
 ---------------------------------------------------------------------
 Center     Atomic      Atomic             Coordinates (Angstroms)
 Number     Number       Type             X           Y           Z
 ---------------------------------------------------------------------
      1          6           0       -0.634027    0.065634   -0.007496
      2          8           0        0.721506   -0.206026    0.001827
      3          1           0       -1.022467    0.461722   -0.725003
      4          1           0       -1.008764    0.496039    0.741085
      5          1           0       -1.141079   -0.875747    0.021306
      6          1           0        1.204422    1.172395   -0.007025
 ---------------------------------------------------------------------

 SCF Done:  E(RB2PLYPD3) =  -115.397803497     A.U. after   11 cycles
 E2(B2PLYPD3) =    -0.1565153518D+00 E(B2PLYPD3) =    -0.11555431884916D+03

 The electronic state is 1-A.
 Alpha  occ. eigenvalues --  -19.76056 -10.60915  -1.13237  -0.81350  -0.54972
 Alpha  occ. eigenvalues --   -0.54315  -0.49713  -0.38072  -0.35861
 Alpha virt. eigenvalues --   -0.02765   0.07321   0.12556   0.13188   0.14956
 Alpha virt. eigenvalues --    0.17843   0.18716   0.21314   0.29409   0.34229
 Alpha virt. eigenvalues --    0.35941   0.37220   0.39965   0.44220   0.45369

 Mulliken charges:
               1
     1  C    0.105891
     2  O   -0.453127
     3  H    0.049078
     4  H    0.040514
     5  H    0.035317
     6  H    0.222327
 Sum of Mulliken charges =   0.00000

 Dipole moment (field-independent basis, Debye):
    X=             -1.0572    Y=              1.8388    Z=             -0.0265  Tot=              2.1212
 Quadrupole moment (field-independent basis, Debye-Ang):
   XX=            -13.0383   YY=            -11.4511   ZZ=            -13.9979
   XY=              2.2544   XZ=              0.0143   YZ=             -0.0287

 Normal termination of Gaussian 09 at Wed Aug 26 18:54:13 2020.
