 Gaussian 09, Revision D.01,
 Gaussian 09:  ES64L-G09RevD.01 24-Apr-2013

 --------------------
 #p B2PLYPD3/Def2QZVP
 --------------------

 --------
 methanol
 --------
 Symbolic Z-matrix:
 Charge =  0 Multiplicity = 1

                         Standard orientation:
 ---------------------------------------------------------------------
 Center     Atomic      Atomic             Coordinates (Angstroms)
 Number     Number       Type             X           Y           Z
 ---------------------------------------------------------------------
      1          6           0       -0.674700    0.018278   -0.003754
      2          8           0        0.741096   -0.148523   -0.010344
      3          1           0       -1.075118    0.583803   -0.774368
      4          1           0       -0.976752    0.496101    0.837702
      5          1           0       -1.002364   -0.950541    0.008000
      6          1           0        1.173664    0.949153    0.033945
 ---------------------------------------------------------------------

 SCF Done:  E(RB2PLYPD3) =  -115.508527487     A.U. after   11 cycles
 E2(B2PLYPD3) =    -0.1511426453D+00 E(B2PLYPD3) =    -0.11565967013272D+03

 The electronic state is 1-A.
 Alpha  occ. eigenvalues --  -19.73983 -10.63108  -1.12827  -0.79087  -0.57191
 Alpha  occ. eigenvalues --   -0.52034  -0.48765  -0.41204  -0.34993
 Alpha virt. eigenvalues --    0.02738   0.07815   0.12377   0.12916   0.15143
 Alpha virt. eigenvalues --    0.17006   0.18109   0.27130   0.29687   0.33390
 Alpha virt. eigenvalues --    0.34277   0.38982   0.39489   0.42156   0.44869

 Mulliken charges:
               1
     1  C    0.088944
     2  O   -0.492724
     3  H    0.043385
     4  H    0.042839
     5  H    0.070353
     6  H    0.247203
 Sum of Mulliken charges =   0.00000

 Dipole moment (field-independent basis, Debye):
    X=             -0.9823    Y=              1.6809    Z=              0.1049  Tot=              1.9497
 Quadrupole moment (field-independent basis, Debye-Ang):
   XX=            -13.0959   YY=            -11.5941   ZZ=            -13.9798
   XY=              2.2645   XZ=              0.1174   YZ=              0.0265

 Normal termination of Gaussian 09 at Wed Aug 26 13:52:35 2020.
