 Gaussian 09, Revision D.01,
 Gaussian 09:  ES64L-G09RevD.01 24-Apr-2013

 --------------------
 #p B2PLYPD3/Def2QZVP
 --------------------

 --------
 methanol
 --------
 Symbolic Z-matrix:
 Charge =  0 Multiplicity = 1

                         Standard orientation:
 ---------------------------------------------------------------------
 Center     Atomic      Atomic             Coordinates (Angstroms)
 Number     Number       Type             X           Y           Z
 ---------------------------------------------------------------------
      1          6           0        0.681310   -0.013965    0.022484
      2          8           0       -0.755441    0.072888   -0.032946
      3          1           0        1.067998   -0.892768   -0.722776
      4          1           0        0.952365   -0.201610    1.040219
      5          1           0        1.061597    1.057312   -0.330174
      6          1           0       -1.126295   -0.462252    0.141395
 ---------------------------------------------------------------------

 SCF Done:  E(RB2PLYPD3) =  -115.375402150     A.U. after   11 cycles
 E2(B2PLYPD3) =    -0.1438808128D+00 E(B2PLYPD3) =    -0.11551928296252D+03

 The electronic state is 1-A.
 Alpha  occ. eigenvalues --  -19.68948 -10.68707  -1.24272  -0.81862  -0.61516
 Alpha  occ. eigenvalues --   -0.51624  -0.49575  -0.40432  -0.36158
 Alpha virt. eigenvalues --    0.05279   0.09287   0.11480   0.11914   0.14400
 Alpha virt. eigenvalues --    0.16654   0.17620   0.28799   0.31611   0.32634
 Alpha virt. eigenvalues --    0.35947   0.36609   0.40561   0.41117   0.42498

 Mulliken charges:
               1
     1  C    0.058512
     2  O   -0.242202
     3  H    0.045641
     4  H    0.067527
     5  H    0.081453
     6  H   -0.010931
 Sum of Mulliken charges =   0.00000

 Dipole moment (field-independent basis, Debye):
    X=              0.9609    Y=             -1.1011    Z=              0.4988  Tot=              1.5442
 Quadrupole moment (field-independent basis, Debye-Ang):
   XX=            -13.0306   YY=            -12.5908   ZZ=            -13.3946
   XY=              1.8202   XZ=             -0.5260   YZ=             -0.2614

 Normal termination of Gaussian 09 at Wed Aug 26 12:48:55 2020.
