 Gaussian 09, Revision D.01,
 Gaussian 09:  ES64L-G09RevD.01 24-Apr-2013

 --------------------
 #p B2PLYPD3/Def2QZVP
 --------------------

 --------
 methanol
 --------
 Symbolic Z-matrix:
 Charge =  0 Multiplicity = 1

                         Standard orientation:
 ---------------------------------------------------------------------
 Center     Atomic      Atomic             Coordinates (Angstroms)
 Number     Number       Type             X           Y           Z
 ---------------------------------------------------------------------
      1          6           0        0.637607   -0.002500   -0.028518
      2          8           0       -0.733206   -0.131638    0.022114
      3          1           0        1.137405    0.553836    0.884610
      4          1           0        0.925909    0.482615   -0.879996
      5          1           0        1.003813   -0.889673    0.018094
      6          1           0       -1.027116    0.921326   -0.028514
 ---------------------------------------------------------------------

 SCF Done:  E(RB2PLYPD3) =  -115.514054647     A.U. after   11 cycles
 E2(B2PLYPD3) =    -0.1493270078D+00 E(B2PLYPD3) =    -0.11566338165469D+03

 The electronic state is 1-A.
 Alpha  occ. eigenvalues --  -19.73923 -10.63771  -1.16059  -0.78793  -0.58534
 Alpha  occ. eigenvalues --   -0.52171  -0.50598  -0.41578  -0.34684
 Alpha virt. eigenvalues --    0.03605   0.08008   0.12354   0.12800   0.15022
 Alpha virt. eigenvalues --    0.17552   0.18299   0.28578   0.30040   0.32538
 Alpha virt. eigenvalues --    0.35492   0.37700   0.40534   0.42409   0.44345

 Mulliken charges:
               1
     1  C    0.070712
     2  O   -0.456151
     3  H    0.019417
     4  H    0.042416
     5  H    0.072440
     6  H    0.251166
 Sum of Mulliken charges =   0.00000

 Dipole moment (field-independent basis, Debye):
    X=              0.8903    Y=              1.5027    Z=             -0.2495  Tot=              1.7644
 Quadrupole moment (field-independent basis, Debye-Ang):
   XX=            -13.6356   YY=            -11.7728   ZZ=            -13.8669
   XY=             -2.2749   XZ=              0.0506   YZ=             -0.2172

 Normal termination of Gaussian 09 at Wed Aug 26 20:48:19 2020.
