 Gaussian 09, Revision D.01,
 Gaussian 09:  ES64L-G09RevD.01 24-Apr-2013

 --------------------
 #p B2PLYPD3/Def2QZVP
 --------------------

 --------
 methanol
 --------
 Symbolic Z-matrix:
 Charge =  0 Multiplicity = 1

                         Standard orientation:
 ---------------------------------------------------------------------
 Center     Atomic      Atomic             Coordinates (Angstroms)
 Number     Number       Type             X           Y           Z
 ---------------------------------------------------------------------
      1          6           0       -0.705836    0.001110    0.010193
      2          8           0        0.735537   -0.192647   -0.020968
      3          1           0       -1.072100    0.613700   -0.783240
      4          1           0       -0.941372    0.479359    0.792912
      5          1           0       -0.952488   -0.734300    0.023947
      6          1           0        1.316675    1.175752    0.072963
 ---------------------------------------------------------------------

 SCF Done:  E(RB2PLYPD3) =  -115.310948704     A.U. after   12 cycles
 E2(B2PLYPD3) =    -0.1580007259D+00 E(B2PLYPD3) =    -0.11546894942977D+03

 The electronic state is 1-A.
 Alpha  occ. eigenvalues --  -19.75241 -10.60327  -1.10557  -0.82464  -0.58964
 Alpha  occ. eigenvalues --   -0.51878  -0.47848  -0.39482  -0.34872
 Alpha virt. eigenvalues --   -0.02849   0.07432   0.12830   0.12981   0.14295
 Alpha virt. eigenvalues --    0.17105   0.18162   0.21669   0.29309   0.32792
 Alpha virt. eigenvalues --    0.33424   0.37194   0.41035   0.41981   0.45614

 Mulliken charges:
               1
     1  C   -0.073790
     2  O   -0.494201
     3  H    0.057192
     4  H    0.055627
     5  H    0.233469
     6  H    0.221703
 Sum of Mulliken charges =   0.00000

 Dipole moment (field-independent basis, Debye):
    X=             -1.1528    Y=              1.6959    Z=              0.2308  Tot=              2.0635
 Quadrupole moment (field-independent basis, Debye-Ang):
   XX=            -12.7620   YY=            -11.1474   ZZ=            -13.9324
   XY=              2.5682   XZ=              0.1065   YZ=              0.1120

 Normal termination of Gaussian 09 at Wed Aug 26 22:28:05 2020.
