 Gaussian 09, Revision D.01,
 Gaussian 09:  ES64L-G09RevD.01 24-Apr-2013

 --------------------
 #p B2PLYPD3/Def2QZVP
 --------------------

 --------
 methanol
 --------
 Symbolic Z-matrix:
 Charge =  0 Multiplicity = 1

                         Standard orientation:
 ---------------------------------------------------------------------
 Center     Atomic      Atomic             Coordinates (Angstroms)
 Number     Number       Type             X           Y           Z
 ---------------------------------------------------------------------
      1          6           0        0.672006    0.031126    0.021669
      2          8           0       -0.732271   -0.160756   -0.014474
      3          1           0        0.975131    0.396351    0.855644
      4          1           0        1.040078    0.631480   -0.801362
      5          1           0        1.040034   -0.891387   -0.113368
      6          1           0       -1.229116    0.962842    0.044860
 ---------------------------------------------------------------------

 SCF Done:  E(RB2PLYPD3) =  -115.489845095     A.U. after   11 cycles
 E2(B2PLYPD3) =    -0.1518127634D+00 E(B2PLYPD3) =    -0.11564165785805D+03

 The electronic state is 1-A.
 Alpha  occ. eigenvalues --  -19.74156 -10.62657  -1.12586  -0.79289  -0.56401
 Alpha  occ. eigenvalues --   -0.52778  -0.49141  -0.40222  -0.35108
 Alpha virt. eigenvalues --    0.02003   0.07724   0.12691   0.12753   0.14937
 Alpha virt. eigenvalues --    0.17138   0.18384   0.25764   0.29459   0.33514
 Alpha virt. eigenvalues --    0.34405   0.38622   0.40055   0.42493   0.45135

 Mulliken charges:
               1
     1  C    0.088367
     2  O   -0.495547
     3  H    0.052031
     4  H    0.039802
     5  H    0.065980
     6  H    0.249367
 Sum of Mulliken charges =   0.00000

 Dipole moment (field-independent basis, Debye):
    X=              0.9158    Y=              1.6446    Z=              0.1663  Tot=              1.8898
 Quadrupole moment (field-independent basis, Debye-Ang):
   XX=            -12.8753   YY=            -11.8157   ZZ=            -13.8053
   XY=             -2.4904   XZ=             -0.0783   YZ=              0.1547

 Normal termination of Gaussian 09 at Wed Aug 26 13:23:51 2020.
