 Gaussian 09, Revision D.01,
 Gaussian 09:  ES64L-G09RevD.01 24-Apr-2013

 --------------------
 #p B2PLYPD3/Def2QZVP
 --------------------

 --------
 methanol
 --------
 Symbolic Z-matrix:
 Charge =  0 Multiplicity = 1

                         Standard orientation:
 ---------------------------------------------------------------------
 Center     Atomic      Atomic             Coordinates (Angstroms)
 Number     Number       Type             X           Y           Z
 ---------------------------------------------------------------------
      1          6           0        0.621752   -0.008717    0.017036
      2          8           0       -0.738616   -0.030264   -0.064365
      3          1           0        0.888656   -0.266568    1.096175
      4          1           0        1.169463    1.123132   -0.336367
      5          1           0        1.094550   -0.855839   -0.658740
      6          1           0       -0.974250    0.293687    0.311632
 ---------------------------------------------------------------------

 SCF Done:  E(RB2PLYPD3) =  -115.023873921     A.U. after   11 cycles
 E2(B2PLYPD3) =    -0.1428933431D+00 E(B2PLYPD3) =    -0.11516676726420D+03

 The electronic state is 1-A.
 Alpha  occ. eigenvalues --  -19.69552 -10.69741  -1.34025  -0.84222  -0.63307
 Alpha  occ. eigenvalues --   -0.52328  -0.51812  -0.41016  -0.35940
 Alpha virt. eigenvalues --    0.05068   0.09426   0.11312   0.11864   0.14372
 Alpha virt. eigenvalues --    0.17020   0.17717   0.27423   0.31101   0.34116
 Alpha virt. eigenvalues --    0.34884   0.36320   0.39463   0.41696   0.43963

 Mulliken charges:
               1
     1  C    0.042011
     2  O   -0.069679
     3  H    0.047691
     4  H    0.024786
     5  H    0.077582
     6  H   -0.122391
 Sum of Mulliken charges =   0.00000

 Dipole moment (field-independent basis, Debye):
    X=              0.8013    Y=              0.4858    Z=              0.9116  Tot=              1.3073
 Quadrupole moment (field-independent basis, Debye-Ang):
   XX=            -13.4697   YY=            -13.0865   ZZ=            -13.0512
   XY=             -1.2420   XZ=             -1.3280   YZ=              0.4184

 Normal termination of Gaussian 09 at Wed Aug 26 23:10:52 2020.
