 Gaussian 09, Revision D.01,
 Gaussian 09:  ES64L-G09RevD.01 24-Apr-2013

 --------------------
 #p B2PLYPD3/Def2QZVP
 --------------------

 --------
 methanol
 --------
 Symbolic Z-matrix:
 Charge =  0 Multiplicity = 1

                         Standard orientation:
 ---------------------------------------------------------------------
 Center     Atomic      Atomic             Coordinates (Angstroms)
 Number     Number       Type             X           Y           Z
 ---------------------------------------------------------------------
      1          6           0        0.645786    0.016121   -0.013143
      2          8           0       -0.737296   -0.148624    0.011637
      3          1           0        1.127680    0.525520    0.826740
      4          1           0        0.963342    0.548689   -0.812219
      5          1           0        1.067325   -0.926334   -0.028575
      6          1           0       -1.134693    0.944391   -0.000185
 ---------------------------------------------------------------------

 SCF Done:  E(RB2PLYPD3) =  -115.514278909     A.U. after   11 cycles
 E2(B2PLYPD3) =    -0.1506103111D+00 E(B2PLYPD3) =    -0.11566488921986D+03

 The electronic state is 1-A.
 Alpha  occ. eigenvalues --  -19.74352 -10.63593  -1.14392  -0.78610  -0.57393
 Alpha  occ. eigenvalues --   -0.51814  -0.49873  -0.40989  -0.34884
 Alpha virt. eigenvalues --    0.02791   0.07736   0.12554   0.12857   0.15207
 Alpha virt. eigenvalues --    0.17518   0.18281   0.27210   0.29645   0.33156
 Alpha virt. eigenvalues --    0.35317   0.38793   0.39841   0.41616   0.44433

 Mulliken charges:
               1
     1  C    0.082485
     2  O   -0.473698
     3  H    0.032843
     4  H    0.040315
     5  H    0.064224
     6  H    0.253831
 Sum of Mulliken charges =   0.00000

 Dipole moment (field-independent basis, Debye):
    X=              0.8690    Y=              1.6621    Z=             -0.1018  Tot=              1.8783
 Quadrupole moment (field-independent basis, Debye-Ang):
   XX=            -13.1270   YY=            -11.7425   ZZ=            -14.0632
   XY=             -2.3348   XZ=              0.0392   YZ=             -0.0854

 Normal termination of Gaussian 09 at Wed Aug 26 15:26:21 2020.
