 Gaussian 09, Revision D.01,
 Gaussian 09:  ES64L-G09RevD.01 24-Apr-2013

 --------------------
 #p B2PLYPD3/Def2QZVP
 --------------------

 --------
 methanol
 --------
 Symbolic Z-matrix:
 Charge =  0 Multiplicity = 1

                         Standard orientation:
 ---------------------------------------------------------------------
 Center     Atomic      Atomic             Coordinates (Angstroms)
 Number     Number       Type             X           Y           Z
 ---------------------------------------------------------------------
      1          6           0        0.655517    0.025566   -0.023300
      2          8           0       -0.726404   -0.183038    0.024969
      3          1           0        1.171433    0.601563    0.759299
      4          1           0        0.959514    0.522704   -0.728207
      5          1           0        1.086782   -0.873909   -0.031308
      6          1           0       -1.339601    1.060552   -0.059736
 ---------------------------------------------------------------------

 SCF Done:  E(RB2PLYPD3) =  -115.431422707     A.U. after   11 cycles
 E2(B2PLYPD3) =    -0.1551357381D+00 E(B2PLYPD3) =    -0.11558655844536D+03

 The electronic state is 1-A.
 Alpha  occ. eigenvalues --  -19.75435 -10.62145  -1.12545  -0.80137  -0.56553
 Alpha  occ. eigenvalues --   -0.50821  -0.49716  -0.39750  -0.34568
 Alpha virt. eigenvalues --   -0.01282   0.07293   0.12480   0.13426   0.15181
 Alpha virt. eigenvalues --    0.17478   0.18339   0.22240   0.29807   0.33059
 Alpha virt. eigenvalues --    0.35254   0.38546   0.38861   0.41071   0.45889

 Mulliken charges:
               1
     1  C    0.083103
     2  O   -0.477581
     3  H    0.028958
     4  H    0.056290
     5  H    0.065231
     6  H    0.244001
 Sum of Mulliken charges =   0.00000

 Dipole moment (field-independent basis, Debye):
    X=              0.7811    Y=              1.7266    Z=             -0.3007  Tot=              1.9188
 Quadrupole moment (field-independent basis, Debye-Ang):
   XX=            -12.3756   YY=            -11.5679   ZZ=            -14.3269
   XY=             -2.6151   XZ=              0.0565   YZ=             -0.2162

 Normal termination of Gaussian 09 at Wed Aug 26 21:53:12 2020.
