 Gaussian 09, Revision D.01,
 Gaussian 09:  ES64L-G09RevD.01 24-Apr-2013

 --------------------
 #p B2PLYPD3/Def2QZVP
 --------------------

 --------
 methanol
 --------
 Symbolic Z-matrix:
 Charge =  0 Multiplicity = 1

                         Standard orientation:
 ---------------------------------------------------------------------
 Center     Atomic      Atomic             Coordinates (Angstroms)
 Number     Number       Type             X           Y           Z
 ---------------------------------------------------------------------
      1          6           0       -0.667742    0.004627    0.017707
      2          8           0        0.740458   -0.079153   -0.035546
      3          1           0       -1.009536    0.913135   -0.703144
      4          1           0       -0.967623    0.146703    1.091862
      5          1           0       -1.068997   -0.939141   -0.393967
      6          1           0        1.128943    0.484766    0.183376
 ---------------------------------------------------------------------

 SCF Done:  E(RB2PLYPD3) =  -115.444192162     A.U. after   11 cycles
 E2(B2PLYPD3) =    -0.1438590014D+00 E(B2PLYPD3) =    -0.11558805116339D+03

 The electronic state is 1-A.
 Alpha  occ. eigenvalues --  -19.69561 -10.67994  -1.23053  -0.81627  -0.60994
 Alpha  occ. eigenvalues --   -0.51916  -0.50951  -0.40285  -0.35601
 Alpha virt. eigenvalues --    0.05407   0.09235   0.11667   0.12328   0.14205
 Alpha virt. eigenvalues --    0.16911   0.17710   0.28738   0.32472   0.32871
 Alpha virt. eigenvalues --    0.36559   0.39103   0.39758   0.40671   0.42980

 Mulliken charges:
               1
     1  C    0.058018
     2  O   -0.270387
     3  H    0.037953
     4  H    0.055466
     5  H    0.086589
     6  H    0.032361
 Sum of Mulliken charges =   0.00000

 Dipole moment (field-independent basis, Debye):
    X=             -0.8250    Y=              1.0432    Z=              0.4961  Tot=              1.4195
 Quadrupole moment (field-independent basis, Debye-Ang):
   XX=            -13.0258   YY=            -12.7694   ZZ=            -13.3186
   XY=              1.9881   XZ=              0.7067   YZ=              0.3320

 Normal termination of Gaussian 09 at Wed Aug 26 12:42:02 2020.
