 Gaussian 09, Revision D.01,
 Gaussian 09:  ES64L-G09RevD.01 24-Apr-2013

 --------------------
 #p B2PLYPD3/Def2QZVP
 --------------------

 --------
 methanol
 --------
 Symbolic Z-matrix:
 Charge =  0 Multiplicity = 1

                         Standard orientation:
 ---------------------------------------------------------------------
 Center     Atomic      Atomic             Coordinates (Angstroms)
 Number     Number       Type             X           Y           Z
 ---------------------------------------------------------------------
      1          6           0       -0.662633    0.008844   -0.025938
      2          8           0        0.769212    0.001261    0.068935
      3          1           0       -0.922104   -0.892948   -0.798573
      4          1           0       -1.150015    1.152852   -0.268449
      5          1           0       -1.209541   -0.383167    0.999969
      6          1           0        1.103760    0.060116   -0.328800
 ---------------------------------------------------------------------

 SCF Done:  E(RB2PLYPD3) =  -114.883061407     A.U. after   12 cycles
 E2(B2PLYPD3) =    -0.1442275861D+00 E(B2PLYPD3) =    -0.11502728899282D+03

 The electronic state is 1-A.
 Alpha  occ. eigenvalues --  -19.68754 -10.71794  -1.32256  -0.84147  -0.62122
 Alpha  occ. eigenvalues --   -0.51168  -0.50034  -0.38868  -0.36872
 Alpha virt. eigenvalues --    0.04679   0.09399   0.10919   0.11337   0.13395
 Alpha virt. eigenvalues --    0.17008   0.18183   0.27738   0.30793   0.32064
 Alpha virt. eigenvalues --    0.33450   0.34254   0.37080   0.41022   0.43997

 Mulliken charges:
               1
     1  C    0.053034
     2  O   -0.065582
     3  H    0.053456
     4  H    0.059947
     5  H    0.079354
     6  H   -0.180210
 Sum of Mulliken charges =   0.00000

 Dipole moment (field-independent basis, Debye):
    X=             -1.0249    Y=              0.0691    Z=             -0.9398  Tot=              1.3923
 Quadrupole moment (field-independent basis, Debye-Ang):
   XX=            -12.7932   YY=            -13.1370   ZZ=            -13.2180
   XY=              0.2060   XZ=             -1.9046   YZ=             -0.0943

 Normal termination of Gaussian 09 at Wed Aug 26 22:24:57 2020.
