 Gaussian 09, Revision D.01,
 Gaussian 09:  ES64L-G09RevD.01 24-Apr-2013

 --------------------
 #p B2PLYPD3/Def2QZVP
 --------------------

 --------
 methanol
 --------
 Symbolic Z-matrix:
 Charge =  0 Multiplicity = 1

                         Standard orientation:
 ---------------------------------------------------------------------
 Center     Atomic      Atomic             Coordinates (Angstroms)
 Number     Number       Type             X           Y           Z
 ---------------------------------------------------------------------
      1          6           0        0.683356   -0.017125    0.007598
      2          8           0       -0.751057    0.125072   -0.014984
      3          1           0        1.065421   -0.630726   -0.828830
      4          1           0        0.965928   -0.505162    0.878141
      5          1           0        1.067971    1.002747   -0.025059
      6          1           0       -1.190999   -0.764685    0.050034
 ---------------------------------------------------------------------

 SCF Done:  E(RB2PLYPD3) =  -115.547909707     A.U. after   10 cycles
 E2(B2PLYPD3) =    -0.1479664661D+00 E(B2PLYPD3) =    -0.11569587617343D+03

 The electronic state is 1-A.
 Alpha  occ. eigenvalues --  -19.72492 -10.65338  -1.14510  -0.78827  -0.58204
 Alpha  occ. eigenvalues --   -0.51461  -0.49370  -0.41147  -0.35153
 Alpha virt. eigenvalues --    0.04777   0.08071   0.12216   0.12571   0.14956
 Alpha virt. eigenvalues --    0.17071   0.17826   0.29264   0.32815   0.33403
 Alpha virt. eigenvalues --    0.34120   0.38961   0.39463   0.40629   0.44423

 Mulliken charges:
               1
     1  C    0.079532
     2  O   -0.484501
     3  H    0.045744
     4  H    0.051900
     5  H    0.075560
     6  H    0.231764
 Sum of Mulliken charges =   0.00000

 Dipole moment (field-independent basis, Debye):
    X=              0.9067    Y=             -1.5461    Z=              0.1800  Tot=              1.8014
 Quadrupole moment (field-independent basis, Debye-Ang):
   XX=            -12.8823   YY=            -12.0603   ZZ=            -13.8866
   XY=              2.2862   XZ=             -0.1561   YZ=             -0.1067

 Normal termination of Gaussian 09 at Wed Aug 26 13:19:29 2020.
