 Gaussian 09, Revision D.01,
 Gaussian 09:  ES64L-G09RevD.01 24-Apr-2013

 --------------------
 #p B2PLYPD3/Def2QZVP
 --------------------

 --------
 methanol
 --------
 Symbolic Z-matrix:
 Charge =  0 Multiplicity = 1

                         Standard orientation:
 ---------------------------------------------------------------------
 Center     Atomic      Atomic             Coordinates (Angstroms)
 Number     Number       Type             X           Y           Z
 ---------------------------------------------------------------------
      1          6           0        0.668763   -0.017661    0.009229
      2          8           0       -0.764365    0.080848   -0.015608
      3          1           0        1.109760   -0.762868   -0.816969
      4          1           0        1.032738   -0.351313    1.035102
      5          1           0        1.116445    1.072489   -0.205341
      6          1           0       -1.156599   -0.499124    0.056693
 ---------------------------------------------------------------------

 SCF Done:  E(RB2PLYPD3) =  -115.419309372     A.U. after   11 cycles
 E2(B2PLYPD3) =    -0.1445587293D+00 E(B2PLYPD3) =    -0.11556386810118D+03

 The electronic state is 1-A.
 Alpha  occ. eigenvalues --  -19.69929 -10.69323  -1.23318  -0.81035  -0.61505
 Alpha  occ. eigenvalues --   -0.50832  -0.49538  -0.40206  -0.36183
 Alpha virt. eigenvalues --    0.05270   0.08915   0.11605   0.11935   0.14455
 Alpha virt. eigenvalues --    0.16932   0.17911   0.28780   0.31912   0.32957
 Alpha virt. eigenvalues --    0.35466   0.36945   0.39107   0.40271   0.42042

 Mulliken charges:
               1
     1  C    0.052160
     2  O   -0.259007
     3  H    0.047895
     4  H    0.060413
     5  H    0.077914
     6  H    0.020624
 Sum of Mulliken charges =   0.00000

 Dipole moment (field-independent basis, Debye):
    X=              0.8933    Y=             -1.1897    Z=              0.2044  Tot=              1.5018
 Quadrupole moment (field-independent basis, Debye-Ang):
   XX=            -12.7556   YY=            -12.7269   ZZ=            -13.6593
   XY=              1.9336   XZ=             -0.2518   YZ=             -0.1201

 Normal termination of Gaussian 09 at Wed Aug 26 15:46:36 2020.
