 Gaussian 09, Revision D.01,
 Gaussian 09:  ES64L-G09RevD.01 24-Apr-2013

 --------------------
 #p B2PLYPD3/Def2QZVP
 --------------------

 --------
 methanol
 --------
 Symbolic Z-matrix:
 Charge =  0 Multiplicity = 1

                         Standard orientation:
 ---------------------------------------------------------------------
 Center     Atomic      Atomic             Coordinates (Angstroms)
 Number     Number       Type             X           Y           Z
 ---------------------------------------------------------------------
      1          6           0        0.643266   -0.032301    0.032695
      2          8           0       -0.762428    0.069115   -0.004260
      3          1           0        1.014352   -0.903776   -0.740712
      4          1           0        1.057442   -0.156329    1.028457
      5          1           0        1.100327    1.122599   -0.446586
      6          1           0       -0.932293   -0.421610   -0.003249
 ---------------------------------------------------------------------

 SCF Done:  E(RB2PLYPD3) =  -114.873028321     A.U. after   12 cycles
 E2(B2PLYPD3) =    -0.1434550184D+00 E(B2PLYPD3) =    -0.11501648333971D+03

 The electronic state is 1-A.
 Alpha  occ. eigenvalues --  -19.69488 -10.70143  -1.35120  -0.82504  -0.63655
 Alpha  occ. eigenvalues --   -0.53134  -0.49796  -0.40593  -0.37447
 Alpha virt. eigenvalues --    0.04733   0.09568   0.10327   0.11798   0.14533
 Alpha virt. eigenvalues --    0.16979   0.17776   0.27552   0.30581   0.32565
 Alpha virt. eigenvalues --    0.33467   0.35771   0.40069   0.41343   0.44226

 Mulliken charges:
               1
     1  C    0.037151
     2  O   -0.049595
     3  H    0.044809
     4  H    0.081231
     5  H    0.048986
     6  H   -0.162583
 Sum of Mulliken charges =   0.00000

 Dipole moment (field-independent basis, Debye):
    X=              1.1012    Y=             -1.2132    Z=              0.1398  Tot=              1.6444
 Quadrupole moment (field-independent basis, Debye-Ang):
   XX=            -13.6353   YY=            -12.5738   ZZ=            -13.2874
   XY=              1.4299   XZ=              0.1395   YZ=              0.0270

 Normal termination of Gaussian 09 at Wed Aug 26 20:01:58 2020.
