 Gaussian 09, Revision D.01,
 Gaussian 09:  ES64L-G09RevD.01 24-Apr-2013

 --------------------
 #p B2PLYPD3/Def2QZVP
 --------------------

 --------
 methanol
 --------
 Symbolic Z-matrix:
 Charge =  0 Multiplicity = 1

                         Standard orientation:
 ---------------------------------------------------------------------
 Center     Atomic      Atomic             Coordinates (Angstroms)
 Number     Number       Type             X           Y           Z
 ---------------------------------------------------------------------
      1          6           0        0.679707    0.001756   -0.010874
      2          8           0       -0.753393    0.087584   -0.010137
      3          1           0        1.034670   -0.689996   -0.847632
      4          1           0        1.023138   -0.414825    1.021869
      5          1           0        0.974367    1.013518   -0.104716
      6          1           0       -1.083271   -0.619901    0.076815
 ---------------------------------------------------------------------

 SCF Done:  E(RB2PLYPD3) =  -115.504709713     A.U. after   10 cycles
 E2(B2PLYPD3) =    -0.1449094959D+00 E(B2PLYPD3) =    -0.11564961920864D+03

 The electronic state is 1-A.
 Alpha  occ. eigenvalues --  -19.70471 -10.67105  -1.20353  -0.80311  -0.60154
 Alpha  occ. eigenvalues --   -0.51249  -0.50485  -0.41816  -0.35504
 Alpha virt. eigenvalues --    0.05384   0.08943   0.11811   0.12314   0.14611
 Alpha virt. eigenvalues --    0.16717   0.17767   0.28976   0.32268   0.32936
 Alpha virt. eigenvalues --    0.36957   0.38917   0.40000   0.40732   0.43278

 Mulliken charges:
               1
     1  C    0.062693
     2  O   -0.347047
     3  H    0.050814
     4  H    0.043276
     5  H    0.087467
     6  H    0.102796
 Sum of Mulliken charges =   0.00000

 Dipole moment (field-independent basis, Debye):
    X=              0.9794    Y=             -1.2670    Z=              0.1320  Tot=              1.6068
 Quadrupole moment (field-independent basis, Debye-Ang):
   XX=            -13.3342   YY=            -12.2273   ZZ=            -13.6137
   XY=              1.9945   XZ=             -0.2849   YZ=             -0.0652

 Normal termination of Gaussian 09 at Wed Aug 26 13:02:36 2020.
