 Gaussian 09, Revision D.01,
 Gaussian 09:  ES64L-G09RevD.01 24-Apr-2013

 --------------------
 #p B2PLYPD3/Def2QZVP
 --------------------

 --------
 methanol
 --------
 Symbolic Z-matrix:
 Charge =  0 Multiplicity = 1

                         Standard orientation:
 ---------------------------------------------------------------------
 Center     Atomic      Atomic             Coordinates (Angstroms)
 Number     Number       Type             X           Y           Z
 ---------------------------------------------------------------------
      1          6           0       -0.680658   -0.048575   -0.030036
      2          8           0        0.748924    0.142805    0.006396
      3          1           0       -1.059776   -0.514727    0.876393
      4          1           0       -1.004478   -0.540650   -0.777034
      5          1           0       -1.089564    1.026264    0.021284
      6          1           0        1.246375   -0.821874    0.008401
 ---------------------------------------------------------------------

 SCF Done:  E(RB2PLYPD3) =  -115.519895720     A.U. after   11 cycles
 E2(B2PLYPD3) =    -0.1497531072D+00 E(B2PLYPD3) =    -0.11566964882694D+03

 The electronic state is 1-A.
 Alpha  occ. eigenvalues --  -19.73425 -10.64693  -1.13136  -0.79098  -0.57565
 Alpha  occ. eigenvalues --   -0.52463  -0.47933  -0.40397  -0.35415
 Alpha virt. eigenvalues --    0.04048   0.07653   0.11982   0.12761   0.15033
 Alpha virt. eigenvalues --    0.17035   0.18402   0.28890   0.30819   0.33129
 Alpha virt. eigenvalues --    0.33727   0.36796   0.39437   0.41963   0.44353

 Mulliken charges:
               1
     1  C    0.076609
     2  O   -0.494320
     3  H    0.048439
     4  H    0.062229
     5  H    0.061070
     6  H    0.245974
 Sum of Mulliken charges =   0.00000

 Dipole moment (field-independent basis, Debye):
    X=             -0.8467    Y=             -1.6775    Z=             -0.0689  Tot=              1.8804
 Quadrupole moment (field-independent basis, Debye-Ang):
   XX=            -12.6639   YY=            -12.1265   ZZ=            -13.9021
   XY=             -2.2934   XZ=              0.0519   YZ=              0.1545

 Normal termination of Gaussian 09 at Wed Aug 26 21:00:35 2020.
