 Gaussian 09, Revision D.01,
 Gaussian 09:  ES64L-G09RevD.01 24-Apr-2013

 --------------------
 #p B2PLYPD3/Def2QZVP
 --------------------

 --------
 methanol
 --------
 Symbolic Z-matrix:
 Charge =  0 Multiplicity = 1

                         Standard orientation:
 ---------------------------------------------------------------------
 Center     Atomic      Atomic             Coordinates (Angstroms)
 Number     Number       Type             X           Y           Z
 ---------------------------------------------------------------------
      1          6           0       -0.675884    0.008713    0.011361
      2          8           0        0.758174   -0.083837   -0.025586
      3          1           0       -0.869166    1.012774   -0.615744
      4          1           0       -1.110208   -0.022027    1.031489
      5          1           0       -1.002989   -0.891861   -0.548141
      6          1           0        0.972279    0.519528    0.268918
 ---------------------------------------------------------------------

 SCF Done:  E(RB2PLYPD3) =  -115.424541111     A.U. after   11 cycles
 E2(B2PLYPD3) =    -0.1443213108D+00 E(B2PLYPD3) =    -0.11556886242209D+03

 The electronic state is 1-A.
 Alpha  occ. eigenvalues --  -19.69716 -10.67753  -1.24287  -0.80343  -0.60895
 Alpha  occ. eigenvalues --   -0.52260  -0.49823  -0.42244  -0.36037
 Alpha virt. eigenvalues --    0.05297   0.09118   0.11516   0.12141   0.14126
 Alpha virt. eigenvalues --    0.16972   0.17823   0.28449   0.31002   0.33221
 Alpha virt. eigenvalues --    0.35828   0.38391   0.39970   0.41475   0.43470

 Mulliken charges:
               1
     1  C    0.047972
     2  O   -0.258606
     3  H    0.044686
     4  H    0.061242
     5  H    0.079561
     6  H    0.025145
 Sum of Mulliken charges =   0.00000

 Dipole moment (field-independent basis, Debye):
    X=             -1.1438    Y=              1.0711    Z=              0.5900  Tot=              1.6744
 Quadrupole moment (field-independent basis, Debye-Ang):
   XX=            -13.7334   YY=            -12.5239   ZZ=            -13.1714
   XY=              1.8383   XZ=              0.5223   YZ=              0.4062

 Normal termination of Gaussian 09 at Wed Aug 26 18:53:51 2020.
