 Gaussian 09, Revision D.01,
 Gaussian 09:  ES64L-G09RevD.01 24-Apr-2013

 --------------------
 #p B2PLYPD3/Def2QZVP
 --------------------

 --------
 methanol
 --------
 Symbolic Z-matrix:
 Charge =  0 Multiplicity = 1

                         Standard orientation:
 ---------------------------------------------------------------------
 Center     Atomic      Atomic             Coordinates (Angstroms)
 Number     Number       Type             X           Y           Z
 ---------------------------------------------------------------------
      1          6           0       -0.657916   -0.032759   -0.004167
      2          8           0        0.747970    0.121887   -0.010590
      3          1           0       -0.994626   -0.470908    0.934669
      4          1           0       -1.035819   -0.608237   -0.850058
      5          1           0       -1.152402    1.001192   -0.029261
      6          1           0        1.146587   -0.700586    0.054370
 ---------------------------------------------------------------------

 SCF Done:  E(RB2PLYPD3) =  -115.549221258     A.U. after   10 cycles
 E2(B2PLYPD3) =    -0.1466124398D+00 E(B2PLYPD3) =    -0.11569583369762D+03

 The electronic state is 1-A.
 Alpha  occ. eigenvalues --  -19.72265 -10.66238  -1.17318  -0.78737  -0.59438
 Alpha  occ. eigenvalues --   -0.52211  -0.49609  -0.40454  -0.35656
 Alpha virt. eigenvalues --    0.05156   0.08285   0.12268   0.12402   0.14673
 Alpha virt. eigenvalues --    0.17473   0.18197   0.29033   0.33323   0.33587
 Alpha virt. eigenvalues --    0.35752   0.38035   0.40008   0.41021   0.43833

 Mulliken charges:
               1
     1  C    0.066519
     2  O   -0.439115
     3  H    0.049906
     4  H    0.052463
     5  H    0.062803
     6  H    0.207424
 Sum of Mulliken charges =   0.00000

 Dipole moment (field-independent basis, Debye):
    X=             -0.8308    Y=             -1.4992    Z=              0.1283  Tot=              1.7188
 Quadrupole moment (field-independent basis, Debye-Ang):
   XX=            -12.9098   YY=            -12.4551   ZZ=            -13.7418
   XY=             -2.2286   XZ=              0.1852   YZ=             -0.0245

 Normal termination of Gaussian 09 at Thu Aug 27 00:11:40 2020.
