 Gaussian 09, Revision D.01,
 Gaussian 09:  ES64L-G09RevD.01 24-Apr-2013

 --------------------
 #p B2PLYPD3/Def2QZVP
 --------------------

 --------
 methanol
 --------
 Symbolic Z-matrix:
 Charge =  0 Multiplicity = 1

                         Standard orientation:
 ---------------------------------------------------------------------
 Center     Atomic      Atomic             Coordinates (Angstroms)
 Number     Number       Type             X           Y           Z
 ---------------------------------------------------------------------
      1          6           0       -0.670326   -0.044745    0.008013
      2          8           0        0.729811    0.110853   -0.022337
      3          1           0       -1.058361   -0.236479    0.957583
      4          1           0       -0.916902   -0.836726   -0.740275
      5          1           0       -1.082444    1.036831   -0.260345
      6          1           0        1.241176   -0.581979    0.173658
 ---------------------------------------------------------------------

 SCF Done:  E(RB2PLYPD3) =  -115.535602948     A.U. after   11 cycles
 E2(B2PLYPD3) =    -0.1459763310D+00 E(B2PLYPD3) =    -0.11568157927883D+03

 The electronic state is 1-A.
 Alpha  occ. eigenvalues --  -19.71187 -10.66577  -1.17503  -0.79494  -0.60040
 Alpha  occ. eigenvalues --   -0.52940  -0.48848  -0.39238  -0.35462
 Alpha virt. eigenvalues --    0.05282   0.08444   0.11922   0.12388   0.14777
 Alpha virt. eigenvalues --    0.16759   0.18143   0.29104   0.32542   0.34071
 Alpha virt. eigenvalues --    0.36173   0.38072   0.39468   0.42177   0.42965

 Mulliken charges:
               1
     1  C    0.065748
     2  O   -0.432162
     3  H    0.060436
     4  H    0.052891
     5  H    0.064042
     6  H    0.189044
 Sum of Mulliken charges =   0.00000

 Dipole moment (field-independent basis, Debye):
    X=             -0.6354    Y=             -1.3741    Z=              0.4574  Tot=              1.5815
 Quadrupole moment (field-independent basis, Debye-Ang):
   XX=            -12.5775   YY=            -12.6222   ZZ=            -13.6533
   XY=             -2.1295   XZ=              0.3385   YZ=             -0.1333

 Normal termination of Gaussian 09 at Wed Aug 26 23:46:44 2020.
