 Gaussian 09, Revision D.01,
 Gaussian 09:  ES64L-G09RevD.01 24-Apr-2013

 --------------------
 #p B2PLYPD3/Def2QZVP
 --------------------

 --------
 methanol
 --------
 Symbolic Z-matrix:
 Charge =  0 Multiplicity = 1

                         Standard orientation:
 ---------------------------------------------------------------------
 Center     Atomic      Atomic             Coordinates (Angstroms)
 Number     Number       Type             X           Y           Z
 ---------------------------------------------------------------------
      1          6           0        0.659627    0.010166    0.007899
      2          8           0       -0.733055   -0.039980   -0.060319
      3          1           0        0.978990   -0.598582    0.959217
      4          1           0        0.847043    1.209669    0.017005
      5          1           0        1.064791   -0.517338   -0.913135
      6          1           0       -0.984143    0.165091    0.372072
 ---------------------------------------------------------------------

 SCF Done:  E(RB2PLYPD3) =  -114.992712999     A.U. after   11 cycles
 E2(B2PLYPD3) =    -0.1424733331D+00 E(B2PLYPD3) =    -0.11513518633187D+03

 The electronic state is 1-A.
 Alpha  occ. eigenvalues --  -19.68094 -10.69015  -1.32641  -0.84149  -0.61945
 Alpha  occ. eigenvalues --   -0.52853  -0.51542  -0.41008  -0.36013
 Alpha virt. eigenvalues --    0.05169   0.09942   0.11245   0.11998   0.13684
 Alpha virt. eigenvalues --    0.16818   0.17265   0.27613   0.31803   0.32992
 Alpha virt. eigenvalues --    0.36045   0.37767   0.38719   0.41690   0.44130

 Mulliken charges:
               1
     1  C    0.054462
     2  O   -0.084213
     3  H    0.045648
     4  H    0.046220
     5  H    0.087322
     6  H   -0.149438
 Sum of Mulliken charges =   0.00000

 Dipole moment (field-independent basis, Debye):
    X=              0.9775    Y=              0.3897    Z=              0.9266  Tot=              1.4021
 Quadrupole moment (field-independent basis, Debye-Ang):
   XX=            -13.6060   YY=            -12.9662   ZZ=            -12.6513
   XY=             -1.0456   XZ=             -1.6236   YZ=              0.2773

 Normal termination of Gaussian 09 at Wed Aug 26 20:59:32 2020.
