 Gaussian 09, Revision D.01,
 Gaussian 09:  ES64L-G09RevD.01 24-Apr-2013

 --------------------
 #p B2PLYPD3/Def2QZVP
 --------------------

 --------
 methanol
 --------
 Symbolic Z-matrix:
 Charge =  0 Multiplicity = 1

                         Standard orientation:
 ---------------------------------------------------------------------
 Center     Atomic      Atomic             Coordinates (Angstroms)
 Number     Number       Type             X           Y           Z
 ---------------------------------------------------------------------
      1          6           0        0.679449   -0.006724   -0.018406
      2          8           0       -0.752567    0.082578   -0.002801
      3          1           0        1.052590   -0.654951   -0.861801
      4          1           0        1.007585   -0.436299    1.063123
      5          1           0        0.994367    1.034022   -0.086437
      6          1           0       -1.110703   -0.563050    0.017959
 ---------------------------------------------------------------------

 SCF Done:  E(RB2PLYPD3) =  -115.464706891     A.U. after   11 cycles
 E2(B2PLYPD3) =    -0.1444482184D+00 E(B2PLYPD3) =    -0.11560915510956D+03

 The electronic state is 1-A.
 Alpha  occ. eigenvalues --  -19.69888 -10.67916  -1.21908  -0.80924  -0.60624
 Alpha  occ. eigenvalues --   -0.51119  -0.50485  -0.41283  -0.35562
 Alpha virt. eigenvalues --    0.05386   0.09055   0.11628   0.12231   0.14395
 Alpha virt. eigenvalues --    0.16647   0.17884   0.28892   0.31846   0.33039
 Alpha virt. eigenvalues --    0.36324   0.38992   0.39950   0.40544   0.42618

 Mulliken charges:
               1
     1  C    0.055749
     2  O   -0.295082
     3  H    0.057570
     4  H    0.041578
     5  H    0.088002
     6  H    0.052182
 Sum of Mulliken charges =   0.00000

 Dipole moment (field-independent basis, Debye):
    X=              0.9287    Y=             -1.2094    Z=             -0.0544  Tot=              1.5258
 Quadrupole moment (field-independent basis, Debye-Ang):
   XX=            -13.1803   YY=            -12.4166   ZZ=            -13.5536
   XY=              1.9888   XZ=             -0.2418   YZ=              0.0828

 Normal termination of Gaussian 09 at Wed Aug 26 14:43:46 2020.
