 Gaussian 09, Revision D.01,
 Gaussian 09:  ES64L-G09RevD.01 24-Apr-2013

 --------------------
 #p B2PLYPD3/Def2QZVP
 --------------------

 --------
 methanol
 --------
 Symbolic Z-matrix:
 Charge =  0 Multiplicity = 1

                         Standard orientation:
 ---------------------------------------------------------------------
 Center     Atomic      Atomic             Coordinates (Angstroms)
 Number     Number       Type             X           Y           Z
 ---------------------------------------------------------------------
      1          6           0        0.665339   -0.028388   -0.001649
      2          8           0       -0.745617    0.086881    0.004745
      3          1           0        1.029497   -0.562394   -0.904230
      4          1           0        1.074878   -0.503392    0.929404
      5          1           0        0.982428    1.123070   -0.044129
      6          1           0       -1.113901   -0.582006   -0.009110
 ---------------------------------------------------------------------

 SCF Done:  E(RB2PLYPD3) =  -115.487754323     A.U. after   10 cycles
 E2(B2PLYPD3) =    -0.1446390675D+00 E(B2PLYPD3) =    -0.11563239339013D+03

 The electronic state is 1-A.
 Alpha  occ. eigenvalues --  -19.70456 -10.67600  -1.21652  -0.80346  -0.61407
 Alpha  occ. eigenvalues --   -0.52002  -0.49087  -0.40574  -0.36106
 Alpha virt. eigenvalues --    0.05363   0.08997   0.11629   0.12191   0.14910
 Alpha virt. eigenvalues --    0.16639   0.18013   0.28924   0.33020   0.33382
 Alpha virt. eigenvalues --    0.36256   0.39014   0.40224   0.40565   0.42058

 Mulliken charges:
               1
     1  C    0.047965
     2  O   -0.307476
     3  H    0.056404
     4  H    0.057099
     5  H    0.067986
     6  H    0.078021
 Sum of Mulliken charges =   0.00000

 Dipole moment (field-independent basis, Debye):
    X=              0.8227    Y=             -1.3596    Z=             -0.0420  Tot=              1.5897
 Quadrupole moment (field-independent basis, Debye-Ang):
   XX=            -13.1190   YY=            -12.4424   ZZ=            -13.6050
   XY=              1.7962   XZ=              0.0601   YZ=              0.0222

 Normal termination of Gaussian 09 at Wed Aug 26 11:10:22 2020.
