 Gaussian 09, Revision D.01,
 Gaussian 09:  ES64L-G09RevD.01 24-Apr-2013

 --------------------
 #p B2PLYPD3/Def2QZVP
 --------------------

 --------
 methanol
 --------
 Symbolic Z-matrix:
 Charge =  0 Multiplicity = 1

                         Standard orientation:
 ---------------------------------------------------------------------
 Center     Atomic      Atomic             Coordinates (Angstroms)
 Number     Number       Type             X           Y           Z
 ---------------------------------------------------------------------
      1          6           0        0.673721   -0.026329    0.017495
      2          8           0       -0.739922    0.136207   -0.008455
      3          1           0        0.917243   -0.654916   -0.861036
      4          1           0        1.041737   -0.428904    0.862011
      5          1           0        1.083428    0.950516   -0.121673
      6          1           0       -1.165362   -0.798378    0.083365
 ---------------------------------------------------------------------

 SCF Done:  E(RB2PLYPD3) =  -115.540737366     A.U. after   10 cycles
 E2(B2PLYPD3) =    -0.1482563034D+00 E(B2PLYPD3) =    -0.11568899366932D+03

 The electronic state is 1-A.
 Alpha  occ. eigenvalues --  -19.72774 -10.64481  -1.14598  -0.78895  -0.57926
 Alpha  occ. eigenvalues --   -0.52502  -0.49599  -0.40882  -0.35072
 Alpha virt. eigenvalues --    0.04468   0.08142   0.12420   0.12538   0.14764
 Alpha virt. eigenvalues --    0.17280   0.18076   0.29223   0.32464   0.32739
 Alpha virt. eigenvalues --    0.34207   0.39054   0.39568   0.42117   0.44940

 Mulliken charges:
               1
     1  C    0.078513
     2  O   -0.481081
     3  H    0.042139
     4  H    0.052369
     5  H    0.068406
     6  H    0.239653
 Sum of Mulliken charges =   0.00000

 Dipole moment (field-independent basis, Debye):
    X=              0.8903    Y=             -1.5575    Z=              0.2235  Tot=              1.8078
 Quadrupole moment (field-independent basis, Debye-Ang):
   XX=            -12.9997   YY=            -12.1229   ZZ=            -13.7206
   XY=              2.3785   XZ=             -0.0116   YZ=             -0.1984

 Normal termination of Gaussian 09 at Wed Aug 26 11:54:39 2020.
