 Gaussian 09, Revision D.01,
 Gaussian 09:  ES64L-G09RevD.01 24-Apr-2013

 --------------------
 #p B2PLYPD3/Def2QZVP
 --------------------

 --------
 methanol
 --------
 Symbolic Z-matrix:
 Charge =  0 Multiplicity = 1

                         Standard orientation:
 ---------------------------------------------------------------------
 Center     Atomic      Atomic             Coordinates (Angstroms)
 Number     Number       Type             X           Y           Z
 ---------------------------------------------------------------------
      1          6           0       -0.665332   -0.013901    0.007458
      2          8           0        0.757599    0.103228   -0.013257
      3          1           0       -1.032807   -0.442282    0.980413
      4          1           0       -0.990150   -0.659496   -0.912955
      5          1           0       -1.141249    0.976716   -0.100809
      6          1           0        1.095406   -0.617351    0.094661
 ---------------------------------------------------------------------

 SCF Done:  E(RB2PLYPD3) =  -115.516002390     A.U. after   10 cycles
 E2(B2PLYPD3) =    -0.1452163887D+00 E(B2PLYPD3) =    -0.11566121877894D+03

 The electronic state is 1-A.
 Alpha  occ. eigenvalues --  -19.71084 -10.67429  -1.20211  -0.79667  -0.60238
 Alpha  occ. eigenvalues --   -0.51451  -0.50567  -0.41008  -0.35740
 Alpha virt. eigenvalues --    0.05370   0.08755   0.11815   0.12451   0.14276
 Alpha virt. eigenvalues --    0.17480   0.17957   0.28783   0.32359   0.33169
 Alpha virt. eigenvalues --    0.36482   0.39079   0.39550   0.40026   0.43544

 Mulliken charges:
               1
     1  C    0.061244
     2  O   -0.359631
     3  H    0.051233
     4  H    0.044723
     5  H    0.077458
     6  H    0.124974
 Sum of Mulliken charges =   0.00000

 Dipole moment (field-independent basis, Debye):
    X=             -0.9563    Y=             -1.2832    Z=              0.2421  Tot=              1.6185
 Quadrupole moment (field-independent basis, Debye-Ang):
   XX=            -13.1061   YY=            -12.5764   ZZ=            -13.5771
   XY=             -2.2001   XZ=              0.2038   YZ=             -0.1672

 Normal termination of Gaussian 09 at Wed Aug 26 14:23:33 2020.
