 Gaussian 09, Revision D.01,
 Gaussian 09:  ES64L-G09RevD.01 24-Apr-2013

 --------------------
 #p B2PLYPD3/Def2QZVP
 --------------------

 --------
 methanol
 --------
 Symbolic Z-matrix:
 Charge =  0 Multiplicity = 1

                         Standard orientation:
 ---------------------------------------------------------------------
 Center     Atomic      Atomic             Coordinates (Angstroms)
 Number     Number       Type             X           Y           Z
 ---------------------------------------------------------------------
      1          6           0        0.663116    0.030445   -0.006103
      2          8           0       -0.735122   -0.149841    0.008338
      3          1           0        0.997963    0.552863    0.846644
      4          1           0        1.003199    0.520734   -0.814728
      5          1           0        1.084560   -0.945576   -0.012186
      6          1           0       -1.183440    0.888041   -0.049812
 ---------------------------------------------------------------------

 SCF Done:  E(RB2PLYPD3) =  -115.523765077     A.U. after   11 cycles
 E2(B2PLYPD3) =    -0.1498585381D+00 E(B2PLYPD3) =    -0.11567362361495D+03

 The electronic state is 1-A.
 Alpha  occ. eigenvalues --  -19.73674 -10.63557  -1.13778  -0.78775  -0.57108
 Alpha  occ. eigenvalues --   -0.52616  -0.49384  -0.40703  -0.35090
 Alpha virt. eigenvalues --    0.03384   0.07867   0.12535   0.12763   0.15047
 Alpha virt. eigenvalues --    0.17367   0.18137   0.28345   0.29798   0.33419
 Alpha virt. eigenvalues --    0.34616   0.39166   0.39703   0.42418   0.44693

 Mulliken charges:
               1
     1  C    0.085620
     2  O   -0.488349
     3  H    0.044111
     4  H    0.044388
     5  H    0.064009
     6  H    0.250222
 Sum of Mulliken charges =   0.00000

 Dipole moment (field-independent basis, Debye):
    X=              0.8742    Y=              1.6676    Z=             -0.1390  Tot=              1.8880
 Quadrupole moment (field-independent basis, Debye-Ang):
   XX=            -12.9522   YY=            -11.8987   ZZ=            -13.8691
   XY=             -2.3743   XZ=              0.0508   YZ=             -0.0891

 Normal termination of Gaussian 09 at Wed Aug 26 23:59:04 2020.
