 Gaussian 09, Revision D.01,
 Gaussian 09:  ES64L-G09RevD.01 24-Apr-2013

 --------------------
 #p B2PLYPD3/Def2QZVP
 --------------------

 --------
 methanol
 --------
 Symbolic Z-matrix:
 Charge =  0 Multiplicity = 1

                         Standard orientation:
 ---------------------------------------------------------------------
 Center     Atomic      Atomic             Coordinates (Angstroms)
 Number     Number       Type             X           Y           Z
 ---------------------------------------------------------------------
      1          6           0       -0.657642    0.025014    0.004769
      2          8           0        0.741327   -0.146616   -0.007119
      3          1           0       -1.030907    0.570650   -0.832060
      4          1           0       -1.027874    0.500203    0.834785
      5          1           0       -1.095165   -0.939251   -0.013854
      6          1           0        1.169179    0.891240    0.039467
 ---------------------------------------------------------------------

 SCF Done:  E(RB2PLYPD3) =  -115.527519132     A.U. after   11 cycles
 E2(B2PLYPD3) =    -0.1498747629D+00 E(B2PLYPD3) =    -0.11567739389454D+03

 The electronic state is 1-A.
 Alpha  occ. eigenvalues --  -19.73893 -10.63907  -1.14005  -0.78689  -0.57141
 Alpha  occ. eigenvalues --   -0.52048  -0.49647  -0.40840  -0.35147
 Alpha virt. eigenvalues --    0.03449   0.07792   0.12571   0.12762   0.15066
 Alpha virt. eigenvalues --    0.17482   0.18253   0.28412   0.29842   0.33523
 Alpha virt. eigenvalues --    0.34594   0.39111   0.39685   0.41976   0.44288

 Mulliken charges:
               1
     1  C    0.082036
     2  O   -0.483320
     3  H    0.041513
     4  H    0.044147
     5  H    0.063629
     6  H    0.251995
 Sum of Mulliken charges =   0.00000

 Dipole moment (field-independent basis, Debye):
    X=             -0.8765    Y=              1.6534    Z=              0.1136  Tot=              1.8749
 Quadrupole moment (field-independent basis, Debye-Ang):
   XX=            -12.9454   YY=            -11.9268   ZZ=            -13.9433
   XY=              2.3679   XZ=              0.0476   YZ=              0.0731

 Normal termination of Gaussian 09 at Thu Aug 27 00:13:51 2020.
