 Gaussian 09, Revision D.01,
 Gaussian 09:  ES64L-G09RevD.01 24-Apr-2013

 --------------------
 #p B2PLYPD3/Def2QZVP
 --------------------

 --------
 methanol
 --------
 Symbolic Z-matrix:
 Charge =  0 Multiplicity = 1

                         Standard orientation:
 ---------------------------------------------------------------------
 Center     Atomic      Atomic             Coordinates (Angstroms)
 Number     Number       Type             X           Y           Z
 ---------------------------------------------------------------------
      1          6           0       -0.662322   -0.024983    0.012949
      2          8           0        0.725062   -0.041446   -0.037965
      3          1           0       -0.941983    1.240386   -0.272605
      4          1           0       -0.916827   -0.268658    1.096488
      5          1           0       -1.060848   -0.742423   -0.777032
      6          1           0        1.093097    0.252162    0.179181
 ---------------------------------------------------------------------

 SCF Done:  E(RB2PLYPD3) =  -114.863067577     A.U. after   12 cycles
 E2(B2PLYPD3) =    -0.1429794297D+00 E(B2PLYPD3) =    -0.11500604700645D+03

 The electronic state is 1-A.
 Alpha  occ. eigenvalues --  -19.67851 -10.70519  -1.32263  -0.86999  -0.61953
 Alpha  occ. eigenvalues --   -0.53264  -0.51095  -0.39133  -0.35256
 Alpha virt. eigenvalues --    0.04802   0.10063   0.10684   0.11961   0.13725
 Alpha virt. eigenvalues --    0.16622   0.16907   0.28195   0.30302   0.32353
 Alpha virt. eigenvalues --    0.35129   0.37143   0.39161   0.41554   0.43117

 Mulliken charges:
               1
     1  C    0.060085
     2  O   -0.056568
     3  H    0.018305
     4  H    0.062581
     5  H    0.102558
     6  H   -0.186960
 Sum of Mulliken charges =   0.00000

 Dipole moment (field-independent basis, Debye):
    X=             -0.7544    Y=              0.4916    Z=              0.6044  Tot=              1.0845
 Quadrupole moment (field-independent basis, Debye-Ang):
   XX=            -13.1393   YY=            -13.0526   ZZ=            -12.9196
   XY=              1.6500   XZ=              1.0219   YZ=              0.3848

 Normal termination of Gaussian 09 at Wed Aug 26 22:58:22 2020.
