 Gaussian 09, Revision D.01,
 Gaussian 09:  ES64L-G09RevD.01 24-Apr-2013

 --------------------
 #p B2PLYPD3/Def2QZVP
 --------------------

 --------
 methanol
 --------
 Symbolic Z-matrix:
 Charge =  0 Multiplicity = 1

                         Standard orientation:
 ---------------------------------------------------------------------
 Center     Atomic      Atomic             Coordinates (Angstroms)
 Number     Number       Type             X           Y           Z
 ---------------------------------------------------------------------
      1          6           0       -0.665998   -0.021232    0.014112
      2          8           0        0.747009    0.099466   -0.014558
      3          1           0       -0.973406   -0.481037    0.956818
      4          1           0       -1.066165   -0.592001   -0.921072
      5          1           0       -1.053742    1.028716   -0.044830
      6          1           0        1.113233   -0.624016    0.040882
 ---------------------------------------------------------------------

 SCF Done:  E(RB2PLYPD3) =  -115.521808049     A.U. after   10 cycles
 E2(B2PLYPD3) =    -0.1451409712D+00 E(B2PLYPD3) =    -0.11566694902013D+03

 The electronic state is 1-A.
 Alpha  occ. eigenvalues --  -19.70971 -10.67046  -1.19940  -0.79770  -0.60327
 Alpha  occ. eigenvalues --   -0.51930  -0.49982  -0.40872  -0.35735
 Alpha virt. eigenvalues --    0.05396   0.08817   0.11992   0.12243   0.14547
 Alpha virt. eigenvalues --    0.17008   0.18042   0.28883   0.33004   0.33190
 Alpha virt. eigenvalues --    0.37027   0.38979   0.39744   0.40509   0.43174

 Mulliken charges:
               1
     1  C    0.060009
     2  O   -0.367769
     3  H    0.056471
     4  H    0.045478
     5  H    0.073933
     6  H    0.131878
 Sum of Mulliken charges =   0.00000

 Dipole moment (field-independent basis, Debye):
    X=             -0.8665    Y=             -1.3265    Z=              0.1753  Tot=              1.5941
 Quadrupole moment (field-independent basis, Debye-Ang):
   XX=            -13.1283   YY=            -12.4838   ZZ=            -13.5602
   XY=             -2.0910   XZ=              0.1495   YZ=             -0.1255

 Normal termination of Gaussian 09 at Thu Aug 27 00:15:08 2020.
