 Gaussian 09, Revision D.01,
 Gaussian 09:  ES64L-G09RevD.01 24-Apr-2013

 --------------------
 #p B2PLYPD3/Def2QZVP
 --------------------

 --------
 methanol
 --------
 Symbolic Z-matrix:
 Charge =  0 Multiplicity = 1

                         Standard orientation:
 ---------------------------------------------------------------------
 Center     Atomic      Atomic             Coordinates (Angstroms)
 Number     Number       Type             X           Y           Z
 ---------------------------------------------------------------------
      1          6           0        0.659713   -0.012934    0.010264
      2          8           0       -0.753490    0.106771   -0.004852
      3          1           0        1.056960   -0.612847   -0.873736
      4          1           0        1.009566   -0.514177    0.910789
      5          1           0        1.089289    1.030729   -0.060148
      6          1           0       -1.086174   -0.680272    0.000326
 ---------------------------------------------------------------------

 SCF Done:  E(RB2PLYPD3) =  -115.538545596     A.U. after   10 cycles
 E2(B2PLYPD3) =    -0.1458048472D+00 E(B2PLYPD3) =    -0.11568435044339D+03

 The electronic state is 1-A.
 Alpha  occ. eigenvalues --  -19.71745 -10.66743  -1.19017  -0.79101  -0.60329
 Alpha  occ. eigenvalues --   -0.51509  -0.49838  -0.41506  -0.35600
 Alpha virt. eigenvalues --    0.05264   0.08633   0.12093   0.12266   0.14906
 Alpha virt. eigenvalues --    0.17296   0.17834   0.29057   0.32991   0.33368
 Alpha virt. eigenvalues --    0.37296   0.38358   0.39381   0.40571   0.43034

 Mulliken charges:
               1
     1  C    0.066334
     2  O   -0.399056
     3  H    0.040480
     4  H    0.051953
     5  H    0.071622
     6  H    0.168666
 Sum of Mulliken charges =   0.00000

 Dipole moment (field-independent basis, Debye):
    X=              0.9183    Y=             -1.4247    Z=              0.0538  Tot=              1.6958
 Quadrupole moment (field-independent basis, Debye-Ang):
   XX=            -13.1986   YY=            -12.2611   ZZ=            -13.8030
   XY=              2.0799   XZ=             -0.0095   YZ=             -0.0710

 Normal termination of Gaussian 09 at Thu Aug 27 00:12:57 2020.
