 Gaussian 09, Revision D.01,
 Gaussian 09:  ES64L-G09RevD.01 24-Apr-2013

 --------------------
 #p B2PLYPD3/Def2QZVP
 --------------------

 --------
 methanol
 --------
 Symbolic Z-matrix:
 Charge =  0 Multiplicity = 1

                         Standard orientation:
 ---------------------------------------------------------------------
 Center     Atomic      Atomic             Coordinates (Angstroms)
 Number     Number       Type             X           Y           Z
 ---------------------------------------------------------------------
      1          6           0        0.667126   -0.026736    0.001454
      2          8           0       -0.760984    0.108749   -0.003993
      3          1           0        1.034550   -0.647572   -0.846234
      4          1           0        1.107491   -0.470974    0.898752
      5          1           0        1.108826    1.071571   -0.080967
      6          1           0       -1.165747   -0.662600    0.051674
 ---------------------------------------------------------------------

 SCF Done:  E(RB2PLYPD3) =  -115.538144827     A.U. after   10 cycles
 E2(B2PLYPD3) =    -0.1465022687D+00 E(B2PLYPD3) =    -0.11568464709575D+03

 The electronic state is 1-A.
 Alpha  occ. eigenvalues --  -19.72010 -10.67269  -1.17792  -0.78938  -0.60186
 Alpha  occ. eigenvalues --   -0.51158  -0.48826  -0.40823  -0.35800
 Alpha virt. eigenvalues --    0.05233   0.08265   0.11799   0.12428   0.14968
 Alpha virt. eigenvalues --    0.17136   0.18069   0.29039   0.32589   0.33606
 Alpha virt. eigenvalues --    0.36009   0.37891   0.39566   0.40304   0.42017

 Mulliken charges:
               1
     1  C    0.062613
     2  O   -0.417586
     3  H    0.051546
     4  H    0.055620
     5  H    0.065416
     6  H    0.182391
 Sum of Mulliken charges =   0.00000

 Dipole moment (field-independent basis, Debye):
    X=              0.8536    Y=             -1.4772    Z=              0.1258  Tot=              1.7107
 Quadrupole moment (field-independent basis, Debye-Ang):
   XX=            -12.8036   YY=            -12.4087   ZZ=            -13.9141
   XY=              2.0711   XZ=             -0.0561   YZ=             -0.0613

 Normal termination of Gaussian 09 at Wed Aug 26 14:09:22 2020.
