 Gaussian 09, Revision D.01,
 Gaussian 09:  ES64L-G09RevD.01 24-Apr-2013

 --------------------
 #p B2PLYPD3/Def2QZVP
 --------------------

 --------
 methanol
 --------
 Symbolic Z-matrix:
 Charge =  0 Multiplicity = 1

                         Standard orientation:
 ---------------------------------------------------------------------
 Center     Atomic      Atomic             Coordinates (Angstroms)
 Number     Number       Type             X           Y           Z
 ---------------------------------------------------------------------
      1          6           0       -0.691457   -0.045692    0.026480
      2          8           0        0.763524    0.045644   -0.027681
      3          1           0       -0.960834    0.033874    1.092961
      4          1           0       -1.078516   -1.022613   -0.590342
      5          1           0       -1.105763    1.136034   -0.529865
      6          1           0        1.185662   -0.238293    0.089820
 ---------------------------------------------------------------------

 SCF Done:  E(RB2PLYPD3) =  -114.859693839     A.U. after   12 cycles
 E2(B2PLYPD3) =    -0.1445385460D+00 E(B2PLYPD3) =    -0.11500423238540D+03

 The electronic state is 1-A.
 Alpha  occ. eigenvalues --  -19.67348 -10.72201  -1.30188  -0.85000  -0.62023
 Alpha  occ. eigenvalues --   -0.52243  -0.47796  -0.37500  -0.36854
 Alpha virt. eigenvalues --    0.04226   0.09727   0.10067   0.11465   0.13520
 Alpha virt. eigenvalues --    0.16291   0.17858   0.28314   0.29573   0.30589
 Alpha virt. eigenvalues --    0.32721   0.35213   0.39718   0.41258   0.41843

 Mulliken charges:
               1
     1  C    0.057271
     2  O   -0.118090
     3  H    0.086195
     4  H    0.074460
     5  H    0.066640
     6  H   -0.166475
 Sum of Mulliken charges =   0.00000

 Dipole moment (field-independent basis, Debye):
    X=             -1.0040    Y=             -0.9098    Z=              0.4941  Tot=              1.4422
 Quadrupole moment (field-independent basis, Debye-Ang):
   XX=            -12.5917   YY=            -12.8217   ZZ=            -13.2803
   XY=             -1.1912   XZ=              0.4686   YZ=              0.0998

 Normal termination of Gaussian 09 at Wed Aug 26 22:48:57 2020.
