 Gaussian 09, Revision D.01,
 Gaussian 09:  ES64L-G09RevD.01 24-Apr-2013

 --------------------
 #p B2PLYPD3/Def2QZVP
 --------------------

 --------
 methanol
 --------
 Symbolic Z-matrix:
 Charge =  0 Multiplicity = 1

                         Standard orientation:
 ---------------------------------------------------------------------
 Center     Atomic      Atomic             Coordinates (Angstroms)
 Number     Number       Type             X           Y           Z
 ---------------------------------------------------------------------
      1          6           0        0.660931    0.015454   -0.000158
      2          8           0       -0.750746   -0.131825   -0.006178
      3          1           0        1.039143    0.478789    0.884245
      4          1           0        0.991836    0.615870   -0.846233
      5          1           0        1.116118   -0.948497   -0.046038
      6          1           0       -1.106713    0.815711    0.058397
 ---------------------------------------------------------------------

 SCF Done:  E(RB2PLYPD3) =  -115.548051271     A.U. after   10 cycles
 E2(B2PLYPD3) =    -0.1481578284D+00 E(B2PLYPD3) =    -0.11569620909890D+03

 The electronic state is 1-A.
 Alpha  occ. eigenvalues --  -19.73133 -10.64981  -1.15345  -0.78612  -0.58056
 Alpha  occ. eigenvalues --   -0.51857  -0.49937  -0.41379  -0.35257
 Alpha virt. eigenvalues --    0.04540   0.08095   0.12439   0.12557   0.14849
 Alpha virt. eigenvalues --    0.17622   0.18068   0.29188   0.32405   0.33278
 Alpha virt. eigenvalues --    0.34184   0.39246   0.40003   0.41194   0.44191

 Mulliken charges:
               1
     1  C    0.076286
     2  O   -0.469596
     3  H    0.044031
     4  H    0.042509
     5  H    0.068596
     6  H    0.238174
 Sum of Mulliken charges =   0.00000

 Dipole moment (field-independent basis, Debye):
    X=              0.9525    Y=              1.5610    Z=              0.1288  Tot=              1.8332
 Quadrupole moment (field-independent basis, Debye-Ang):
   XX=            -13.1594   YY=            -12.0534   ZZ=            -13.8585
   XY=             -2.2975   XZ=             -0.0742   YZ=              0.0757

 Normal termination of Gaussian 09 at Wed Aug 26 15:09:27 2020.
