 Gaussian 09, Revision D.01,
 Gaussian 09:  ES64L-G09RevD.01 24-Apr-2013

 --------------------
 #p B2PLYPD3/Def2QZVP
 --------------------

 --------
 methanol
 --------
 Symbolic Z-matrix:
 Charge =  0 Multiplicity = 1

                         Standard orientation:
 ---------------------------------------------------------------------
 Center     Atomic      Atomic             Coordinates (Angstroms)
 Number     Number       Type             X           Y           Z
 ---------------------------------------------------------------------
      1          6           0       -0.666448   -0.025837    0.008263
      2          8           0        0.750614    0.121161   -0.010535
      3          1           0       -0.987848   -0.496554    0.888434
      4          1           0       -1.024697   -0.590059   -0.871508
      5          1           0       -1.099950    1.009559   -0.027759
      6          1           0        1.106272   -0.737217    0.045535
 ---------------------------------------------------------------------

 SCF Done:  E(RB2PLYPD3) =  -115.550464786     A.U. after   10 cycles
 E2(B2PLYPD3) =    -0.1468490214D+00 E(B2PLYPD3) =    -0.11569731380725D+03

 The electronic state is 1-A.
 Alpha  occ. eigenvalues --  -19.72263 -10.65710  -1.16744  -0.78829  -0.59116
 Alpha  occ. eigenvalues --   -0.52246  -0.49389  -0.41256  -0.35582
 Alpha virt. eigenvalues --    0.05068   0.08409   0.12246   0.12358   0.14811
 Alpha virt. eigenvalues --    0.17363   0.17968   0.29120   0.33081   0.33327
 Alpha virt. eigenvalues --    0.36089   0.38133   0.39931   0.41315   0.44250

 Mulliken charges:
               1
     1  C    0.072047
     2  O   -0.448775
     3  H    0.052782
     4  H    0.047253
     5  H    0.066348
     6  H    0.210346
 Sum of Mulliken charges =   0.00000

 Dipole moment (field-independent basis, Debye):
    X=             -0.9426    Y=             -1.5226    Z=              0.1496  Tot=              1.7970
 Quadrupole moment (field-independent basis, Debye-Ang):
   XX=            -13.1775   YY=            -12.2031   ZZ=            -13.7246
   XY=             -2.1645   XZ=              0.0989   YZ=             -0.0992

 Normal termination of Gaussian 09 at Wed Aug 26 16:11:32 2020.
