 Gaussian 09, Revision D.01,
 Gaussian 09:  ES64L-G09RevD.01 24-Apr-2013

 --------------------
 #p B2PLYPD3/Def2QZVP
 --------------------

 --------
 methanol
 --------
 Symbolic Z-matrix:
 Charge =  0 Multiplicity = 1

                         Standard orientation:
 ---------------------------------------------------------------------
 Center     Atomic      Atomic             Coordinates (Angstroms)
 Number     Number       Type             X           Y           Z
 ---------------------------------------------------------------------
      1          6           0       -0.666951   -0.026814   -0.011630
      2          8           0        0.755404    0.100411    0.000385
      3          1           0       -1.038796   -0.547765    0.935350
      4          1           0       -0.942173   -0.596802   -0.912143
      5          1           0       -1.175754    1.049966   -0.006493
      6          1           0        1.115196   -0.547807    0.049981
 ---------------------------------------------------------------------

 SCF Done:  E(RB2PLYPD3) =  -115.470029361     A.U. after   10 cycles
 E2(B2PLYPD3) =    -0.1444226574D+00 E(B2PLYPD3) =    -0.11561445201889D+03

 The electronic state is 1-A.
 Alpha  occ. eigenvalues --  -19.70158 -10.67961  -1.22118  -0.80468  -0.61201
 Alpha  occ. eigenvalues --   -0.52164  -0.49584  -0.40525  -0.36057
 Alpha virt. eigenvalues --    0.05372   0.08982   0.11910   0.12039   0.14394
 Alpha virt. eigenvalues --    0.17298   0.17696   0.28847   0.32286   0.33096
 Alpha virt. eigenvalues --    0.35649   0.38670   0.39409   0.40674   0.43189

 Mulliken charges:
               1
     1  C    0.062795
     2  O   -0.301610
     3  H    0.047953
     4  H    0.058820
     5  H    0.072052
     6  H    0.059990
 Sum of Mulliken charges =   0.00000

 Dipole moment (field-independent basis, Debye):
    X=             -0.9412    Y=             -1.3228    Z=              0.0672  Tot=              1.6249
 Quadrupole moment (field-independent basis, Debye-Ang):
   XX=            -12.9770   YY=            -12.5806   ZZ=            -13.5853
   XY=             -2.0710   XZ=              0.0747   YZ=              0.0128

 Normal termination of Gaussian 09 at Wed Aug 26 16:08:25 2020.
