 Gaussian 09, Revision D.01,
 Gaussian 09:  ES64L-G09RevD.01 24-Apr-2013

 --------------------
 #p B2PLYPD3/Def2QZVP
 --------------------

 --------
 methanol
 --------
 Symbolic Z-matrix:
 Charge =  0 Multiplicity = 1

                         Standard orientation:
 ---------------------------------------------------------------------
 Center     Atomic      Atomic             Coordinates (Angstroms)
 Number     Number       Type             X           Y           Z
 ---------------------------------------------------------------------
      1          6           0        0.670130    0.016415   -0.008732
      2          8           0       -0.725472   -0.169106    0.031618
      3          1           0        1.091646    0.584721    0.878104
      4          1           0        1.025255    0.446334   -0.843924
      5          1           0        0.996828   -0.793196   -0.080384
      6          1           0       -1.330728    1.016503   -0.154352
 ---------------------------------------------------------------------

 SCF Done:  E(RB2PLYPD3) =  -115.429239835     A.U. after   12 cycles
 E2(B2PLYPD3) =    -0.1542544305D+00 E(B2PLYPD3) =    -0.11558349426562D+03

 The electronic state is 1-A.
 Alpha  occ. eigenvalues --  -19.74875 -10.62215  -1.12307  -0.80326  -0.55594
 Alpha  occ. eigenvalues --   -0.52048  -0.49587  -0.39623  -0.34789
 Alpha virt. eigenvalues --   -0.00186   0.07464   0.12531   0.13158   0.14981
 Alpha virt. eigenvalues --    0.16968   0.18703   0.23200   0.29341   0.33183
 Alpha virt. eigenvalues --    0.35061   0.37766   0.40216   0.41576   0.44448

 Mulliken charges:
               1
     1  C    0.041512
     2  O   -0.488807
     3  H    0.046481
     4  H    0.043036
     5  H    0.108544
     6  H    0.249234
 Sum of Mulliken charges =   0.00000

 Dipole moment (field-independent basis, Debye):
    X=              0.7965    Y=              1.5613    Z=             -0.4253  Tot=              1.8036
 Quadrupole moment (field-independent basis, Debye-Ang):
   XX=            -12.4924   YY=            -11.8640   ZZ=            -13.8723
   XY=             -2.7092   XZ=              0.2010   YZ=             -0.1630

 Normal termination of Gaussian 09 at Wed Aug 26 23:25:15 2020.
