 Gaussian 09, Revision D.01,
 Gaussian 09:  ES64L-G09RevD.01 24-Apr-2013

 --------------------
 #p B2PLYPD3/Def2QZVP
 --------------------

 --------
 methanol
 --------
 Symbolic Z-matrix:
 Charge =  0 Multiplicity = 1

                         Standard orientation:
 ---------------------------------------------------------------------
 Center     Atomic      Atomic             Coordinates (Angstroms)
 Number     Number       Type             X           Y           Z
 ---------------------------------------------------------------------
      1          6           0       -0.659526   -0.024830    0.004495
      2          8           0        0.753926    0.065921   -0.026644
      3          1           0       -0.984767   -0.250093    1.082162
      4          1           0       -0.957340   -0.953934   -0.713524
      5          1           0       -1.237998    1.095811   -0.325470
      6          1           0        1.105849   -0.270167    0.143015
 ---------------------------------------------------------------------

 SCF Done:  E(RB2PLYPD3) =  -114.845797802     A.U. after   12 cycles
 E2(B2PLYPD3) =    -0.1435617855D+00 E(B2PLYPD3) =    -0.11498935958765D+03

 The electronic state is 1-A.
 Alpha  occ. eigenvalues --  -19.68340 -10.71208  -1.32465  -0.85208  -0.62785
 Alpha  occ. eigenvalues --   -0.51693  -0.49696  -0.39112  -0.36514
 Alpha virt. eigenvalues --    0.04611   0.09707   0.11070   0.11514   0.13951
 Alpha virt. eigenvalues --    0.16768   0.17370   0.28329   0.31170   0.31734
 Alpha virt. eigenvalues --    0.32624   0.36842   0.38394   0.40938   0.43074

 Mulliken charges:
               1
     1  C    0.065439
     2  O   -0.066092
     3  H    0.055906
     4  H    0.055362
     5  H    0.076243
     6  H   -0.186858
 Sum of Mulliken charges =   0.00000

 Dipole moment (field-independent basis, Debye):
    X=             -0.9488    Y=             -0.9113    Z=              0.5292  Tot=              1.4180
 Quadrupole moment (field-independent basis, Debye-Ang):
   XX=            -12.8110   YY=            -12.7687   ZZ=            -13.3906
   XY=             -1.6509   XZ=              0.6140   YZ=             -0.1536

 Normal termination of Gaussian 09 at Wed Aug 26 22:25:11 2020.
