 Gaussian 09, Revision D.01,
 Gaussian 09:  ES64L-G09RevD.01 24-Apr-2013

 --------------------
 #p B2PLYPD3/Def2QZVP
 --------------------

 --------
 methanol
 --------
 Symbolic Z-matrix:
 Charge =  0 Multiplicity = 1

                         Standard orientation:
 ---------------------------------------------------------------------
 Center     Atomic      Atomic             Coordinates (Angstroms)
 Number     Number       Type             X           Y           Z
 ---------------------------------------------------------------------
      1          6           0        0.661392    0.012259    0.014877
      2          8           0       -0.748163   -0.145735   -0.010546
      3          1           0        1.078760    0.420197    0.875850
      4          1           0        1.052480    0.616507   -0.847724
      5          1           0        1.063301   -0.873569   -0.095347
      6          1           0       -1.177585    0.929190    0.062330
 ---------------------------------------------------------------------

 SCF Done:  E(RB2PLYPD3) =  -115.511801657     A.U. after   11 cycles
 E2(B2PLYPD3) =    -0.1508647187D+00 E(B2PLYPD3) =    -0.11566266637587D+03

 The electronic state is 1-A.
 Alpha  occ. eigenvalues --  -19.74292 -10.63863  -1.13368  -0.79051  -0.56405
 Alpha  occ. eigenvalues --   -0.51228  -0.50262  -0.40903  -0.35062
 Alpha virt. eigenvalues --    0.02945   0.07628   0.12554   0.12866   0.14929
 Alpha virt. eigenvalues --    0.17419   0.18552   0.27362   0.29562   0.33402
 Alpha virt. eigenvalues --    0.34318   0.38007   0.40804   0.41233   0.43676

 Mulliken charges:
               1
     1  C    0.076455
     2  O   -0.485062
     3  H    0.047735
     4  H    0.034408
     5  H    0.070011
     6  H    0.256452
 Sum of Mulliken charges =   0.00000

 Dipole moment (field-independent basis, Debye):
    X=              0.8985    Y=              1.5728    Z=              0.1745  Tot=              1.8197
 Quadrupole moment (field-independent basis, Debye-Ang):
   XX=            -12.9167   YY=            -11.9469   ZZ=            -13.9384
   XY=             -2.4998   XZ=             -0.0561   YZ=              0.1726

 Normal termination of Gaussian 09 at Wed Aug 26 11:26:53 2020.
