 Gaussian 09, Revision D.01,
 Gaussian 09:  ES64L-G09RevD.01 24-Apr-2013

 --------------------
 #p B2PLYPD3/Def2QZVP
 --------------------

 --------
 methanol
 --------
 Symbolic Z-matrix:
 Charge =  0 Multiplicity = 1

                         Standard orientation:
 ---------------------------------------------------------------------
 Center     Atomic      Atomic             Coordinates (Angstroms)
 Number     Number       Type             X           Y           Z
 ---------------------------------------------------------------------
      1          6           0       -0.664951   -0.049721   -0.006922
      2          8           0        0.731774    0.148037   -0.011617
      3          1           0       -0.959667   -0.406496    0.902482
      4          1           0       -0.952918   -0.639351   -0.782477
      5          1           0       -1.138071    0.969780   -0.061818
      6          1           0        1.186174   -0.809898    0.076282
 ---------------------------------------------------------------------

 SCF Done:  E(RB2PLYPD3) =  -115.533964369     A.U. after   11 cycles
 E2(B2PLYPD3) =    -0.1485905380D+00 E(B2PLYPD3) =    -0.11568255490680D+03

 The electronic state is 1-A.
 Alpha  occ. eigenvalues --  -19.72976 -10.64046  -1.14514  -0.78722  -0.57417
 Alpha  occ. eigenvalues --   -0.53959  -0.49005  -0.40114  -0.35317
 Alpha virt. eigenvalues --    0.04216   0.07994   0.12368   0.12677   0.14779
 Alpha virt. eigenvalues --    0.17373   0.18221   0.29102   0.31228   0.33394
 Alpha virt. eigenvalues --    0.34220   0.38016   0.40423   0.43388   0.44320

 Mulliken charges:
               1
     1  C    0.084000
     2  O   -0.486522
     3  H    0.049990
     4  H    0.051232
     5  H    0.057095
     6  H    0.244204
 Sum of Mulliken charges =   0.00000

 Dipole moment (field-independent basis, Debye):
    X=             -0.8359    Y=             -1.6626    Z=              0.1660  Tot=              1.8682
 Quadrupole moment (field-independent basis, Debye-Ang):
   XX=            -12.9173   YY=            -12.1522   ZZ=            -13.7006
   XY=             -2.3548   XZ=              0.1772   YZ=             -0.0073

 Normal termination of Gaussian 09 at Wed Aug 26 11:15:19 2020.
