 Gaussian 09, Revision D.01,
 Gaussian 09:  ES64L-G09RevD.01 24-Apr-2013

 --------------------
 #p B2PLYPD3/Def2QZVP
 --------------------

 --------
 methanol
 --------
 Symbolic Z-matrix:
 Charge =  0 Multiplicity = 1

                         Standard orientation:
 ---------------------------------------------------------------------
 Center     Atomic      Atomic             Coordinates (Angstroms)
 Number     Number       Type             X           Y           Z
 ---------------------------------------------------------------------
      1          6           0        0.668412    0.037344   -0.015154
      2          8           0       -0.695233   -0.219433    0.003488
      3          1           0        0.983294    0.404457    0.850527
      4          1           0        0.764865    0.626669   -0.743023
      5          1           0        1.120119   -0.651800   -0.101111
      6          1           0       -1.316885    1.152071    0.056630
 ---------------------------------------------------------------------

 SCF Done:  E(RB2PLYPD3) =  -115.340461137     A.U. after   12 cycles
 E2(B2PLYPD3) =    -0.1566970780D+00 E(B2PLYPD3) =    -0.11549715821485D+03

 The electronic state is 1-A.
 Alpha  occ. eigenvalues --  -19.74861 -10.59041  -1.12629  -0.81826  -0.57469
 Alpha  occ. eigenvalues --   -0.54285  -0.49716  -0.38091  -0.34637
 Alpha virt. eigenvalues --   -0.03511   0.07731   0.12794   0.13127   0.14454
 Alpha virt. eigenvalues --    0.17908   0.18198   0.21480   0.29379   0.32606
 Alpha virt. eigenvalues --    0.34787   0.39582   0.41409   0.43926   0.47028

 Mulliken charges:
               1
     1  C    0.023765
     2  O   -0.471174
     3  H    0.040877
     4  H    0.051123
     5  H    0.132857
     6  H    0.222553
 Sum of Mulliken charges =   0.00000

 Dipole moment (field-independent basis, Debye):
    X=              0.9952    Y=              1.6859    Z=              0.0119  Tot=              1.9577
 Quadrupole moment (field-independent basis, Debye-Ang):
   XX=            -12.6318   YY=            -11.4765   ZZ=            -13.6752
   XY=             -2.8841   XZ=              0.0036   YZ=             -0.0070

 Normal termination of Gaussian 09 at Wed Aug 26 22:33:37 2020.
