 Gaussian 09, Revision D.01,
 Gaussian 09:  ES64L-G09RevD.01 24-Apr-2013

 --------------------
 #p B2PLYPD3/Def2QZVP
 --------------------

 --------
 methanol
 --------
 Symbolic Z-matrix:
 Charge =  0 Multiplicity = 1

                         Standard orientation:
 ---------------------------------------------------------------------
 Center     Atomic      Atomic             Coordinates (Angstroms)
 Number     Number       Type             X           Y           Z
 ---------------------------------------------------------------------
      1          6           0       -0.671571    0.017402    0.004654
      2          8           0        0.740696   -0.137706   -0.011059
      3          1           0       -1.130408    0.512947   -0.839823
      4          1           0       -0.971109    0.535159    0.851785
      5          1           0       -0.978790   -0.945877    0.044114
      6          1           0        1.184160    0.895007    0.004471
 ---------------------------------------------------------------------

 SCF Done:  E(RB2PLYPD3) =  -115.524089850     A.U. after   11 cycles
 E2(B2PLYPD3) =    -0.1500928465D+00 E(B2PLYPD3) =    -0.11567418269623D+03

 The electronic state is 1-A.
 Alpha  occ. eigenvalues --  -19.73686 -10.63756  -1.13550  -0.78787  -0.57403
 Alpha  occ. eigenvalues --   -0.51791  -0.49241  -0.41158  -0.35052
 Alpha virt. eigenvalues --    0.03530   0.07849   0.12533   0.12719   0.15139
 Alpha virt. eigenvalues --    0.16885   0.18322   0.28545   0.30011   0.33202
 Alpha virt. eigenvalues --    0.34432   0.38784   0.39625   0.41646   0.44271

 Mulliken charges:
               1
     1  C    0.074132
     2  O   -0.486599
     3  H    0.045161
     4  H    0.045859
     5  H    0.073162
     6  H    0.248284
 Sum of Mulliken charges =   0.00000

 Dipole moment (field-independent basis, Debye):
    X=             -0.8935    Y=              1.6005    Z=              0.0779  Tot=              1.8347
 Quadrupole moment (field-independent basis, Debye-Ang):
   XX=            -12.9898   YY=            -11.8382   ZZ=            -13.9095
   XY=              2.3039   XZ=              0.0965   YZ=              0.0253

 Normal termination of Gaussian 09 at Wed Aug 26 11:20:42 2020.
