 Gaussian 09, Revision D.01,
 Gaussian 09:  ES64L-G09RevD.01 24-Apr-2013

 --------------------
 #p B2PLYPD3/Def2QZVP
 --------------------

 --------
 methanol
 --------
 Symbolic Z-matrix:
 Charge =  0 Multiplicity = 1

                         Standard orientation:
 ---------------------------------------------------------------------
 Center     Atomic      Atomic             Coordinates (Angstroms)
 Number     Number       Type             X           Y           Z
 ---------------------------------------------------------------------
      1          6           0        0.655859   -0.023086   -0.007699
      2          8           0       -0.748403    0.100789    0.004878
      3          1           0        0.973669   -0.587392   -0.912851
      4          1           0        1.064699   -0.489556    0.965049
      5          1           0        1.093956    1.025399   -0.058784
      6          1           0       -1.080260   -0.616246    0.013757
 ---------------------------------------------------------------------

 SCF Done:  E(RB2PLYPD3) =  -115.510025223     A.U. after   10 cycles
 E2(B2PLYPD3) =    -0.1448336969D+00 E(B2PLYPD3) =    -0.11565485892023D+03

 The electronic state is 1-A.
 Alpha  occ. eigenvalues --  -19.70983 -10.67271  -1.21240  -0.79789  -0.60823
 Alpha  occ. eigenvalues --   -0.52042  -0.50168  -0.40931  -0.35875
 Alpha virt. eigenvalues --    0.05397   0.08893   0.11985   0.12222   0.14514
 Alpha virt. eigenvalues --    0.17240   0.18038   0.28734   0.32992   0.33454
 Alpha virt. eigenvalues --    0.36910   0.38856   0.39651   0.40345   0.43303

 Mulliken charges:
               1
     1  C    0.057181
     2  O   -0.337481
     3  H    0.052320
     4  H    0.046838
     5  H    0.070571
     6  H    0.110570
 Sum of Mulliken charges =   0.00000

 Dipole moment (field-independent basis, Debye):
    X=              0.8842    Y=             -1.3308    Z=             -0.0283  Tot=              1.5980
 Quadrupole moment (field-independent basis, Debye-Ang):
   XX=            -13.1919   YY=            -12.5102   ZZ=            -13.5852
   XY=              2.0699   XZ=             -0.0023   YZ=              0.0310

 Normal termination of Gaussian 09 at Wed Aug 26 23:00:18 2020.
