 Gaussian 09, Revision D.01,
 Gaussian 09:  ES64L-G09RevD.01 24-Apr-2013

 --------------------
 #p B2PLYPD3/Def2QZVP
 --------------------

 --------
 methanol
 --------
 Symbolic Z-matrix:
 Charge =  0 Multiplicity = 1

                         Standard orientation:
 ---------------------------------------------------------------------
 Center     Atomic      Atomic             Coordinates (Angstroms)
 Number     Number       Type             X           Y           Z
 ---------------------------------------------------------------------
      1          6           0        0.669245    0.048903   -0.003032
      2          8           0       -0.730073   -0.167795   -0.002700
      3          1           0        0.984406    0.472752    0.829107
      4          1           0        0.972908    0.557574   -0.786278
      5          1           0        1.105416   -0.922393   -0.024995
      6          1           0       -1.237618    0.941008    0.021952
 ---------------------------------------------------------------------

 SCF Done:  E(RB2PLYPD3) =  -115.493939786     A.U. after   11 cycles
 E2(B2PLYPD3) =    -0.1513999531D+00 E(B2PLYPD3) =    -0.11564533973924D+03

 The electronic state is 1-A.
 Alpha  occ. eigenvalues --  -19.74033 -10.62473  -1.12658  -0.79396  -0.55885
 Alpha  occ. eigenvalues --   -0.53987  -0.48857  -0.39994  -0.35268
 Alpha virt. eigenvalues --    0.02186   0.07712   0.12574   0.12893   0.14957
 Alpha virt. eigenvalues --    0.17367   0.18275   0.26009   0.29495   0.33608
 Alpha virt. eigenvalues --    0.34405   0.38827   0.39940   0.44085   0.44421

 Mulliken charges:
               1
     1  C    0.097255
     2  O   -0.497501
     3  H    0.046969
     4  H    0.046701
     5  H    0.058058
     6  H    0.248518
 Sum of Mulliken charges =   0.00000

 Dipole moment (field-independent basis, Debye):
    X=              0.9102    Y=              1.7313    Z=              0.0425  Tot=              1.9564
 Quadrupole moment (field-independent basis, Debye-Ang):
   XX=            -12.7710   YY=            -11.8548   ZZ=            -13.8028
   XY=             -2.4519   XZ=             -0.0358   YZ=             -0.0036

 Normal termination of Gaussian 09 at Wed Aug 26 15:54:13 2020.
