 Gaussian 09, Revision D.01,
 Gaussian 09:  ES64L-G09RevD.01 24-Apr-2013

 --------------------
 #p B2PLYPD3/Def2QZVP
 --------------------

 --------
 methanol
 --------
 Symbolic Z-matrix:
 Charge =  0 Multiplicity = 1

                         Standard orientation:
 ---------------------------------------------------------------------
 Center     Atomic      Atomic             Coordinates (Angstroms)
 Number     Number       Type             X           Y           Z
 ---------------------------------------------------------------------
      1          6           0        0.659154   -0.030132   -0.003670
      2          8           0       -0.745146    0.136108    0.001732
      3          1           0        1.011245   -0.536180   -0.847976
      4          1           0        1.008469   -0.525918    0.871775
      5          1           0        1.112824    0.972078   -0.006438
      6          1           0       -1.126292   -0.818053   -0.009196
 ---------------------------------------------------------------------

 SCF Done:  E(RB2PLYPD3) =  -115.545778606     A.U. after   10 cycles
 E2(B2PLYPD3) =    -0.1482672575D+00 E(B2PLYPD3) =    -0.11569404586329D+03

 The electronic state is 1-A.
 Alpha  occ. eigenvalues --  -19.73171 -10.64723  -1.15238  -0.78580  -0.58021
 Alpha  occ. eigenvalues --   -0.52524  -0.49468  -0.40939  -0.35426
 Alpha virt. eigenvalues --    0.04475   0.08070   0.12455   0.12544   0.14885
 Alpha virt. eigenvalues --    0.17534   0.18172   0.29113   0.32166   0.33459
 Alpha virt. eigenvalues --    0.34394   0.38574   0.40100   0.41977   0.44385

 Mulliken charges:
               1
     1  C    0.075802
     2  O   -0.472062
     3  H    0.047940
     4  H    0.046785
     5  H    0.061867
     6  H    0.239668
 Sum of Mulliken charges =   0.00000

 Dipole moment (field-independent basis, Debye):
    X=              0.9086    Y=             -1.6117    Z=             -0.0343  Tot=              1.8505
 Quadrupole moment (field-independent basis, Debye-Ang):
   XX=            -13.0985   YY=            -12.0992   ZZ=            -13.8011
   XY=              2.2658   XZ=             -0.0019   YZ=              0.0330

 Normal termination of Gaussian 09 at Thu Aug 27 00:12:53 2020.
