 Gaussian 09, Revision D.01,
 Gaussian 09:  ES64L-G09RevD.01 24-Apr-2013

 --------------------
 #p B2PLYPD3/Def2QZVP
 --------------------

 --------
 methanol
 --------
 Symbolic Z-matrix:
 Charge =  0 Multiplicity = 1

                         Standard orientation:
 ---------------------------------------------------------------------
 Center     Atomic      Atomic             Coordinates (Angstroms)
 Number     Number       Type             X           Y           Z
 ---------------------------------------------------------------------
      1          6           0       -0.659077    0.015933    0.008393
      2          8           0        0.737490   -0.137139   -0.010541
      3          1           0       -1.035057    0.601646   -0.851074
      4          1           0       -0.981100    0.480071    0.893104
      5          1           0       -1.090924   -0.914081   -0.044422
      6          1           0        1.161624    0.833883    0.036359
 ---------------------------------------------------------------------

 SCF Done:  E(RB2PLYPD3) =  -115.539712230     A.U. after   11 cycles
 E2(B2PLYPD3) =    -0.1485567475D+00 E(B2PLYPD3) =    -0.11568826897756D+03

 The electronic state is 1-A.
 Alpha  occ. eigenvalues --  -19.73250 -10.64302  -1.14855  -0.78694  -0.57626
 Alpha  occ. eigenvalues --   -0.51972  -0.50531  -0.40847  -0.34984
 Alpha virt. eigenvalues --    0.04156   0.08012   0.12500   0.12773   0.14889
 Alpha virt. eigenvalues --    0.17498   0.18153   0.29124   0.31310   0.33237
 Alpha virt. eigenvalues --    0.34445   0.39115   0.40766   0.41442   0.43902

 Mulliken charges:
               1
     1  C    0.077089
     2  O   -0.478656
     3  H    0.037987
     4  H    0.045379
     5  H    0.070171
     6  H    0.248031
 Sum of Mulliken charges =   0.00000

 Dipole moment (field-independent basis, Debye):
    X=             -0.8354    Y=              1.5508    Z=              0.1277  Tot=              1.7661
 Quadrupole moment (field-independent basis, Debye-Ang):
   XX=            -12.9621   YY=            -12.0789   ZZ=            -13.8286
   XY=              2.4405   XZ=              0.0937   YZ=              0.0973

 Normal termination of Gaussian 09 at Thu Aug 27 00:11:27 2020.
