 Gaussian 09, Revision D.01,
 Gaussian 09:  ES64L-G09RevD.01 24-Apr-2013

 --------------------
 #p B2PLYPD3/Def2QZVP
 --------------------

 --------
 methanol
 --------
 Symbolic Z-matrix:
 Charge =  0 Multiplicity = 1

                         Standard orientation:
 ---------------------------------------------------------------------
 Center     Atomic      Atomic             Coordinates (Angstroms)
 Number     Number       Type             X           Y           Z
 ---------------------------------------------------------------------
      1          6           0        0.671284    0.009188    0.000332
      2          8           0       -0.747839   -0.131310   -0.002805
      3          1           0        1.046750    0.475622    0.896864
      4          1           0        1.000997    0.604292   -0.852881
      5          1           0        1.042328   -0.928323   -0.059653
      6          1           0       -1.135074    0.843764    0.036123
 ---------------------------------------------------------------------

 SCF Done:  E(RB2PLYPD3) =  -115.540563071     A.U. after   11 cycles
 E2(B2PLYPD3) =    -0.1487436104D+00 E(B2PLYPD3) =    -0.11568930668098D+03

 The electronic state is 1-A.
 Alpha  occ. eigenvalues --  -19.73170 -10.64477  -1.14374  -0.78843  -0.57557
 Alpha  occ. eigenvalues --   -0.51579  -0.50109  -0.41460  -0.35068
 Alpha virt. eigenvalues --    0.04277   0.08052   0.12433   0.12660   0.14879
 Alpha virt. eigenvalues --    0.17265   0.18097   0.29121   0.31839   0.33238
 Alpha virt. eigenvalues --    0.33825   0.38829   0.40670   0.41157   0.43876

 Mulliken charges:
               1
     1  C    0.076948
     2  O   -0.482381
     3  H    0.045265
     4  H    0.042350
     5  H    0.074430
     6  H    0.243388
 Sum of Mulliken charges =   0.00000

 Dipole moment (field-independent basis, Debye):
    X=              0.9495    Y=              1.5435    Z=              0.0686  Tot=              1.8135
 Quadrupole moment (field-independent basis, Debye-Ang):
   XX=            -13.1372   YY=            -11.9495   ZZ=            -13.8323
   XY=             -2.3427   XZ=             -0.0425   YZ=              0.0602

 Normal termination of Gaussian 09 at Wed Aug 26 10:18:05 2020.
