 Gaussian 09, Revision D.01,
 Gaussian 09:  ES64L-G09RevD.01 24-Apr-2013

 --------------------
 #p B2PLYPD3/Def2QZVP
 --------------------

 --------
 methanol
 --------
 Symbolic Z-matrix:
 Charge =  0 Multiplicity = 1

                         Standard orientation:
 ---------------------------------------------------------------------
 Center     Atomic      Atomic             Coordinates (Angstroms)
 Number     Number       Type             X           Y           Z
 ---------------------------------------------------------------------
      1          6           0        0.664685   -0.007801   -0.002056
      2          8           0       -0.758660    0.089394    0.000057
      3          1           0        1.015136   -0.605539   -0.919838
      4          1           0        0.963564   -0.551727    0.983411
      5          1           0        1.126606    1.032536   -0.027068
      6          1           0       -1.024132   -0.543615   -0.024628
 ---------------------------------------------------------------------

 SCF Done:  E(RB2PLYPD3) =  -115.405200638     A.U. after   11 cycles
 E2(B2PLYPD3) =    -0.1438059787D+00 E(B2PLYPD3) =    -0.11554900661626D+03

 The electronic state is 1-A.
 Alpha  occ. eigenvalues --  -19.69666 -10.68215  -1.25046  -0.80785  -0.61470
 Alpha  occ. eigenvalues --   -0.51608  -0.50644  -0.41718  -0.36002
 Alpha virt. eigenvalues --    0.05351   0.09286   0.11688   0.12064   0.14347
 Alpha virt. eigenvalues --    0.17282   0.17489   0.28463   0.32155   0.32905
 Alpha virt. eigenvalues --    0.36763   0.38411   0.38702   0.40462   0.43651

 Mulliken charges:
               1
     1  C    0.059505
     2  O   -0.248846
     3  H    0.047325
     4  H    0.047014
     5  H    0.082020
     6  H    0.012982
 Sum of Mulliken charges =   0.00000

 Dipole moment (field-independent basis, Debye):
    X=              1.0703    Y=             -1.2165    Z=             -0.0684  Tot=              1.6218
 Quadrupole moment (field-independent basis, Debye-Ang):
   XX=            -13.3886   YY=            -12.4105   ZZ=            -13.5233
   XY=              1.9987   XZ=             -0.0249   YZ=              0.0497

 Normal termination of Gaussian 09 at Wed Aug 26 11:22:14 2020.
