 Gaussian 09, Revision D.01,
 Gaussian 09:  ES64L-G09RevD.01 24-Apr-2013

 --------------------
 #p B2PLYPD3/Def2QZVP
 --------------------

 --------
 methanol
 --------
 Symbolic Z-matrix:
 Charge =  0 Multiplicity = 1

                         Standard orientation:
 ---------------------------------------------------------------------
 Center     Atomic      Atomic             Coordinates (Angstroms)
 Number     Number       Type             X           Y           Z
 ---------------------------------------------------------------------
      1          6           0       -0.680160   -0.032124    0.002134
      2          8           0        0.758425    0.094490   -0.013649
      3          1           0       -0.992863   -0.400681    0.981133
      4          1           0       -1.059688   -0.704161   -0.814661
      5          1           0       -1.092305    1.100045   -0.125985
      6          1           0        1.158420   -0.558375    0.055899
 ---------------------------------------------------------------------

 SCF Done:  E(RB2PLYPD3) =  -115.489111271     A.U. after   10 cycles
 E2(B2PLYPD3) =    -0.1449635286D+00 E(B2PLYPD3) =    -0.11563407479994D+03

 The electronic state is 1-A.
 Alpha  occ. eigenvalues --  -19.70274 -10.67953  -1.20434  -0.80243  -0.60835
 Alpha  occ. eigenvalues --   -0.51852  -0.48743  -0.40422  -0.36108
 Alpha virt. eigenvalues --    0.05343   0.08848   0.11587   0.12185   0.14627
 Alpha virt. eigenvalues --    0.16831   0.17862   0.28978   0.31894   0.33327
 Alpha virt. eigenvalues --    0.35485   0.39011   0.39839   0.40414   0.42230

 Mulliken charges:
               1
     1  C    0.060399
     2  O   -0.334357
     3  H    0.062015
     4  H    0.058340
     5  H    0.069998
     6  H    0.083604
 Sum of Mulliken charges =   0.00000

 Dipole moment (field-independent basis, Debye):
    X=             -0.9212    Y=             -1.3607    Z=              0.1797  Tot=              1.6530
 Quadrupole moment (field-independent basis, Debye-Ang):
   XX=            -12.8807   YY=            -12.5028   ZZ=            -13.6307
   XY=             -1.9370   XZ=              0.2236   YZ=             -0.0464

 Normal termination of Gaussian 09 at Wed Aug 26 16:14:47 2020.
