 Gaussian 09, Revision D.01,
 Gaussian 09:  ES64L-G09RevD.01 24-Apr-2013

 --------------------
 #p B2PLYPD3/Def2QZVP
 --------------------

 --------
 methanol
 --------
 Symbolic Z-matrix:
 Charge =  0 Multiplicity = 1

                         Standard orientation:
 ---------------------------------------------------------------------
 Center     Atomic      Atomic             Coordinates (Angstroms)
 Number     Number       Type             X           Y           Z
 ---------------------------------------------------------------------
      1          6           0       -0.687004    0.047276   -0.018867
      2          8           0        0.744698   -0.160563   -0.005305
      3          1           0       -1.021550    0.485680   -0.762383
      4          1           0       -1.088976    0.450985    0.784423
      5          1           0       -0.899830   -0.994539    0.061558
      6          1           0        1.174797    1.058719    0.072040
 ---------------------------------------------------------------------

 SCF Done:  E(RB2PLYPD3) =  -115.452669257     A.U. after   11 cycles
 E2(B2PLYPD3) =    -0.1543808420D+00 E(B2PLYPD3) =    -0.11560705009864D+03

 The electronic state is 1-A.
 Alpha  occ. eigenvalues --  -19.74930 -10.62183  -1.11620  -0.80252  -0.56784
 Alpha  occ. eigenvalues --   -0.53875  -0.46914  -0.39778  -0.35841
 Alpha virt. eigenvalues --    0.00996   0.07647   0.11877   0.13000   0.15243
 Alpha virt. eigenvalues --    0.16565   0.18544   0.24223   0.29124   0.33020
 Alpha virt. eigenvalues --    0.34198   0.37725   0.39075   0.44337   0.45721

 Mulliken charges:
               1
     1  C    0.082161
     2  O   -0.481299
     3  H    0.058600
     4  H    0.046378
     5  H    0.064437
     6  H    0.229724
 Sum of Mulliken charges =   0.00000

 Dipole moment (field-independent basis, Debye):
    X=             -1.1519    Y=              1.7287    Z=              0.1090  Tot=              2.0802
 Quadrupole moment (field-independent basis, Debye-Ang):
   XX=            -13.2966   YY=            -11.4583   ZZ=            -13.8888
   XY=              1.9587   XZ=              0.0878   YZ=             -0.0270

 Normal termination of Gaussian 09 at Wed Aug 26 23:52:17 2020.
