 Gaussian 09, Revision D.01,
 Gaussian 09:  ES64L-G09RevD.01 24-Apr-2013

 --------------------
 #p B2PLYPD3/Def2QZVP
 --------------------

 --------
 methanol
 --------
 Symbolic Z-matrix:
 Charge =  0 Multiplicity = 1

                         Standard orientation:
 ---------------------------------------------------------------------
 Center     Atomic      Atomic             Coordinates (Angstroms)
 Number     Number       Type             X           Y           Z
 ---------------------------------------------------------------------
      1          6           0       -0.653531    0.029616    0.030697
      2          8           0        0.743287   -0.201265   -0.036556
      3          1           0       -1.148116    0.705467   -0.706412
      4          1           0       -0.920541    0.358725    0.734543
      5          1           0       -1.234582   -0.788966   -0.039978
      6          1           0        1.278128    1.157197    0.120114
 ---------------------------------------------------------------------

 SCF Done:  E(RB2PLYPD3) =  -115.360383971     A.U. after   12 cycles
 E2(B2PLYPD3) =    -0.1573181602D+00 E(B2PLYPD3) =    -0.11551770213155D+03

 The electronic state is 1-A.
 Alpha  occ. eigenvalues --  -19.76150 -10.61488  -1.11823  -0.82319  -0.55019
 Alpha  occ. eigenvalues --   -0.51148  -0.50029  -0.39013  -0.35344
 Alpha virt. eigenvalues --   -0.03072   0.07062   0.12681   0.13200   0.14676
 Alpha virt. eigenvalues --    0.18322   0.18786   0.21244   0.29762   0.33023
 Alpha virt. eigenvalues --    0.34195   0.37971   0.39270   0.41318   0.44917

 Mulliken charges:
               1
     1  C    0.007499
     2  O   -0.471596
     3  H    0.035272
     4  H    0.137279
     5  H    0.052754
     6  H    0.238792
 Sum of Mulliken charges =   0.00000

 Dipole moment (field-independent basis, Debye):
    X=             -0.9834    Y=              1.7653    Z=              0.4419  Tot=              2.0685
 Quadrupole moment (field-independent basis, Debye-Ang):
   XX=            -12.5538   YY=            -11.5269   ZZ=            -14.1629
   XY=              2.6797   XZ=              0.1111   YZ=              0.2978

 Normal termination of Gaussian 09 at Wed Aug 26 22:31:29 2020.
