 Gaussian 09, Revision D.01,
 Gaussian 09:  ES64L-G09RevD.01 24-Apr-2013

 --------------------
 #p B2PLYPD3/Def2QZVP
 --------------------

 --------
 methanol
 --------
 Symbolic Z-matrix:
 Charge =  0 Multiplicity = 1

                         Standard orientation:
 ---------------------------------------------------------------------
 Center     Atomic      Atomic             Coordinates (Angstroms)
 Number     Number       Type             X           Y           Z
 ---------------------------------------------------------------------
      1          6           0        0.669450   -0.020578    0.024890
      2          8           0       -0.746197    0.111260   -0.029215
      3          1           0        1.048662   -0.789155   -0.763636
      4          1           0        0.917489   -0.308085    0.953531
      5          1           0        1.105656    1.001087   -0.209703
      6          1           0       -1.118931   -0.670454    0.104184
 ---------------------------------------------------------------------

 SCF Done:  E(RB2PLYPD3) =  -115.536316012     A.U. after   11 cycles
 E2(B2PLYPD3) =    -0.1459205611D+00 E(B2PLYPD3) =    -0.11568223657264D+03

 The electronic state is 1-A.
 Alpha  occ. eigenvalues --  -19.71507 -10.66068  -1.17970  -0.79505  -0.59874
 Alpha  occ. eigenvalues --   -0.52456  -0.49579  -0.40948  -0.35584
 Alpha virt. eigenvalues --    0.05250   0.08629   0.12013   0.12359   0.14762
 Alpha virt. eigenvalues --    0.17208   0.17831   0.29125   0.32728   0.33179
 Alpha virt. eigenvalues --    0.36871   0.38167   0.38872   0.41630   0.45189

 Mulliken charges:
               1
     1  C    0.073823
     2  O   -0.425126
     3  H    0.037886
     4  H    0.060680
     5  H    0.070127
     6  H    0.182610
 Sum of Mulliken charges =   0.00000

 Dipole moment (field-independent basis, Debye):
    X=              0.9013    Y=             -1.4077    Z=              0.3767  Tot=              1.7134
 Quadrupole moment (field-independent basis, Debye-Ang):
   XX=            -13.1261   YY=            -12.3300   ZZ=            -13.6197
   XY=              2.1590   XZ=             -0.3198   YZ=             -0.2380

 Normal termination of Gaussian 09 at Wed Aug 26 11:08:24 2020.
