 Gaussian 09, Revision D.01,
 Gaussian 09:  ES64L-G09RevD.01 24-Apr-2013

 --------------------
 #p B2PLYPD3/Def2QZVP
 --------------------

 --------
 methanol
 --------
 Symbolic Z-matrix:
 Charge =  0 Multiplicity = 1

                         Standard orientation:
 ---------------------------------------------------------------------
 Center     Atomic      Atomic             Coordinates (Angstroms)
 Number     Number       Type             X           Y           Z
 ---------------------------------------------------------------------
      1          6           0        0.659527    0.038081   -0.000641
      2          8           0       -0.732824   -0.163468   -0.004509
      3          1           0        1.014536    0.461859    0.836502
      4          1           0        1.027867    0.612199   -0.759919
      5          1           0        1.121440   -0.924566   -0.057821
      6          1           0       -1.258412    0.929762    0.021153
 ---------------------------------------------------------------------

 SCF Done:  E(RB2PLYPD3) =  -115.502235348     A.U. after   11 cycles
 E2(B2PLYPD3) =    -0.1513477310D+00 E(B2PLYPD3) =    -0.11565358307900D+03

 The electronic state is 1-A.
 Alpha  occ. eigenvalues --  -19.74286 -10.63135  -1.13044  -0.79012  -0.56226
 Alpha  occ. eigenvalues --   -0.52475  -0.49377  -0.40096  -0.35084
 Alpha virt. eigenvalues --    0.02162   0.07571   0.12559   0.13044   0.15110
 Alpha virt. eigenvalues --    0.17446   0.18320   0.26006   0.29604   0.33654
 Alpha virt. eigenvalues --    0.34825   0.38799   0.39543   0.42968   0.44350

 Mulliken charges:
               1
     1  C    0.090671
     2  O   -0.491597
     3  H    0.045307
     4  H    0.041648
     5  H    0.060047
     6  H    0.253925
 Sum of Mulliken charges =   0.00000

 Dipole moment (field-independent basis, Debye):
    X=              0.8106    Y=              1.7243    Z=              0.0593  Tot=              1.9063
 Quadrupole moment (field-independent basis, Debye-Ang):
   XX=            -12.5846   YY=            -11.8999   ZZ=            -14.0113
   XY=             -2.4844   XZ=             -0.0436   YZ=              0.0170

 Normal termination of Gaussian 09 at Wed Aug 26 15:21:43 2020.
