 Gaussian 09, Revision D.01,
 Gaussian 09:  ES64L-G09RevD.01 24-Apr-2013

 --------------------
 #p B2PLYPD3/Def2QZVP
 --------------------

 --------
 methanol
 --------
 Symbolic Z-matrix:
 Charge =  0 Multiplicity = 1

                         Standard orientation:
 ---------------------------------------------------------------------
 Center     Atomic      Atomic             Coordinates (Angstroms)
 Number     Number       Type             X           Y           Z
 ---------------------------------------------------------------------
      1          6           0        0.646684   -0.025242    0.028227
      2          8           0       -0.729903    0.059753   -0.028664
      3          1           0        1.032453   -1.041757   -0.586969
      4          1           0        0.944107   -0.014575    1.063939
      5          1           0        1.100240    1.060372   -0.514649
      6          1           0       -1.117684   -0.330608    0.097626
 ---------------------------------------------------------------------

 SCF Done:  E(RB2PLYPD3) =  -115.072708507     A.U. after   11 cycles
 E2(B2PLYPD3) =    -0.1431535387D+00 E(B2PLYPD3) =    -0.11521586204547D+03

 The electronic state is 1-A.
 Alpha  occ. eigenvalues --  -19.68385 -10.70148  -1.30665  -0.85699  -0.62846
 Alpha  occ. eigenvalues --   -0.52660  -0.50039  -0.38340  -0.36489
 Alpha virt. eigenvalues --    0.04832   0.09756   0.10839   0.11883   0.14301
 Alpha virt. eigenvalues --    0.16500   0.17681   0.28435   0.31541   0.32992
 Alpha virt. eigenvalues --    0.33839   0.36164   0.40781   0.41769   0.42523

 Mulliken charges:
               1
     1  C    0.048682
     2  O   -0.096993
     3  H    0.038440
     4  H    0.072010
     5  H    0.064760
     6  H   -0.126899
 Sum of Mulliken charges =   0.00000

 Dipole moment (field-independent basis, Debye):
    X=              0.6552    Y=             -0.9561    Z=              0.4904  Tot=              1.2585
 Quadrupole moment (field-independent basis, Debye-Ang):
   XX=            -12.9510   YY=            -12.8180   ZZ=            -13.3637
   XY=              1.5712   XZ=             -0.3960   YZ=             -0.1038

 Normal termination of Gaussian 09 at Wed Aug 26 20:48:55 2020.
