 Gaussian 09, Revision D.01,
 Gaussian 09:  ES64L-G09RevD.01 24-Apr-2013

 --------------------
 #p B2PLYPD3/Def2QZVP
 --------------------

 --------
 methanol
 --------
 Symbolic Z-matrix:
 Charge =  0 Multiplicity = 1

                         Standard orientation:
 ---------------------------------------------------------------------
 Center     Atomic      Atomic             Coordinates (Angstroms)
 Number     Number       Type             X           Y           Z
 ---------------------------------------------------------------------
      1          6           0        0.651339    0.018736    0.003233
      2          8           0       -0.744333   -0.144218   -0.006348
      3          1           0        1.070988    0.442249    0.873833
      4          1           0        1.085935    0.577079   -0.822144
      5          1           0        1.037252   -0.918647   -0.053458
      6          1           0       -1.147544    0.940647    0.033162
 ---------------------------------------------------------------------

 SCF Done:  E(RB2PLYPD3) =  -115.517883092     A.U. after   11 cycles
 E2(B2PLYPD3) =    -0.1508235212D+00 E(B2PLYPD3) =    -0.11566870661274D+03

 The electronic state is 1-A.
 Alpha  occ. eigenvalues --  -19.74434 -10.63911  -1.14004  -0.78593  -0.56841
 Alpha  occ. eigenvalues --   -0.51484  -0.49876  -0.40904  -0.35163
 Alpha virt. eigenvalues --    0.02950   0.07667   0.12615   0.12747   0.15150
 Alpha virt. eigenvalues --    0.17289   0.18566   0.27348   0.29559   0.33701
 Alpha virt. eigenvalues --    0.34876   0.38336   0.40074   0.41446   0.43863

 Mulliken charges:
               1
     1  C    0.072668
     2  O   -0.475197
     3  H    0.044221
     4  H    0.039082
     5  H    0.065251
     6  H    0.253976
 Sum of Mulliken charges =   0.00000

 Dipole moment (field-independent basis, Debye):
    X=              0.8888    Y=              1.6129    Z=              0.0864  Tot=              1.8436
 Quadrupole moment (field-independent basis, Debye-Ang):
   XX=            -13.0648   YY=            -11.8645   ZZ=            -13.9951
   XY=             -2.3456   XZ=             -0.0578   YZ=              0.0648

 Normal termination of Gaussian 09 at Wed Aug 26 15:12:40 2020.
