 Gaussian 09, Revision D.01,
 Gaussian 09:  ES64L-G09RevD.01 24-Apr-2013

 --------------------
 #p B2PLYPD3/Def2QZVP
 --------------------

 --------
 methanol
 --------
 Symbolic Z-matrix:
 Charge =  0 Multiplicity = 1

                         Standard orientation:
 ---------------------------------------------------------------------
 Center     Atomic      Atomic             Coordinates (Angstroms)
 Number     Number       Type             X           Y           Z
 ---------------------------------------------------------------------
      1          6           0        0.658639    0.021107   -0.001531
      2          8           0       -0.746438   -0.145006   -0.007632
      3          1           0        1.014646    0.442389    0.900519
      4          1           0        1.033623    0.597001   -0.821813
      5          1           0        1.105115   -0.903169   -0.050645
      6          1           0       -1.133708    0.897189    0.042179
 ---------------------------------------------------------------------

 SCF Done:  E(RB2PLYPD3) =  -115.529622608     A.U. after   11 cycles
 E2(B2PLYPD3) =    -0.1498120655D+00 E(B2PLYPD3) =    -0.11567943467311D+03

 The electronic state is 1-A.
 Alpha  occ. eigenvalues --  -19.73863 -10.64012  -1.14033  -0.78737  -0.56743
 Alpha  occ. eigenvalues --   -0.52122  -0.50006  -0.40915  -0.35218
 Alpha virt. eigenvalues --    0.03580   0.07828   0.12502   0.12804   0.14805
 Alpha virt. eigenvalues --    0.17644   0.18372   0.28533   0.29876   0.33442
 Alpha virt. eigenvalues --    0.34267   0.39091   0.40688   0.41695   0.43540

 Mulliken charges:
               1
     1  C    0.079265
     2  O   -0.482798
     3  H    0.044336
     4  H    0.042484
     5  H    0.064427
     6  H    0.252287
 Sum of Mulliken charges =   0.00000

 Dipole moment (field-independent basis, Debye):
    X=              0.9449    Y=              1.6086    Z=              0.0905  Tot=              1.8678
 Quadrupole moment (field-independent basis, Debye-Ang):
   XX=            -13.0877   YY=            -11.9684   ZZ=            -13.8513
   XY=             -2.4015   XZ=             -0.1107   YZ=              0.0407

 Normal termination of Gaussian 09 at Thu Aug 27 00:14:56 2020.
