 Gaussian 09, Revision D.01,
 Gaussian 09:  ES64L-G09RevD.01 24-Apr-2013

 --------------------
 #p B2PLYPD3/Def2QZVP
 --------------------

 --------
 methanol
 --------
 Symbolic Z-matrix:
 Charge =  0 Multiplicity = 1

                         Standard orientation:
 ---------------------------------------------------------------------
 Center     Atomic      Atomic             Coordinates (Angstroms)
 Number     Number       Type             X           Y           Z
 ---------------------------------------------------------------------
      1          6           0        0.646499    0.055581   -0.027563
      2          8           0       -0.747526   -0.187946    0.023786
      3          1           0        0.996498    0.658926    0.765259
      4          1           0        1.034629    0.382016   -0.719874
      5          1           0        1.283450   -0.895031    0.058515
      6          1           0       -1.213364    1.024173   -0.128804
 ---------------------------------------------------------------------

 SCF Done:  E(RB2PLYPD3) =  -115.425383105     A.U. after   11 cycles
 E2(B2PLYPD3) =    -0.1540268058D+00 E(B2PLYPD3) =    -0.11557940991047D+03

 The electronic state is 1-A.
 Alpha  occ. eigenvalues --  -19.75613 -10.62855  -1.12597  -0.81075  -0.55179
 Alpha  occ. eigenvalues --   -0.52813  -0.48942  -0.39223  -0.35711
 Alpha virt. eigenvalues --    0.00191   0.07076   0.12542   0.12998   0.14690
 Alpha virt. eigenvalues --    0.18314   0.18861   0.23341   0.29454   0.33183
 Alpha virt. eigenvalues --    0.34562   0.36614   0.39463   0.40897   0.45588

 Mulliken charges:
               1
     1  C    0.042506
     2  O   -0.473839
     3  H    0.045599
     4  H    0.095304
     5  H    0.038661
     6  H    0.251769
 Sum of Mulliken charges =   0.00000

 Dipole moment (field-independent basis, Debye):
    X=              0.9086    Y=              1.8775    Z=             -0.3740  Tot=              2.1190
 Quadrupole moment (field-independent basis, Debye-Ang):
   XX=            -12.7406   YY=            -11.8831   ZZ=            -14.0725
   XY=             -2.4128   XZ=              0.0553   YZ=             -0.2172

 Normal termination of Gaussian 09 at Wed Aug 26 23:55:28 2020.
