 Gaussian 09, Revision D.01,
 Gaussian 09:  ES64L-G09RevD.01 24-Apr-2013

 --------------------
 #p B2PLYPD3/Def2QZVP
 --------------------

 --------
 methanol
 --------
 Symbolic Z-matrix:
 Charge =  0 Multiplicity = 1

                         Standard orientation:
 ---------------------------------------------------------------------
 Center     Atomic      Atomic             Coordinates (Angstroms)
 Number     Number       Type             X           Y           Z
 ---------------------------------------------------------------------
      1          6           0        0.639550    0.020314    0.007638
      2          8           0       -0.749660   -0.156266   -0.032509
      3          1           0        0.941230    0.295824    0.887666
      4          1           0        1.106391    0.718815   -0.725064
      5          1           0        1.185142   -0.871143   -0.089536
      6          1           0       -1.072787    0.984745    0.141178
 ---------------------------------------------------------------------

 SCF Done:  E(RB2PLYPD3) =  -115.495895085     A.U. after   11 cycles
 E2(B2PLYPD3) =    -0.1516881723D+00 E(B2PLYPD3) =    -0.11564758325743D+03

 The electronic state is 1-A.
 Alpha  occ. eigenvalues --  -19.74841 -10.63581  -1.14037  -0.79070  -0.55850
 Alpha  occ. eigenvalues --   -0.52368  -0.50216  -0.40229  -0.35331
 Alpha virt. eigenvalues --    0.02169   0.07516   0.12399   0.12979   0.14651
 Alpha virt. eigenvalues --    0.18070   0.18868   0.25944   0.29420   0.33203
 Alpha virt. eigenvalues --    0.34721   0.38518   0.40369   0.41874   0.43116

 Mulliken charges:
               1
     1  C    0.083244
     2  O   -0.473657
     3  H    0.047634
     4  H    0.032009
     5  H    0.052124
     6  H    0.258646
 Sum of Mulliken charges =   0.00000

 Dipole moment (field-independent basis, Debye):
    X=              1.0072    Y=              1.6644    Z=              0.4041  Tot=              1.9870
 Quadrupole moment (field-independent basis, Debye-Ang):
   XX=            -13.3082   YY=            -11.8280   ZZ=            -13.9501
   XY=             -2.3319   XZ=             -0.2629   YZ=              0.2115

 Normal termination of Gaussian 09 at Wed Aug 26 21:35:53 2020.
