 Gaussian 09, Revision D.01,
 Gaussian 09:  ES64L-G09RevD.01 24-Apr-2013

 --------------------
 #p B2PLYPD3/Def2QZVP
 --------------------

 --------
 methanol
 --------
 Symbolic Z-matrix:
 Charge =  0 Multiplicity = 1

                         Standard orientation:
 ---------------------------------------------------------------------
 Center     Atomic      Atomic             Coordinates (Angstroms)
 Number     Number       Type             X           Y           Z
 ---------------------------------------------------------------------
      1          6           0       -0.671864   -0.020107    0.017614
      2          8           0        0.760974    0.095365   -0.018352
      3          1           0       -1.011985   -0.415589    0.972697
      4          1           0       -1.077223   -0.655114   -0.891603
      5          1           0       -1.078596    1.033870   -0.114639
      6          1           0        1.111192   -0.605443    0.074676
 ---------------------------------------------------------------------

 SCF Done:  E(RB2PLYPD3) =  -115.506999370     A.U. after   10 cycles
 E2(B2PLYPD3) =    -0.1451778412D+00 E(B2PLYPD3) =    -0.11565217721102D+03

 The electronic state is 1-A.
 Alpha  occ. eigenvalues --  -19.70872 -10.67574  -1.20314  -0.79866  -0.60487
 Alpha  occ. eigenvalues --   -0.51512  -0.49635  -0.41081  -0.36004
 Alpha virt. eigenvalues --    0.05398   0.08754   0.11908   0.12141   0.14512
 Alpha virt. eigenvalues --    0.17065   0.18092   0.28811   0.32254   0.33138
 Alpha virt. eigenvalues --    0.36619   0.38490   0.39635   0.40551   0.42804

 Mulliken charges:
               1
     1  C    0.059014
     2  O   -0.348700
     3  H    0.061273
     4  H    0.046230
     5  H    0.074202
     6  H    0.107981
 Sum of Mulliken charges =   0.00000

 Dipole moment (field-independent basis, Debye):
    X=             -0.9581    Y=             -1.3012    Z=              0.2611  Tot=              1.6369
 Quadrupole moment (field-independent basis, Debye-Ang):
   XX=            -13.0674   YY=            -12.5436   ZZ=            -13.5632
   XY=             -2.0493   XZ=              0.2151   YZ=             -0.1847

 Normal termination of Gaussian 09 at Thu Aug 27 00:03:53 2020.
