 Gaussian 09, Revision D.01,
 Gaussian 09:  ES64L-G09RevD.01 24-Apr-2013

 --------------------
 #p B2PLYPD3/Def2QZVP
 --------------------

 --------
 methanol
 --------
 Symbolic Z-matrix:
 Charge =  0 Multiplicity = 1

                         Standard orientation:
 ---------------------------------------------------------------------
 Center     Atomic      Atomic             Coordinates (Angstroms)
 Number     Number       Type             X           Y           Z
 ---------------------------------------------------------------------
      1          6           0        0.669871    0.016997    0.007805
      2          8           0       -0.741169   -0.151941   -0.000164
      3          1           0        1.084834    0.495060    0.804918
      4          1           0        0.969000    0.629755   -0.804527
      5          1           0        1.059466   -0.941409   -0.080083
      6          1           0       -1.203175    0.930145    0.034173
 ---------------------------------------------------------------------

 SCF Done:  E(RB2PLYPD3) =  -115.512449633     A.U. after   11 cycles
 E2(B2PLYPD3) =    -0.1510334996D+00 E(B2PLYPD3) =    -0.11566348313298D+03

 The electronic state is 1-A.
 Alpha  occ. eigenvalues --  -19.74055 -10.63619  -1.12950  -0.78806  -0.56958
 Alpha  occ. eigenvalues --   -0.51544  -0.49236  -0.41004  -0.34821
 Alpha virt. eigenvalues --    0.02714   0.07710   0.12408   0.12919   0.15088
 Alpha virt. eigenvalues --    0.17286   0.18051   0.27129   0.29713   0.33150
 Alpha virt. eigenvalues --    0.34476   0.38814   0.39382   0.41990   0.44666

 Mulliken charges:
               1
     1  C    0.088383
     2  O   -0.491679
     3  H    0.044683
     4  H    0.037392
     5  H    0.069598
     6  H    0.251624
 Sum of Mulliken charges =   0.00000

 Dipole moment (field-independent basis, Debye):
    X=              0.9020    Y=              1.6822    Z=              0.0770  Tot=              1.9103
 Quadrupole moment (field-independent basis, Debye-Ang):
   XX=            -12.9099   YY=            -11.7053   ZZ=            -14.0804
   XY=             -2.3962   XZ=              0.0500   YZ=              0.0938

 Normal termination of Gaussian 09 at Wed Aug 26 22:24:26 2020.
