 Gaussian 09, Revision D.01,
 Gaussian 09:  ES64L-G09RevD.01 24-Apr-2013

 --------------------
 #p B2PLYPD3/Def2QZVP
 --------------------

 --------
 methanol
 --------
 Symbolic Z-matrix:
 Charge =  0 Multiplicity = 1

                         Standard orientation:
 ---------------------------------------------------------------------
 Center     Atomic      Atomic             Coordinates (Angstroms)
 Number     Number       Type             X           Y           Z
 ---------------------------------------------------------------------
      1          6           0        0.690840   -0.003271    0.003838
      2          8           0       -0.762442   -0.070541   -0.035849
      3          1           0        1.029431    0.076436    1.090499
      4          1           0        1.010970    0.981632   -0.637501
      5          1           0        1.024043   -0.943786   -0.432386
      6          1           0       -1.109948    0.469677    0.243152
 ---------------------------------------------------------------------

 SCF Done:  E(RB2PLYPD3) =  -115.418366126     A.U. after   11 cycles
 E2(B2PLYPD3) =    -0.1442514868D+00 E(B2PLYPD3) =    -0.11556261761245D+03

 The electronic state is 1-A.
 Alpha  occ. eigenvalues --  -19.69255 -10.68505  -1.22885  -0.81294  -0.60513
 Alpha  occ. eigenvalues --   -0.50933  -0.50572  -0.41155  -0.35781
 Alpha virt. eigenvalues --    0.05318   0.09128   0.11456   0.12170   0.14196
 Alpha virt. eigenvalues --    0.16698   0.17596   0.28764   0.30940   0.32738
 Alpha virt. eigenvalues --    0.36038   0.38312   0.39971   0.40661   0.42381

 Mulliken charges:
               1
     1  C    0.059898
     2  O   -0.271877
     3  H    0.056124
     4  H    0.046490
     5  H    0.094618
     6  H    0.014746
 Sum of Mulliken charges =   0.00000

 Dipole moment (field-independent basis, Debye):
    X=              1.0450    Y=              0.9961    Z=              0.6020  Tot=              1.5642
 Quadrupole moment (field-independent basis, Debye-Ang):
   XX=            -13.1761   YY=            -12.5960   ZZ=            -13.3211
   XY=             -1.8553   XZ=             -0.8030   YZ=              0.4011

 Normal termination of Gaussian 09 at Wed Aug 26 15:34:08 2020.
