 Gaussian 09, Revision D.01,
 Gaussian 09:  ES64L-G09RevD.01 24-Apr-2013

 --------------------
 #p B2PLYPD3/Def2QZVP
 --------------------

 --------
 methanol
 --------
 Symbolic Z-matrix:
 Charge =  0 Multiplicity = 1

                         Standard orientation:
 ---------------------------------------------------------------------
 Center     Atomic      Atomic             Coordinates (Angstroms)
 Number     Number       Type             X           Y           Z
 ---------------------------------------------------------------------
      1          6           0        0.652076   -0.002996    0.000431
      2          8           0       -0.743250    0.080135   -0.015485
      3          1           0        1.020970   -0.840971   -0.755621
      4          1           0        1.041020   -0.215819    1.102466
      5          1           0        1.035599    0.968231   -0.338142
      6          1           0       -1.064044   -0.534551    0.112595
 ---------------------------------------------------------------------

 SCF Done:  E(RB2PLYPD3) =  -115.428307568     A.U. after   11 cycles
 E2(B2PLYPD3) =    -0.1437720441D+00 E(B2PLYPD3) =    -0.11557207961229D+03

 The electronic state is 1-A.
 Alpha  occ. eigenvalues --  -19.70012 -10.68135  -1.24701  -0.81419  -0.61437
 Alpha  occ. eigenvalues --   -0.51517  -0.51280  -0.41087  -0.35710
 Alpha virt. eigenvalues --    0.05375   0.09226   0.11635   0.12292   0.14449
 Alpha virt. eigenvalues --    0.16958   0.17830   0.28527   0.32569   0.33592
 Alpha virt. eigenvalues --    0.36076   0.38398   0.39965   0.40866   0.42954

 Mulliken charges:
               1
     1  C    0.049077
     2  O   -0.244061
     3  H    0.038884
     4  H    0.044207
     5  H    0.085504
     6  H    0.026389
 Sum of Mulliken charges =   0.00000

 Dipole moment (field-independent basis, Debye):
    X=              0.8362    Y=             -1.1273    Z=              0.2092  Tot=              1.4191
 Quadrupole moment (field-independent basis, Debye-Ang):
   XX=            -13.2753   YY=            -12.5802   ZZ=            -13.5007
   XY=              1.9540   XZ=             -0.4469   YZ=             -0.2176

 Normal termination of Gaussian 09 at Wed Aug 26 11:36:01 2020.
