 Gaussian 09, Revision D.01,
 Gaussian 09:  ES64L-G09RevD.01 24-Apr-2013

 --------------------
 #p B2PLYPD3/Def2QZVP
 --------------------

 --------
 methanol
 --------
 Symbolic Z-matrix:
 Charge =  0 Multiplicity = 1

                         Standard orientation:
 ---------------------------------------------------------------------
 Center     Atomic      Atomic             Coordinates (Angstroms)
 Number     Number       Type             X           Y           Z
 ---------------------------------------------------------------------
      1          6           0       -0.677728   -0.024579    0.005472
      2          8           0        0.753949    0.109847   -0.002501
      3          1           0       -1.019014   -0.512437    0.906204
      4          1           0       -1.027828   -0.584782   -0.883032
      5          1           0       -1.065577    1.041911   -0.042688
      6          1           0        1.147193   -0.675996    0.006695
 ---------------------------------------------------------------------

 SCF Done:  E(RB2PLYPD3) =  -115.544564918     A.U. after   10 cycles
 E2(B2PLYPD3) =    -0.1462049259D+00 E(B2PLYPD3) =    -0.11569076984382D+03

 The electronic state is 1-A.
 Alpha  occ. eigenvalues --  -19.71557 -10.66477  -1.17317  -0.79196  -0.59531
 Alpha  occ. eigenvalues --   -0.51845  -0.49195  -0.41036  -0.35680
 Alpha virt. eigenvalues --    0.05283   0.08517   0.12077   0.12302   0.14791
 Alpha virt. eigenvalues --    0.17012   0.17925   0.29100   0.32624   0.33376
 Alpha virt. eigenvalues --    0.37374   0.38105   0.39721   0.40836   0.42980

 Mulliken charges:
               1
     1  C    0.068878
     2  O   -0.431932
     3  H    0.056629
     4  H    0.051246
     5  H    0.071716
     6  H    0.183464
 Sum of Mulliken charges =   0.00000

 Dipole moment (field-independent basis, Debye):
    X=             -0.9208    Y=             -1.4571    Z=              0.0378  Tot=              1.7240
 Quadrupole moment (field-independent basis, Debye-Ang):
   XX=            -13.0031   YY=            -12.3045   ZZ=            -13.7057
   XY=             -2.1191   XZ=              0.0094   YZ=             -0.0394

 Normal termination of Gaussian 09 at Thu Aug 27 00:09:17 2020.
