 Gaussian 09, Revision D.01,
 Gaussian 09:  ES64L-G09RevD.01 24-Apr-2013

 --------------------
 #p B2PLYPD3/Def2QZVP
 --------------------

 --------
 methanol
 --------
 Symbolic Z-matrix:
 Charge =  0 Multiplicity = 1

                         Standard orientation:
 ---------------------------------------------------------------------
 Center     Atomic      Atomic             Coordinates (Angstroms)
 Number     Number       Type             X           Y           Z
 ---------------------------------------------------------------------
      1          6           0        0.654347   -0.019341   -0.006531
      2          8           0       -0.725077   -0.161926    0.009377
      3          1           0        1.064895    0.535680    0.839287
      4          1           0        0.926544    0.576041   -0.826393
      5          1           0        0.989850   -0.780201   -0.048627
      6          1           0       -1.106753    1.079939   -0.000095
 ---------------------------------------------------------------------

 SCF Done:  E(RB2PLYPD3) =  -115.419689290     A.U. after   11 cycles
 E2(B2PLYPD3) =    -0.1530046057D+00 E(B2PLYPD3) =    -0.11557269389619D+03

 The electronic state is 1-A.
 Alpha  occ. eigenvalues --  -19.74640 -10.61672  -1.13644  -0.80366  -0.57927
 Alpha  occ. eigenvalues --   -0.51457  -0.50644  -0.40896  -0.34175
 Alpha virt. eigenvalues --    0.00338   0.07801   0.12651   0.12961   0.14903
 Alpha virt. eigenvalues --    0.17724   0.17985   0.24194   0.29597   0.32751
 Alpha virt. eigenvalues --    0.35182   0.37871   0.40698   0.42671   0.44149

 Mulliken charges:
               1
     1  C    0.013250
     2  O   -0.476371
     3  H    0.034982
     4  H    0.035359
     5  H    0.142338
     6  H    0.250443
 Sum of Mulliken charges =   0.00000

 Dipole moment (field-independent basis, Debye):
    X=              0.9789    Y=              1.6431    Z=             -0.0767  Tot=              1.9142
 Quadrupole moment (field-independent basis, Debye-Ang):
   XX=            -13.4460   YY=            -11.2243   ZZ=            -13.9984
   XY=             -2.4576   XZ=              0.0396   YZ=             -0.0122

 Normal termination of Gaussian 09 at Wed Aug 26 19:50:22 2020.
