 Gaussian 09, Revision D.01,
 Gaussian 09:  ES64L-G09RevD.01 24-Apr-2013

 --------------------
 #p B2PLYPD3/Def2QZVP
 --------------------

 --------
 methanol
 --------
 Symbolic Z-matrix:
 Charge =  0 Multiplicity = 1

                         Standard orientation:
 ---------------------------------------------------------------------
 Center     Atomic      Atomic             Coordinates (Angstroms)
 Number     Number       Type             X           Y           Z
 ---------------------------------------------------------------------
      1          6           0       -0.668625    0.018333    0.000531
      2          8           0        0.741904   -0.137116   -0.005306
      3          1           0       -1.073018    0.532357   -0.847095
      4          1           0       -1.003973    0.530647    0.860888
      5          1           0       -1.019351   -0.949073    0.018652
      6          1           0        1.172859    0.873002    0.006818
 ---------------------------------------------------------------------

 SCF Done:  E(RB2PLYPD3) =  -115.533056536     A.U. after   11 cycles
 E2(B2PLYPD3) =    -0.1495345396D+00 E(B2PLYPD3) =    -0.11568259107580D+03

 The electronic state is 1-A.
 Alpha  occ. eigenvalues --  -19.73530 -10.64071  -1.13893  -0.78674  -0.57412
 Alpha  occ. eigenvalues --   -0.51797  -0.49528  -0.41137  -0.35087
 Alpha virt. eigenvalues --    0.03817   0.07909   0.12545   0.12659   0.15078
 Alpha virt. eigenvalues --    0.17074   0.18235   0.28897   0.30486   0.33444
 Alpha virt. eigenvalues --    0.34258   0.38913   0.39896   0.41636   0.44074

 Mulliken charges:
               1
     1  C    0.076233
     2  O   -0.485635
     3  H    0.045308
     4  H    0.044983
     5  H    0.071119
     6  H    0.247991
 Sum of Mulliken charges =   0.00000

 Dipole moment (field-independent basis, Debye):
    X=             -0.8902    Y=              1.5969    Z=              0.0396  Tot=              1.8287
 Quadrupole moment (field-independent basis, Debye-Ang):
   XX=            -13.0039   YY=            -11.9055   ZZ=            -13.8902
   XY=              2.3251   XZ=              0.0579   YZ=              0.0091

 Normal termination of Gaussian 09 at Wed Aug 26 23:13:53 2020.
