 Gaussian 09, Revision D.01,
 Gaussian 09:  ES64L-G09RevD.01 24-Apr-2013

 --------------------
 #p B2PLYPD3/Def2QZVP
 --------------------

 --------
 methanol
 --------
 Symbolic Z-matrix:
 Charge =  0 Multiplicity = 1

                         Standard orientation:
 ---------------------------------------------------------------------
 Center     Atomic      Atomic             Coordinates (Angstroms)
 Number     Number       Type             X           Y           Z
 ---------------------------------------------------------------------
      1          6           0        0.662008    0.042735    0.001359
      2          8           0       -0.744923   -0.169155   -0.007357
      3          1           0        0.958371    0.452609    0.839403
      4          1           0        1.012823    0.619867   -0.747866
      5          1           0        1.214047   -0.916361   -0.060187
      6          1           0       -1.197906    0.940709    0.019347
 ---------------------------------------------------------------------

 SCF Done:  E(RB2PLYPD3) =  -115.499504730     A.U. after   11 cycles
 E2(B2PLYPD3) =    -0.1513694797D+00 E(B2PLYPD3) =    -0.11565087420986D+03

 The electronic state is 1-A.
 Alpha  occ. eigenvalues --  -19.74329 -10.63292  -1.12792  -0.79277  -0.55617
 Alpha  occ. eigenvalues --   -0.53209  -0.49016  -0.40207  -0.35366
 Alpha virt. eigenvalues --    0.02356   0.07510   0.12535   0.12922   0.14748
 Alpha virt. eigenvalues --    0.17966   0.18272   0.26206   0.29609   0.33397
 Alpha virt. eigenvalues --    0.34031   0.38350   0.40195   0.43140   0.43430

 Mulliken charges:
               1
     1  C    0.096439
     2  O   -0.494330
     3  H    0.048432
     4  H    0.042422
     5  H    0.053475
     6  H    0.253562
 Sum of Mulliken charges =   0.00000

 Dipole moment (field-independent basis, Debye):
    X=              0.9428    Y=              1.7909    Z=              0.0751  Tot=              2.0253
 Quadrupole moment (field-independent basis, Debye-Ang):
   XX=            -12.8225   YY=            -11.8880   ZZ=            -13.9500
   XY=             -2.4428   XZ=             -0.0680   YZ=              0.0154

 Normal termination of Gaussian 09 at Wed Aug 26 13:59:23 2020.
