 Gaussian 09, Revision D.01,
 Gaussian 09:  ES64L-G09RevD.01 24-Apr-2013

 --------------------
 #p B2PLYPD3/Def2QZVP
 --------------------

 --------
 methanol
 --------
 Symbolic Z-matrix:
 Charge =  0 Multiplicity = 1

                         Standard orientation:
 ---------------------------------------------------------------------
 Center     Atomic      Atomic             Coordinates (Angstroms)
 Number     Number       Type             X           Y           Z
 ---------------------------------------------------------------------
      1          6           0       -0.693043    0.024333   -0.018134
      2          8           0        0.771229   -0.061670   -0.038345
      3          1           0       -0.952417    1.120331   -0.163858
      4          1           0       -1.057374   -0.457323    1.084191
      5          1           0       -1.025773   -0.677327   -0.813944
      6          1           0        1.023989    0.361682    0.309175
 ---------------------------------------------------------------------

 SCF Done:  E(RB2PLYPD3) =  -115.218780822     A.U. after   11 cycles
 E2(B2PLYPD3) =    -0.1437555957D+00 E(B2PLYPD3) =    -0.11536253641798D+03

 The electronic state is 1-A.
 Alpha  occ. eigenvalues --  -19.68364 -10.69289  -1.27921  -0.81814  -0.61193
 Alpha  occ. eigenvalues --   -0.51427  -0.49967  -0.42205  -0.36036
 Alpha virt. eigenvalues --    0.05153   0.09329   0.11065   0.11916   0.13991
 Alpha virt. eigenvalues --    0.16590   0.17583   0.28283   0.30137   0.32131
 Alpha virt. eigenvalues --    0.35080   0.38143   0.38997   0.40899   0.43257

 Mulliken charges:
               1
     1  C    0.057523
     2  O   -0.189287
     3  H    0.063210
     4  H    0.044366
     5  H    0.094323
     6  H   -0.070134
 Sum of Mulliken charges =   0.00000

 Dipole moment (field-independent basis, Debye):
    X=             -1.2134    Y=              0.9570    Z=              0.5883  Tot=              1.6535
 Quadrupole moment (field-independent basis, Debye-Ang):
   XX=            -13.5426   YY=            -12.5722   ZZ=            -13.0931
   XY=              1.3716   XZ=              1.2858   YZ=              0.4820

 Normal termination of Gaussian 09 at Wed Aug 26 20:16:38 2020.
