 Gaussian 09, Revision D.01,
 Gaussian 09:  ES64L-G09RevD.01 24-Apr-2013

 --------------------
 #p B2PLYPD3/Def2QZVP
 --------------------

 --------
 methanol
 --------
 Symbolic Z-matrix:
 Charge =  0 Multiplicity = 1

                         Standard orientation:
 ---------------------------------------------------------------------
 Center     Atomic      Atomic             Coordinates (Angstroms)
 Number     Number       Type             X           Y           Z
 ---------------------------------------------------------------------
      1          6           0        0.678335    0.030127    0.019653
      2          8           0       -0.733711   -0.162234   -0.016932
      3          1           0        0.959067    0.370089    0.865526
      4          1           0        1.050077    0.674065   -0.762902
      5          1           0        1.056841   -0.880379   -0.136069
      6          1           0       -1.266311    0.953337    0.050983
 ---------------------------------------------------------------------

 SCF Done:  E(RB2PLYPD3) =  -115.486172016     A.U. after   11 cycles
 E2(B2PLYPD3) =    -0.1519462291D+00 E(B2PLYPD3) =    -0.11563811824478D+03

 The electronic state is 1-A.
 Alpha  occ. eigenvalues --  -19.74083 -10.62571  -1.12140  -0.79486  -0.56170
 Alpha  occ. eigenvalues --   -0.52724  -0.49154  -0.40127  -0.35058
 Alpha virt. eigenvalues --    0.01893   0.07672   0.12677   0.12854   0.14916
 Alpha virt. eigenvalues --    0.17149   0.18298   0.25616   0.29493   0.33428
 Alpha virt. eigenvalues --    0.34170   0.38691   0.40086   0.42498   0.45002

 Mulliken charges:
               1
     1  C    0.090116
     2  O   -0.502813
     3  H    0.054327
     4  H    0.039990
     5  H    0.067807
     6  H    0.250573
 Sum of Mulliken charges =   0.00000

 Dipole moment (field-independent basis, Debye):
    X=              0.9043    Y=              1.6470    Z=              0.1810  Tot=              1.8877
 Quadrupole moment (field-independent basis, Debye-Ang):
   XX=            -12.6818   YY=            -11.8375   ZZ=            -13.8333
   XY=             -2.5532   XZ=             -0.1248   YZ=              0.1503

 Normal termination of Gaussian 09 at Wed Aug 26 12:56:06 2020.
