 Gaussian 09, Revision D.01,
 Gaussian 09:  ES64L-G09RevD.01 24-Apr-2013

 --------------------
 #p B2PLYPD3/Def2QZVP
 --------------------

 --------
 methanol
 --------
 Symbolic Z-matrix:
 Charge =  0 Multiplicity = 1

                         Standard orientation:
 ---------------------------------------------------------------------
 Center     Atomic      Atomic             Coordinates (Angstroms)
 Number     Number       Type             X           Y           Z
 ---------------------------------------------------------------------
      1          6           0        0.651130    0.001728    0.004699
      2          8           0       -0.755891    0.064902   -0.011699
      3          1           0        1.256761   -0.711934   -0.803709
      4          1           0        1.021569   -0.365275    1.049922
      5          1           0        0.951883    1.102215   -0.170770
      6          1           0       -1.089867   -0.554589   -0.010050
 ---------------------------------------------------------------------

 SCF Done:  E(RB2PLYPD3) =  -115.416384750     A.U. after   11 cycles
 E2(B2PLYPD3) =    -0.1446173724D+00 E(B2PLYPD3) =    -0.11556100212236D+03

 The electronic state is 1-A.
 Alpha  occ. eigenvalues --  -19.70498 -10.69112  -1.24659  -0.81136  -0.61691
 Alpha  occ. eigenvalues --   -0.50950  -0.49748  -0.41104  -0.35740
 Alpha virt. eigenvalues --    0.05286   0.08659   0.11580   0.11997   0.15030
 Alpha virt. eigenvalues --    0.16568   0.18047   0.28828   0.31460   0.33946
 Alpha virt. eigenvalues --    0.35032   0.38147   0.38554   0.40600   0.42134

 Mulliken charges:
               1
     1  C    0.034426
     2  O   -0.230948
     3  H    0.038018
     4  H    0.051201
     5  H    0.082172
     6  H    0.025131
 Sum of Mulliken charges =   0.00000

 Dipole moment (field-independent basis, Debye):
    X=              0.7819    Y=             -1.1668    Z=              0.0543  Tot=              1.4056
 Quadrupole moment (field-independent basis, Debye-Ang):
   XX=            -13.1169   YY=            -12.5001   ZZ=            -13.8434
   XY=              1.7428   XZ=             -0.1200   YZ=             -0.0839

 Normal termination of Gaussian 09 at Wed Aug 26 20:18:49 2020.
