 Gaussian 09, Revision D.01,
 Gaussian 09:  ES64L-G09RevD.01 24-Apr-2013

 --------------------
 #p B2PLYPD3/Def2QZVP
 --------------------

 --------
 methanol
 --------
 Symbolic Z-matrix:
 Charge =  0 Multiplicity = 1

                         Standard orientation:
 ---------------------------------------------------------------------
 Center     Atomic      Atomic             Coordinates (Angstroms)
 Number     Number       Type             X           Y           Z
 ---------------------------------------------------------------------
      1          6           0        0.673533   -0.026718   -0.004673
      2          8           0       -0.755955    0.113876    0.000694
      3          1           0        1.013628   -0.564122   -0.880022
      4          1           0        1.056516   -0.538704    0.891210
      5          1           0        1.104467    1.033581   -0.005844
      6          1           0       -1.168172   -0.681456    0.017143
 ---------------------------------------------------------------------

 SCF Done:  E(RB2PLYPD3) =  -115.546912722     A.U. after   10 cycles
 E2(B2PLYPD3) =    -0.1464988826D+00 E(B2PLYPD3) =    -0.11569341160414D+03

 The electronic state is 1-A.
 Alpha  occ. eigenvalues --  -19.71883 -10.66507  -1.16936  -0.79061  -0.59469
 Alpha  occ. eigenvalues --   -0.51685  -0.49187  -0.40854  -0.35680
 Alpha virt. eigenvalues --    0.05248   0.08331   0.12116   0.12382   0.14824
 Alpha virt. eigenvalues --    0.17163   0.18012   0.29109   0.32722   0.33460
 Alpha virt. eigenvalues --    0.36664   0.37984   0.39760   0.40717   0.43053

 Mulliken charges:
               1
     1  C    0.069212
     2  O   -0.440599
     3  H    0.055018
     4  H    0.051609
     5  H    0.069470
     6  H    0.195289
 Sum of Mulliken charges =   0.00000

 Dipole moment (field-independent basis, Debye):
    X=              0.8889    Y=             -1.4791    Z=              0.0161  Tot=              1.7257
 Quadrupole moment (field-independent basis, Debye-Ang):
   XX=            -12.8414   YY=            -12.3641   ZZ=            -13.7823
   XY=              2.1703   XZ=             -0.0195   YZ=              0.0093

 Normal termination of Gaussian 09 at Wed Aug 26 13:36:06 2020.
