 Gaussian 09, Revision D.01,
 Gaussian 09:  ES64L-G09RevD.01 24-Apr-2013

 --------------------
 #p B2PLYPD3/Def2QZVP
 --------------------

 --------
 methanol
 --------
 Symbolic Z-matrix:
 Charge =  0 Multiplicity = 1

                         Standard orientation:
 ---------------------------------------------------------------------
 Center     Atomic      Atomic             Coordinates (Angstroms)
 Number     Number       Type             X           Y           Z
 ---------------------------------------------------------------------
      1          6           0        0.682045   -0.035900    0.000823
      2          8           0       -0.746061    0.113521   -0.001508
      3          1           0        1.086984   -0.544244   -0.817739
      4          1           0        1.034706   -0.466729    0.872115
      5          1           0        0.907122    1.100023   -0.039005
      6          1           0       -1.152595   -0.781815   -0.008243
 ---------------------------------------------------------------------

 SCF Done:  E(RB2PLYPD3) =  -115.540599507     A.U. after   11 cycles
 E2(B2PLYPD3) =    -0.1481362536D+00 E(B2PLYPD3) =    -0.11568873576073D+03

 The electronic state is 1-A.
 Alpha  occ. eigenvalues --  -19.72598 -10.65202  -1.15153  -0.78856  -0.59087
 Alpha  occ. eigenvalues --   -0.52654  -0.47536  -0.40821  -0.35765
 Alpha virt. eigenvalues --    0.04792   0.08254   0.11627   0.12687   0.15339
 Alpha virt. eigenvalues --    0.16526   0.18236   0.28957   0.32913   0.33964
 Alpha virt. eigenvalues --    0.35077   0.37035   0.39548   0.42232   0.43507

 Mulliken charges:
               1
     1  C    0.061028
     2  O   -0.463143
     3  H    0.056821
     4  H    0.058900
     5  H    0.064433
     6  H    0.221961
 Sum of Mulliken charges =   0.00000

 Dipole moment (field-independent basis, Debye):
    X=              0.8898    Y=             -1.6111    Z=             -0.0008  Tot=              1.8404
 Quadrupole moment (field-independent basis, Debye-Ang):
   XX=            -13.1493   YY=            -12.0189   ZZ=            -13.7919
   XY=              1.8646   XZ=             -0.0118   YZ=              0.0104

 Normal termination of Gaussian 09 at Wed Aug 26 18:47:19 2020.
