 Gaussian 09, Revision D.01,
 Gaussian 09:  ES64L-G09RevD.01 24-Apr-2013

 --------------------
 #p B2PLYPD3/Def2QZVP
 --------------------

 --------
 methanol
 --------
 Symbolic Z-matrix:
 Charge =  0 Multiplicity = 1

                         Standard orientation:
 ---------------------------------------------------------------------
 Center     Atomic      Atomic             Coordinates (Angstroms)
 Number     Number       Type             X           Y           Z
 ---------------------------------------------------------------------
      1          6           0       -0.669293    0.000384   -0.006570
      2          8           0        0.776671   -0.132213   -0.008406
      3          1           0       -1.201701    0.607040   -0.757654
      4          1           0       -1.105659    0.484157    0.844088
      5          1           0       -1.023132   -0.987178   -0.011933
      6          1           0        1.132886    0.951384    0.032163
 ---------------------------------------------------------------------

 SCF Done:  E(RB2PLYPD3) =  -115.517283547     A.U. after   11 cycles
 E2(B2PLYPD3) =    -0.1518787086D+00 E(B2PLYPD3) =    -0.11566916225579D+03

 The electronic state is 1-A.
 Alpha  occ. eigenvalues --  -19.74797 -10.65175  -1.12831  -0.78547  -0.57006
 Alpha  occ. eigenvalues --   -0.49367  -0.48778  -0.42169  -0.35099
 Alpha virt. eigenvalues --    0.03169   0.07304   0.12086   0.12896   0.15201
 Alpha virt. eigenvalues --    0.17210   0.18343   0.27517   0.29767   0.32529
 Alpha virt. eigenvalues --    0.34067   0.38124   0.38713   0.39790   0.43631

 Mulliken charges:
               1
     1  C    0.073795
     2  O   -0.478914
     3  H    0.040961
     4  H    0.041624
     5  H    0.069994
     6  H    0.252541
 Sum of Mulliken charges =   0.00000

 Dipole moment (field-independent basis, Debye):
    X=             -1.0336    Y=              1.6550    Z=              0.1116  Tot=              1.9544
 Quadrupole moment (field-independent basis, Debye-Ang):
   XX=            -13.0769   YY=            -11.6484   ZZ=            -14.3919
   XY=              2.1349   XZ=              0.0678   YZ=              0.0473

 Normal termination of Gaussian 09 at Wed Aug 26 19:01:22 2020.
