 Gaussian 09, Revision D.01,
 Gaussian 09:  ES64L-G09RevD.01 24-Apr-2013

 --------------------
 #p B2PLYPD3/Def2QZVP
 --------------------

 --------
 methanol
 --------
 Symbolic Z-matrix:
 Charge =  0 Multiplicity = 1

                         Standard orientation:
 ---------------------------------------------------------------------
 Center     Atomic      Atomic             Coordinates (Angstroms)
 Number     Number       Type             X           Y           Z
 ---------------------------------------------------------------------
      1          6           0        0.665412    0.025466   -0.016919
      2          8           0       -0.739885   -0.161009    0.004423
      3          1           0        0.885798    0.549499    0.889478
      4          1           0        1.050310    0.401478   -0.821700
      5          1           0        1.044666   -0.842772    0.079632
      6          1           0       -1.054167    1.027071   -0.081278
 ---------------------------------------------------------------------

 SCF Done:  E(RB2PLYPD3) =  -115.475295008     A.U. after   11 cycles
 E2(B2PLYPD3) =    -0.1522006093D+00 E(B2PLYPD3) =    -0.11562749561706D+03

 The electronic state is 1-A.
 Alpha  occ. eigenvalues --  -19.74291 -10.62012  -1.12978  -0.79928  -0.56348
 Alpha  occ. eigenvalues --   -0.53843  -0.49037  -0.40684  -0.35120
 Alpha virt. eigenvalues --    0.01864   0.07890   0.12292   0.12915   0.14435
 Alpha virt. eigenvalues --    0.17672   0.18540   0.25513   0.29373   0.32766
 Alpha virt. eigenvalues --    0.34612   0.38622   0.40964   0.42910   0.45108

 Mulliken charges:
               1
     1  C    0.088526
     2  O   -0.482576
     3  H    0.043515
     4  H    0.042665
     5  H    0.060610
     6  H    0.247260
 Sum of Mulliken charges =   0.00000

 Dipole moment (field-independent basis, Debye):
    X=              1.1715    Y=              1.6235    Z=             -0.1732  Tot=              2.0095
 Quadrupole moment (field-independent basis, Debye-Ang):
   XX=            -13.5822   YY=            -11.6151   ZZ=            -13.6098
   XY=             -2.3203   XZ=             -0.0863   YZ=             -0.1856

 Normal termination of Gaussian 09 at Wed Aug 26 20:15:22 2020.
