 Gaussian 09, Revision D.01,
 Gaussian 09:  ES64L-G09RevD.01 24-Apr-2013

 --------------------
 #p B2PLYPD3/Def2QZVP
 --------------------

 --------
 methanol
 --------
 Symbolic Z-matrix:
 Charge =  0 Multiplicity = 1

                         Standard orientation:
 ---------------------------------------------------------------------
 Center     Atomic      Atomic             Coordinates (Angstroms)
 Number     Number       Type             X           Y           Z
 ---------------------------------------------------------------------
      1          6           0        0.671748   -0.013122    0.001969
      2          8           0       -0.752537    0.125133   -0.001488
      3          1           0        0.956148   -0.644384   -0.849756
      4          1           0        1.093950   -0.417614    0.906622
      5          1           0        1.038047    0.951422   -0.121027
      6          1           0       -1.098336   -0.811755    0.064254
 ---------------------------------------------------------------------

 SCF Done:  E(RB2PLYPD3) =  -115.547716216     A.U. after   10 cycles
 E2(B2PLYPD3) =    -0.1481091485D+00 E(B2PLYPD3) =    -0.11569582536408D+03

 The electronic state is 1-A.
 Alpha  occ. eigenvalues --  -19.72870 -10.64964  -1.15167  -0.78790  -0.58023
 Alpha  occ. eigenvalues --   -0.51880  -0.49654  -0.41670  -0.35296
 Alpha virt. eigenvalues --    0.04666   0.08188   0.12335   0.12534   0.14808
 Alpha virt. eigenvalues --    0.17224   0.18137   0.29086   0.32574   0.33184
 Alpha virt. eigenvalues --    0.34444   0.38786   0.40136   0.41376   0.44105

 Mulliken charges:
               1
     1  C    0.071742
     2  O   -0.469856
     3  H    0.043690
     4  H    0.049125
     5  H    0.072716
     6  H    0.232584
 Sum of Mulliken charges =   0.00000

 Dipole moment (field-independent basis, Debye):
    X=              0.9987    Y=             -1.5177    Z=              0.1124  Tot=              1.8203
 Quadrupole moment (field-independent basis, Debye-Ang):
   XX=            -13.2720   YY=            -12.0171   ZZ=            -13.7684
   XY=              2.2407   XZ=             -0.0218   YZ=             -0.1086

 Normal termination of Gaussian 09 at Wed Aug 26 14:11:25 2020.
