 Gaussian 09, Revision D.01,
 Gaussian 09:  ES64L-G09RevD.01 24-Apr-2013

 --------------------
 #p B2PLYPD3/Def2QZVP
 --------------------

 --------
 methanol
 --------
 Symbolic Z-matrix:
 Charge =  0 Multiplicity = 1

                         Standard orientation:
 ---------------------------------------------------------------------
 Center     Atomic      Atomic             Coordinates (Angstroms)
 Number     Number       Type             X           Y           Z
 ---------------------------------------------------------------------
      1          6           0       -0.648408   -0.030471    0.006566
      2          8           0        0.751155    0.088988   -0.020057
      3          1           0       -1.009708   -0.368661    1.000127
      4          1           0       -1.045301   -0.711368   -0.843183
      5          1           0       -1.110644    1.087323   -0.144655
      6          1           0        1.046858   -0.536369    0.108770
 ---------------------------------------------------------------------

 SCF Done:  E(RB2PLYPD3) =  -115.424360607     A.U. after   10 cycles
 E2(B2PLYPD3) =    -0.1440211280D+00 E(B2PLYPD3) =    -0.11556838173451D+03

 The electronic state is 1-A.
 Alpha  occ. eigenvalues --  -19.70223 -10.68261  -1.24987  -0.80662  -0.62127
 Alpha  occ. eigenvalues --   -0.52258  -0.49805  -0.40656  -0.36402
 Alpha virt. eigenvalues --    0.05296   0.09198   0.11648   0.11963   0.14569
 Alpha virt. eigenvalues --    0.17162   0.17968   0.28483   0.33034   0.33288
 Alpha virt. eigenvalues --    0.35368   0.38104   0.40153   0.40457   0.42930

 Mulliken charges:
               1
     1  C    0.048627
     2  O   -0.244388
     3  H    0.056487
     4  H    0.051154
     5  H    0.062454
     6  H    0.025665
 Sum of Mulliken charges =   0.00000

 Dipole moment (field-independent basis, Debye):
    X=             -0.8994    Y=             -1.2814    Z=              0.3159  Tot=              1.5971
 Quadrupole moment (field-independent basis, Debye-Ang):
   XX=            -13.2669   YY=            -12.6027   ZZ=            -13.5178
   XY=             -1.8157   XZ=              0.3213   YZ=             -0.1339

 Normal termination of Gaussian 09 at Wed Aug 26 14:48:08 2020.
