 Gaussian 09, Revision D.01,
 Gaussian 09:  ES64L-G09RevD.01 24-Apr-2013

 --------------------
 #p B2PLYPD3/Def2QZVP
 --------------------

 --------
 methanol
 --------
 Symbolic Z-matrix:
 Charge =  0 Multiplicity = 1

                         Standard orientation:
 ---------------------------------------------------------------------
 Center     Atomic      Atomic             Coordinates (Angstroms)
 Number     Number       Type             X           Y           Z
 ---------------------------------------------------------------------
      1          6           0       -0.666214   -0.011015   -0.009621
      2          8           0        0.755576    0.092033    0.001242
      3          1           0       -1.058849   -0.572799    0.905939
      4          1           0       -0.990832   -0.577934   -0.902733
      5          1           0       -1.052144    1.085243    0.013380
      6          1           0        1.054504   -0.604684    0.031206
 ---------------------------------------------------------------------

 SCF Done:  E(RB2PLYPD3) =  -115.486613389     A.U. after   10 cycles
 E2(B2PLYPD3) =    -0.1446173860D+00 E(B2PLYPD3) =    -0.11563123077489D+03

 The electronic state is 1-A.
 Alpha  occ. eigenvalues --  -19.70505 -10.67556  -1.21971  -0.79985  -0.61264
 Alpha  occ. eigenvalues --   -0.51589  -0.49558  -0.41795  -0.35863
 Alpha virt. eigenvalues --    0.05333   0.09048   0.11759   0.12105   0.14879
 Alpha virt. eigenvalues --    0.16993   0.17571   0.28912   0.32464   0.33159
 Alpha virt. eigenvalues --    0.37039   0.38573   0.39615   0.40513   0.42422

 Mulliken charges:
               1
     1  C    0.061644
     2  O   -0.310992
     3  H    0.044434
     4  H    0.053800
     5  H    0.075200
     6  H    0.075913
 Sum of Mulliken charges =   0.00000

 Dipole moment (field-independent basis, Debye):
    X=             -0.9857    Y=             -1.3464    Z=              0.0273  Tot=              1.6689
 Quadrupole moment (field-independent basis, Debye-Ang):
   XX=            -13.3561   YY=            -12.2245   ZZ=            -13.7085
   XY=             -1.8989   XZ=              0.0454   YZ=              0.0199

 Normal termination of Gaussian 09 at Wed Aug 26 14:29:03 2020.
