 Gaussian 09, Revision D.01,
 Gaussian 09:  ES64L-G09RevD.01 24-Apr-2013

 --------------------
 #p B2PLYPD3/Def2QZVP
 --------------------

 --------
 methanol
 --------
 Symbolic Z-matrix:
 Charge =  0 Multiplicity = 1

                         Standard orientation:
 ---------------------------------------------------------------------
 Center     Atomic      Atomic             Coordinates (Angstroms)
 Number     Number       Type             X           Y           Z
 ---------------------------------------------------------------------
      1          6           0       -0.652583   -0.005561   -0.000068
      2          8           0        0.757161   -0.120875   -0.015221
      3          1           0       -1.071183    0.665599   -0.837704
      4          1           0       -1.039962    0.434885    0.937567
      5          1           0       -1.096567   -0.916702   -0.067443
      6          1           0        1.065924    0.816586    0.089757
 ---------------------------------------------------------------------

 SCF Done:  E(RB2PLYPD3) =  -115.544042041     A.U. after   10 cycles
 E2(B2PLYPD3) =    -0.1480795405D+00 E(B2PLYPD3) =    -0.11569212158186D+03

 The electronic state is 1-A.
 Alpha  occ. eigenvalues --  -19.73363 -10.65570  -1.16183  -0.78663  -0.58336
 Alpha  occ. eigenvalues --   -0.51106  -0.50642  -0.41813  -0.35088
 Alpha virt. eigenvalues --    0.04609   0.08063   0.12201   0.12696   0.14875
 Alpha virt. eigenvalues --    0.17717   0.18174   0.29104   0.32735   0.33035
 Alpha virt. eigenvalues --    0.34277   0.38284   0.39637   0.41141   0.44130

 Mulliken charges:
               1
     1  C    0.070558
     2  O   -0.453305
     3  H    0.032920
     4  H    0.038237
     5  H    0.075320
     6  H    0.236270
 Sum of Mulliken charges =   0.00000

 Dipole moment (field-independent basis, Debye):
    X=             -0.9536    Y=              1.4536    Z=              0.2195  Tot=              1.7523
 Quadrupole moment (field-independent basis, Debye-Ang):
   XX=            -13.2961   YY=            -12.0681   ZZ=            -13.9501
   XY=              2.2871   XZ=              0.1951   YZ=              0.1541

 Normal termination of Gaussian 09 at Wed Aug 26 15:33:37 2020.
