 Gaussian 09, Revision D.01,
 Gaussian 09:  ES64L-G09RevD.01 24-Apr-2013

 --------------------
 #p B2PLYPD3/Def2QZVP
 --------------------

 --------
 methanol
 --------
 Symbolic Z-matrix:
 Charge =  0 Multiplicity = 1

                         Standard orientation:
 ---------------------------------------------------------------------
 Center     Atomic      Atomic             Coordinates (Angstroms)
 Number     Number       Type             X           Y           Z
 ---------------------------------------------------------------------
      1          6           0       -0.668815    0.020336   -0.007235
      2          8           0        0.743401   -0.134095   -0.002135
      3          1           0       -1.002677    0.548070   -0.856041
      4          1           0       -1.056021    0.503508    0.868466
      5          1           0       -1.023667   -0.955975    0.005864
      6          1           0        1.148051    0.855143    0.042202
 ---------------------------------------------------------------------

 SCF Done:  E(RB2PLYPD3) =  -115.538670131     A.U. after   11 cycles
 E2(B2PLYPD3) =    -0.1490458979D+00 E(B2PLYPD3) =    -0.11568771602897D+03

 The electronic state is 1-A.
 Alpha  occ. eigenvalues --  -19.73316 -10.64211  -1.14258  -0.78709  -0.57603
 Alpha  occ. eigenvalues --   -0.52177  -0.49366  -0.41216  -0.35202
 Alpha virt. eigenvalues --    0.04126   0.08015   0.12518   0.12580   0.15014
 Alpha virt. eigenvalues --    0.17101   0.18232   0.29032   0.31272   0.33476
 Alpha virt. eigenvalues --    0.34165   0.38871   0.39961   0.41878   0.44117

 Mulliken charges:
               1
     1  C    0.075717
     2  O   -0.482630
     3  H    0.048720
     4  H    0.043715
     5  H    0.070080
     6  H    0.244398
 Sum of Mulliken charges =   0.00000

 Dipole moment (field-independent basis, Debye):
    X=             -0.9212    Y=              1.5839    Z=              0.0629  Tot=              1.8334
 Quadrupole moment (field-independent basis, Debye-Ang):
   XX=            -13.1025   YY=            -11.9425   ZZ=            -13.8205
   XY=              2.2834   XZ=              0.0571   YZ=              0.0068

 Normal termination of Gaussian 09 at Thu Aug 27 00:15:24 2020.
