 Gaussian 09, Revision D.01,
 Gaussian 09:  ES64L-G09RevD.01 24-Apr-2013

 --------------------
 #p B2PLYPD3/Def2QZVP
 --------------------

 --------
 methanol
 --------
 Symbolic Z-matrix:
 Charge =  0 Multiplicity = 1

                         Standard orientation:
 ---------------------------------------------------------------------
 Center     Atomic      Atomic             Coordinates (Angstroms)
 Number     Number       Type             X           Y           Z
 ---------------------------------------------------------------------
      1          6           0       -0.670505   -0.035321    0.002274
      2          8           0        0.738100    0.138346    0.000218
      3          1           0       -1.009103   -0.499295    0.869330
      4          1           0       -0.998516   -0.556712   -0.846007
      5          1           0       -1.074242    0.972655   -0.038170
      6          1           0        1.200090   -0.811491   -0.000540
 ---------------------------------------------------------------------

 SCF Done:  E(RB2PLYPD3) =  -115.541328132     A.U. after   11 cycles
 E2(B2PLYPD3) =    -0.1486015829D+00 E(B2PLYPD3) =    -0.11568992971444D+03

 The electronic state is 1-A.
 Alpha  occ. eigenvalues --  -19.73006 -10.64324  -1.14264  -0.78715  -0.57563
 Alpha  occ. eigenvalues --   -0.52762  -0.49247  -0.40530  -0.35288
 Alpha virt. eigenvalues --    0.04316   0.07996   0.12469   0.12626   0.14948
 Alpha virt. eigenvalues --    0.17163   0.18195   0.29136   0.31776   0.33545
 Alpha virt. eigenvalues --    0.33997   0.38773   0.39813   0.42506   0.44360

 Mulliken charges:
               1
     1  C    0.078020
     2  O   -0.487390
     3  H    0.051408
     4  H    0.048723
     5  H    0.065559
     6  H    0.243680
 Sum of Mulliken charges =   0.00000

 Dipole moment (field-independent basis, Debye):
    X=             -0.8419    Y=             -1.6076    Z=              0.0012  Tot=              1.8147
 Quadrupole moment (field-independent basis, Debye-Ang):
   XX=            -12.8388   YY=            -12.1259   ZZ=            -13.7647
   XY=             -2.3448   XZ=             -0.0095   YZ=             -0.0090

 Normal termination of Gaussian 09 at Wed Aug 26 10:23:38 2020.
