 Gaussian 09, Revision D.01,
 Gaussian 09:  ES64L-G09RevD.01 24-Apr-2013

 --------------------
 #p B2PLYPD3/Def2QZVP
 --------------------

 --------
 methanol
 --------
 Symbolic Z-matrix:
 Charge =  0 Multiplicity = 1

                         Standard orientation:
 ---------------------------------------------------------------------
 Center     Atomic      Atomic             Coordinates (Angstroms)
 Number     Number       Type             X           Y           Z
 ---------------------------------------------------------------------
      1          6           0        0.651252    0.019991    0.020167
      2          8           0       -0.741615   -0.152864   -0.007550
      3          1           0        1.158392    0.410088    0.766530
      4          1           0        1.034336    0.683753   -0.763701
      5          1           0        1.034898   -0.963896   -0.133152
      6          1           0       -1.202216    0.973021    0.069721
 ---------------------------------------------------------------------

 SCF Done:  E(RB2PLYPD3) =  -115.493603972     A.U. after   11 cycles
 E2(B2PLYPD3) =    -0.1522412107D+00 E(B2PLYPD3) =    -0.11564584518301D+03

 The electronic state is 1-A.
 Alpha  occ. eigenvalues --  -19.74959 -10.63821  -1.13517  -0.78905  -0.57228
 Alpha  occ. eigenvalues --   -0.50996  -0.49079  -0.40698  -0.34824
 Alpha virt. eigenvalues --    0.01913   0.07469   0.12178   0.13157   0.15358
 Alpha virt. eigenvalues --    0.17186   0.18492   0.25643   0.29654   0.33191
 Alpha virt. eigenvalues --    0.35016   0.37919   0.38156   0.41679   0.45499

 Mulliken charges:
               1
     1  C    0.080724
     2  O   -0.469449
     3  H    0.047920
     4  H    0.027266
     5  H    0.061049
     6  H    0.252490
 Sum of Mulliken charges =   0.00000

 Dipole moment (field-independent basis, Debye):
    X=              0.8245    Y=              1.7036    Z=              0.2089  Tot=              1.9041
 Quadrupole moment (field-independent basis, Debye-Ang):
   XX=            -12.8569   YY=            -11.6942   ZZ=            -14.3019
   XY=             -2.2974   XZ=              0.0559   YZ=              0.1973

 Normal termination of Gaussian 09 at Wed Aug 26 23:56:23 2020.
