 Gaussian 09, Revision D.01,
 Gaussian 09:  ES64L-G09RevD.01 24-Apr-2013

 --------------------
 #p B2PLYPD3/Def2QZVP
 --------------------

 --------
 methanol
 --------
 Symbolic Z-matrix:
 Charge =  0 Multiplicity = 1

                         Standard orientation:
 ---------------------------------------------------------------------
 Center     Atomic      Atomic             Coordinates (Angstroms)
 Number     Number       Type             X           Y           Z
 ---------------------------------------------------------------------
      1          6           0        0.665829   -0.024610   -0.000107
      2          8           0       -0.749310    0.115674    0.000511
      3          1           0        0.987940   -0.590998   -0.873358
      4          1           0        1.009011   -0.523545    0.905782
      5          1           0        1.116900    1.021483   -0.039262
      6          1           0       -1.114352   -0.684670    0.003387
 ---------------------------------------------------------------------

 SCF Done:  E(RB2PLYPD3) =  -115.545327575     A.U. after   10 cycles
 E2(B2PLYPD3) =    -0.1460054389D+00 E(B2PLYPD3) =    -0.11569133301361D+03

 The electronic state is 1-A.
 Alpha  occ. eigenvalues --  -19.71700 -10.66278  -1.17976  -0.79078  -0.59782
 Alpha  occ. eigenvalues --   -0.52131  -0.49608  -0.41086  -0.35613
 Alpha virt. eigenvalues --    0.05245   0.08584   0.12175   0.12312   0.14758
 Alpha virt. eigenvalues --    0.17344   0.17823   0.29113   0.33148   0.33222
 Alpha virt. eigenvalues --    0.36988   0.38120   0.40081   0.40855   0.43664

 Mulliken charges:
               1
     1  C    0.070728
     2  O   -0.424356
     3  H    0.049379
     4  H    0.050880
     5  H    0.068479
     6  H    0.184889
 Sum of Mulliken charges =   0.00000

 Dipole moment (field-independent basis, Debye):
    X=              0.9121    Y=             -1.4767    Z=              0.0034  Tot=              1.7357
 Quadrupole moment (field-independent basis, Debye-Ang):
   XX=            -13.1056   YY=            -12.2945   ZZ=            -13.7160
   XY=              2.1560   XZ=              0.0024   YZ=             -0.0024

 Normal termination of Gaussian 09 at Thu Aug 27 00:04:16 2020.
