 Gaussian 09, Revision D.01,
 Gaussian 09:  ES64L-G09RevD.01 24-Apr-2013

 --------------------
 #p B2PLYPD3/Def2QZVP
 --------------------

 --------
 methanol
 --------
 Symbolic Z-matrix:
 Charge =  0 Multiplicity = 1

                         Standard orientation:
 ---------------------------------------------------------------------
 Center     Atomic      Atomic             Coordinates (Angstroms)
 Number     Number       Type             X           Y           Z
 ---------------------------------------------------------------------
      1          6           0        0.669165   -0.014830   -0.003497
      2          8           0       -0.757780    0.099888   -0.003861
      3          1           0        1.066477   -0.608303   -0.863445
      4          1           0        1.024953   -0.504988    0.941153
      5          1           0        1.063050    1.049546   -0.037675
      6          1           0       -1.107234   -0.646380    0.011835
 ---------------------------------------------------------------------

 SCF Done:  E(RB2PLYPD3) =  -115.528034935     A.U. after   10 cycles
 E2(B2PLYPD3) =    -0.1455036443D+00 E(B2PLYPD3) =    -0.11567353857904D+03

 The electronic state is 1-A.
 Alpha  occ. eigenvalues --  -19.71280 -10.67110  -1.19348  -0.79469  -0.60407
 Alpha  occ. eigenvalues --   -0.51263  -0.49646  -0.41466  -0.35750
 Alpha virt. eigenvalues --    0.05348   0.08691   0.12021   0.12209   0.14848
 Alpha virt. eigenvalues --    0.17047   0.17887   0.29026   0.32603   0.33332
 Alpha virt. eigenvalues --    0.37513   0.38649   0.39698   0.39845   0.42572

 Mulliken charges:
               1
     1  C    0.063537
     2  O   -0.381077
     3  H    0.050833
     4  H    0.049791
     5  H    0.074222
     6  H    0.142693
 Sum of Mulliken charges =   0.00000

 Dipole moment (field-independent basis, Debye):
    X=              0.9405    Y=             -1.3890    Z=              0.0268  Tot=              1.6777
 Quadrupole moment (field-independent basis, Debye-Ang):
   XX=            -13.1065   YY=            -12.3088   ZZ=            -13.7562
   XY=              2.0305   XZ=             -0.0855   YZ=              0.0036

 Normal termination of Gaussian 09 at Wed Aug 26 09:52:07 2020.
