 Gaussian 09, Revision D.01,
 Gaussian 09:  ES64L-G09RevD.01 24-Apr-2013

 --------------------
 #p B2PLYPD3/Def2QZVP
 --------------------

 --------
 methanol
 --------
 Symbolic Z-matrix:
 Charge =  0 Multiplicity = 1

                         Standard orientation:
 ---------------------------------------------------------------------
 Center     Atomic      Atomic             Coordinates (Angstroms)
 Number     Number       Type             X           Y           Z
 ---------------------------------------------------------------------
      1          6           0       -0.657894    0.043383    0.016363
      2          8           0        0.704470   -0.183830   -0.013645
      3          1           0       -0.973754    0.593900   -0.764081
      4          1           0       -0.792294    0.548182    0.771442
      5          1           0       -1.172191   -0.881317   -0.001714
      6          1           0        1.249849    0.949577    0.005330
 ---------------------------------------------------------------------

 SCF Done:  E(RB2PLYPD3) =  -115.466524606     A.U. after   11 cycles
 E2(B2PLYPD3) =    -0.1514038910D+00 E(B2PLYPD3) =    -0.11561792849716D+03

 The electronic state is 1-A.
 Alpha  occ. eigenvalues --  -19.73770 -10.61492  -1.13665  -0.79268  -0.56853
 Alpha  occ. eigenvalues --   -0.54217  -0.49614  -0.39673  -0.34471
 Alpha virt. eigenvalues --    0.01327   0.07806   0.12589   0.13088   0.14977
 Alpha virt. eigenvalues --    0.17575   0.17886   0.24961   0.29700   0.32833
 Alpha virt. eigenvalues --    0.35402   0.39745   0.40073   0.43699   0.44607

 Mulliken charges:
               1
     1  C    0.086367
     2  O   -0.490100
     3  H    0.034658
     4  H    0.057241
     5  H    0.063726
     6  H    0.248108
 Sum of Mulliken charges =   0.00000

 Dipole moment (field-independent basis, Debye):
    X=             -0.7984    Y=              1.7749    Z=              0.0826  Tot=              1.9479
 Quadrupole moment (field-independent basis, Debye-Ang):
   XX=            -12.7407   YY=            -11.6953   ZZ=            -13.8829
   XY=              2.6246   XZ=              0.1295   YZ=              0.0835

 Normal termination of Gaussian 09 at Wed Aug 26 23:38:25 2020.
