 Gaussian 09, Revision D.01,
 Gaussian 09:  ES64L-G09RevD.01 24-Apr-2013

 --------------------
 #p B2PLYPD3/Def2QZVP
 --------------------

 --------
 methanol
 --------
 Symbolic Z-matrix:
 Charge =  0 Multiplicity = 1

                         Standard orientation:
 ---------------------------------------------------------------------
 Center     Atomic      Atomic             Coordinates (Angstroms)
 Number     Number       Type             X           Y           Z
 ---------------------------------------------------------------------
      1          6           0        0.687829   -0.008293    0.001097
      2          8           0       -0.768333   -0.156128    0.010761
      3          1           0        1.123083    0.559548    0.850715
      4          1           0        1.058199    0.552617   -0.839044
      5          1           0        1.102675   -0.803866   -0.058237
      6          1           0       -1.264268    0.990486   -0.046104
 ---------------------------------------------------------------------

 SCF Done:  E(RB2PLYPD3) =  -115.466291623     A.U. after   11 cycles
 E2(B2PLYPD3) =    -0.1532732994D+00 E(B2PLYPD3) =    -0.11561956492200D+03

 The electronic state is 1-A.
 Alpha  occ. eigenvalues --  -19.74802 -10.63648  -1.10958  -0.80333  -0.55093
 Alpha  occ. eigenvalues --   -0.50641  -0.49603  -0.40815  -0.34868
 Alpha virt. eigenvalues --    0.01457   0.07250   0.12623   0.12932   0.14613
 Alpha virt. eigenvalues --    0.17790   0.18385   0.25061   0.29325   0.32504
 Alpha virt. eigenvalues --    0.33458   0.37786   0.39655   0.41550   0.42548

 Mulliken charges:
               1
     1  C    0.069208
     2  O   -0.505993
     3  H    0.043237
     4  H    0.038658
     5  H    0.094436
     6  H    0.260455
 Sum of Mulliken charges =   0.00000

 Dipole moment (field-independent basis, Debye):
    X=              0.9740    Y=              1.6253    Z=             -0.1443  Tot=              1.9003
 Quadrupole moment (field-independent basis, Debye-Ang):
   XX=            -12.5248   YY=            -11.7707   ZZ=            -14.1596
   XY=             -2.6970   XZ=              0.0760   YZ=             -0.0344

 Normal termination of Gaussian 09 at Wed Aug 26 22:27:59 2020.
