 Gaussian 09, Revision D.01,
 Gaussian 09:  ES64L-G09RevD.01 24-Apr-2013

 --------------------
 #p B2PLYPD3/Def2QZVP
 --------------------

 --------
 methanol
 --------
 Symbolic Z-matrix:
 Charge =  0 Multiplicity = 1

                         Standard orientation:
 ---------------------------------------------------------------------
 Center     Atomic      Atomic             Coordinates (Angstroms)
 Number     Number       Type             X           Y           Z
 ---------------------------------------------------------------------
      1          6           0       -0.665843   -0.015872    0.021755
      2          8           0        0.746095    0.077228   -0.016270
      3          1           0       -1.034673   -0.381931    0.984929
      4          1           0       -0.994933   -0.734435   -0.890135
      5          1           0       -1.032647    1.082693   -0.198508
      6          1           0        1.088551   -0.488918    0.103342
 ---------------------------------------------------------------------

 SCF Done:  E(RB2PLYPD3) =  -115.377052444     A.U. after   11 cycles
 E2(B2PLYPD3) =    -0.1436024943D+00 E(B2PLYPD3) =    -0.11552065493868D+03

 The electronic state is 1-A.
 Alpha  occ. eigenvalues --  -19.69250 -10.68458  -1.25298  -0.81874  -0.61953
 Alpha  occ. eigenvalues --   -0.51720  -0.50027  -0.40817  -0.35970
 Alpha virt. eigenvalues --    0.05315   0.09387   0.11676   0.11826   0.14499
 Alpha virt. eigenvalues --    0.16712   0.17743   0.28704   0.32238   0.33233
 Alpha virt. eigenvalues --    0.36269   0.37488   0.40317   0.40878   0.42398

 Mulliken charges:
               1
     1  C    0.050868
     2  O   -0.224309
     3  H    0.062539
     4  H    0.041711
     5  H    0.078189
     6  H   -0.008998
 Sum of Mulliken charges =   0.00000

 Dipole moment (field-independent basis, Debye):
    X=             -0.8821    Y=             -1.1552    Z=              0.3563  Tot=              1.4965
 Quadrupole moment (field-independent basis, Debye-Ang):
   XX=            -13.1858   YY=            -12.5758   ZZ=            -13.4134
   XY=             -1.8481   XZ=              0.1949   YZ=             -0.2652

 Normal termination of Gaussian 09 at Wed Aug 26 13:49:34 2020.
