 Gaussian 09, Revision D.01,
 Gaussian 09:  ES64L-G09RevD.01 24-Apr-2013

 --------------------
 #p B2PLYPD3/Def2QZVP
 --------------------

 --------
 methanol
 --------
 Symbolic Z-matrix:
 Charge =  0 Multiplicity = 1

                         Standard orientation:
 ---------------------------------------------------------------------
 Center     Atomic      Atomic             Coordinates (Angstroms)
 Number     Number       Type             X           Y           Z
 ---------------------------------------------------------------------
      1          6           0       -0.669408   -0.015507   -0.001892
      2          8           0        0.756216    0.108648   -0.003391
      3          1           0       -1.059101   -0.498653    0.925017
      4          1           0       -1.005860   -0.629304   -0.874653
      5          1           0       -1.108604    1.014658   -0.056196
      6          1           0        1.140286   -0.662849    0.044307
 ---------------------------------------------------------------------

 SCF Done:  E(RB2PLYPD3) =  -115.541354257     A.U. after   10 cycles
 E2(B2PLYPD3) =    -0.1459903416D+00 E(B2PLYPD3) =    -0.11568734459906D+03

 The electronic state is 1-A.
 Alpha  occ. eigenvalues --  -19.71635 -10.66864  -1.18069  -0.79204  -0.59837
 Alpha  occ. eigenvalues --   -0.51297  -0.49861  -0.41112  -0.35569
 Alpha virt. eigenvalues --    0.05301   0.08490   0.12202   0.12250   0.14749
 Alpha virt. eigenvalues --    0.17250   0.17893   0.29094   0.32714   0.33294
 Alpha virt. eigenvalues --    0.37034   0.38774   0.39537   0.39959   0.42945

 Mulliken charges:
               1
     1  C    0.068232
     2  O   -0.416274
     3  H    0.048727
     4  H    0.048508
     5  H    0.075004
     6  H    0.175804
 Sum of Mulliken charges =   0.00000

 Dipole moment (field-independent basis, Debye):
    X=             -0.9034    Y=             -1.4081    Z=              0.0905  Tot=              1.6754
 Quadrupole moment (field-independent basis, Debye-Ang):
   XX=            -12.9479   YY=            -12.3654   ZZ=            -13.7898
   XY=             -2.1834   XZ=              0.0757   YZ=             -0.0472

 Normal termination of Gaussian 09 at Wed Aug 26 22:12:30 2020.
