 Gaussian 09, Revision D.01,
 Gaussian 09:  ES64L-G09RevD.01 24-Apr-2013

 --------------------
 #p B2PLYPD3/Def2QZVP
 --------------------

 --------
 methanol
 --------
 Symbolic Z-matrix:
 Charge =  0 Multiplicity = 1

                         Standard orientation:
 ---------------------------------------------------------------------
 Center     Atomic      Atomic             Coordinates (Angstroms)
 Number     Number       Type             X           Y           Z
 ---------------------------------------------------------------------
      1          6           0        0.651024    0.039404   -0.011719
      2          8           0       -0.732459   -0.175663   -0.003514
      3          1           0        1.038283    0.407420    0.864160
      4          1           0        0.944969    0.631574   -0.753346
      5          1           0        1.186116   -0.851455   -0.072953
      6          1           0       -1.215837    0.981346    0.060564
 ---------------------------------------------------------------------

 SCF Done:  E(RB2PLYPD3) =  -115.487999620     A.U. after   11 cycles
 E2(B2PLYPD3) =    -0.1521050355D+00 E(B2PLYPD3) =    -0.11564010465551D+03

 The electronic state is 1-A.
 Alpha  occ. eigenvalues --  -19.74602 -10.62664  -1.13115  -0.79234  -0.55514
 Alpha  occ. eigenvalues --   -0.53076  -0.49830  -0.39758  -0.35078
 Alpha virt. eigenvalues --    0.01319   0.07541   0.12705   0.13041   0.14756
 Alpha virt. eigenvalues --    0.17892   0.18600   0.24782   0.29494   0.33291
 Alpha virt. eigenvalues --    0.34800   0.39734   0.40398   0.42873   0.43450

 Mulliken charges:
               1
     1  C    0.096411
     2  O   -0.487796
     3  H    0.040822
     4  H    0.041292
     5  H    0.054558
     6  H    0.254712
 Sum of Mulliken charges =   0.00000

 Dipole moment (field-independent basis, Debye):
    X=              0.8846    Y=              1.7378    Z=              0.0823  Tot=              1.9517
 Quadrupole moment (field-independent basis, Debye-Ang):
   XX=            -12.7516   YY=            -11.8742   ZZ=            -13.9396
   XY=             -2.5829   XZ=             -0.0744   YZ=             -0.0205

 Normal termination of Gaussian 09 at Wed Aug 26 17:28:11 2020.
