 Gaussian 09, Revision D.01,
 Gaussian 09:  ES64L-G09RevD.01 24-Apr-2013

 --------------------
 #p B2PLYPD3/Def2QZVP
 --------------------

 --------
 methanol
 --------
 Symbolic Z-matrix:
 Charge =  0 Multiplicity = 1

                         Standard orientation:
 ---------------------------------------------------------------------
 Center     Atomic      Atomic             Coordinates (Angstroms)
 Number     Number       Type             X           Y           Z
 ---------------------------------------------------------------------
      1          6           0       -0.663423   -0.025726   -0.009895
      2          8           0        0.744821    0.103834    0.002084
      3          1           0       -1.008077   -0.561184    0.925316
      4          1           0       -1.024579   -0.539730   -0.896672
      5          1           0       -1.074306    1.052614    0.024323
      6          1           0        1.128934   -0.628018   -0.010271
 ---------------------------------------------------------------------

 SCF Done:  E(RB2PLYPD3) =  -115.528231125     A.U. after   10 cycles
 E2(B2PLYPD3) =    -0.1452370990D+00 E(B2PLYPD3) =    -0.11567346822433D+03

 The electronic state is 1-A.
 Alpha  occ. eigenvalues --  -19.71125 -10.66913  -1.19571  -0.79615  -0.60592
 Alpha  occ. eigenvalues --   -0.52003  -0.49668  -0.40735  -0.35710
 Alpha virt. eigenvalues --    0.05362   0.08784   0.12058   0.12205   0.14761
 Alpha virt. eigenvalues --    0.17039   0.17937   0.29009   0.33102   0.33492
 Alpha virt. eigenvalues --    0.37135   0.38578   0.39825   0.40770   0.42825

 Mulliken charges:
               1
     1  C    0.062572
     2  O   -0.380209
     3  H    0.047454
     4  H    0.055757
     5  H    0.069507
     6  H    0.144920
 Sum of Mulliken charges =   0.00000

 Dipole moment (field-independent basis, Debye):
    X=             -0.8314    Y=             -1.3962    Z=             -0.0614  Tot=              1.6262
 Quadrupole moment (field-independent basis, Debye-Ang):
   XX=            -13.0368   YY=            -12.4304   ZZ=            -13.6596
   XY=             -2.0657   XZ=              0.0304   YZ=              0.0748

 Normal termination of Gaussian 09 at Thu Aug 27 00:11:35 2020.
