 Gaussian 09, Revision D.01,
 Gaussian 09:  ES64L-G09RevD.01 24-Apr-2013

 --------------------
 #p B2PLYPD3/Def2QZVP
 --------------------

 --------
 methanol
 --------
 Symbolic Z-matrix:
 Charge =  0 Multiplicity = 1

                         Standard orientation:
 ---------------------------------------------------------------------
 Center     Atomic      Atomic             Coordinates (Angstroms)
 Number     Number       Type             X           Y           Z
 ---------------------------------------------------------------------
      1          6           0        0.662761    0.022720   -0.014683
      2          8           0       -0.725552   -0.162785    0.007627
      3          1           0        0.927478    0.595651    0.858011
      4          1           0        1.050026    0.467497   -0.804599
      5          1           0        1.054207   -0.865686    0.053157
      6          1           0       -1.203862    0.968501   -0.079480
 ---------------------------------------------------------------------

 SCF Done:  E(RB2PLYPD3) =  -115.488353892     A.U. after   11 cycles
 E2(B2PLYPD3) =    -0.1515496014D+00 E(B2PLYPD3) =    -0.11563990349336D+03

 The electronic state is 1-A.
 Alpha  occ. eigenvalues --  -19.74156 -10.62403  -1.13216  -0.79297  -0.56636
 Alpha  occ. eigenvalues --   -0.52653  -0.49825  -0.40448  -0.34706
 Alpha virt. eigenvalues --    0.01853   0.07809   0.12681   0.12876   0.14910
 Alpha virt. eigenvalues --    0.17375   0.18296   0.25675   0.29586   0.33028
 Alpha virt. eigenvalues --    0.35180   0.38749   0.40541   0.42518   0.45068

 Mulliken charges:
               1
     1  C    0.088982
     2  O   -0.486509
     3  H    0.038233
     4  H    0.041609
     5  H    0.066465
     6  H    0.251220
 Sum of Mulliken charges =   0.00000

 Dipole moment (field-independent basis, Debye):
    X=              0.8854    Y=              1.6438    Z=             -0.1964  Tot=              1.8774
 Quadrupole moment (field-independent basis, Debye-Ang):
   XX=            -12.9413   YY=            -11.7475   ZZ=            -13.8533
   XY=             -2.5310   XZ=             -0.0232   YZ=             -0.1755

 Normal termination of Gaussian 09 at Wed Aug 26 11:45:01 2020.
