 Gaussian 09, Revision D.01,
 Gaussian 09:  ES64L-G09RevD.01 24-Apr-2013

 --------------------
 #p B2PLYPD3/Def2QZVP
 --------------------

 --------
 methanol
 --------
 Symbolic Z-matrix:
 Charge =  0 Multiplicity = 1

                         Standard orientation:
 ---------------------------------------------------------------------
 Center     Atomic      Atomic             Coordinates (Angstroms)
 Number     Number       Type             X           Y           Z
 ---------------------------------------------------------------------
      1          6           0       -0.670916   -0.022843   -0.002106
      2          8           0        0.752546    0.118890   -0.004924
      3          1           0       -1.061135   -0.453417    0.926119
      4          1           0       -0.983319   -0.649966   -0.849968
      5          1           0       -1.119593    0.990158   -0.085773
      6          1           0        1.169181   -0.700836    0.061652
 ---------------------------------------------------------------------

 SCF Done:  E(RB2PLYPD3) =  -115.551029391     A.U. after   10 cycles
 E2(B2PLYPD3) =    -0.1467662387D+00 E(B2PLYPD3) =    -0.11569779563017D+03

 The electronic state is 1-A.
 Alpha  occ. eigenvalues --  -19.72109 -10.66193  -1.16479  -0.78914  -0.59012
 Alpha  occ. eigenvalues --   -0.51718  -0.49680  -0.40810  -0.35473
 Alpha virt. eigenvalues --    0.05161   0.08254   0.12304   0.12401   0.14729
 Alpha virt. eigenvalues --    0.17292   0.18043   0.29139   0.32831   0.33466
 Alpha virt. eigenvalues --    0.35931   0.38758   0.39652   0.40689   0.43532

 Mulliken charges:
               1
     1  C    0.071069
     2  O   -0.452225
     3  H    0.050313
     4  H    0.049440
     5  H    0.071884
     6  H    0.209520
 Sum of Mulliken charges =   0.00000

 Dipole moment (field-independent basis, Debye):
    X=             -0.8737    Y=             -1.4672    Z=              0.1232  Tot=              1.7121
 Quadrupole moment (field-independent basis, Debye-Ang):
   XX=            -12.8389   YY=            -12.3628   ZZ=            -13.7821
   XY=             -2.2808   XZ=              0.1020   YZ=             -0.0584

 Normal termination of Gaussian 09 at Wed Aug 26 18:49:20 2020.
