 Gaussian 09, Revision D.01,
 Gaussian 09:  ES64L-G09RevD.01 24-Apr-2013

 --------------------
 #p B2PLYPD3/Def2QZVP
 --------------------

 --------
 methanol
 --------
 Symbolic Z-matrix:
 Charge =  0 Multiplicity = 1

                         Standard orientation:
 ---------------------------------------------------------------------
 Center     Atomic      Atomic             Coordinates (Angstroms)
 Number     Number       Type             X           Y           Z
 ---------------------------------------------------------------------
      1          6           0        0.668325    0.018577    0.002058
      2          8           0       -0.749105   -0.143914   -0.006154
      3          1           0        1.032655    0.456568    0.878299
      4          1           0        1.001726    0.591705   -0.840354
      5          1           0        1.088579   -0.902228   -0.050038
      6          1           0       -1.140069    0.893809    0.048979
 ---------------------------------------------------------------------

 SCF Done:  E(RB2PLYPD3) =  -115.528699279     A.U. after   11 cycles
 E2(B2PLYPD3) =    -0.1498006859D+00 E(B2PLYPD3) =    -0.11567849996505D+03

 The electronic state is 1-A.
 Alpha  occ. eigenvalues --  -19.73688 -10.63841  -1.13577  -0.79013  -0.56686
 Alpha  occ. eigenvalues --   -0.52151  -0.49832  -0.41134  -0.35203
 Alpha virt. eigenvalues --    0.03654   0.07871   0.12521   0.12760   0.14792
 Alpha virt. eigenvalues --    0.17533   0.18266   0.28667   0.30023   0.33360
 Alpha virt. eigenvalues --    0.33858   0.39106   0.40716   0.41820   0.43717

 Mulliken charges:
               1
     1  C    0.082975
     2  O   -0.489540
     3  H    0.045524
     4  H    0.043093
     5  H    0.067443
     6  H    0.250504
 Sum of Mulliken charges =   0.00000

 Dipole moment (field-independent basis, Debye):
    X=              0.9902    Y=              1.6038    Z=              0.1075  Tot=              1.8879
 Quadrupole moment (field-independent basis, Debye-Ang):
   XX=            -13.0821   YY=            -11.9212   ZZ=            -13.8193
   XY=             -2.4029   XZ=             -0.0647   YZ=              0.0713

 Normal termination of Gaussian 09 at Thu Aug 27 00:08:37 2020.
