 Gaussian 09, Revision D.01,
 Gaussian 09:  ES64L-G09RevD.01 24-Apr-2013

 --------------------
 #p B2PLYPD3/Def2QZVP
 --------------------

 --------
 methanol
 --------
 Symbolic Z-matrix:
 Charge =  0 Multiplicity = 1

                         Standard orientation:
 ---------------------------------------------------------------------
 Center     Atomic      Atomic             Coordinates (Angstroms)
 Number     Number       Type             X           Y           Z
 ---------------------------------------------------------------------
      1          6           0        0.678181   -0.023239   -0.007866
      2          8           0       -0.754675    0.101580    0.006399
      3          1           0        0.968959   -0.549102   -0.936712
      4          1           0        1.061687   -0.526986    0.945749
      5          1           0        1.068913    1.024995   -0.018433
      6          1           0       -1.131247   -0.622110    0.005399
 ---------------------------------------------------------------------

 SCF Done:  E(RB2PLYPD3) =  -115.523603413     A.U. after   10 cycles
 E2(B2PLYPD3) =    -0.1453599486D+00 E(B2PLYPD3) =    -0.11566896336153D+03

 The electronic state is 1-A.
 Alpha  occ. eigenvalues --  -19.70833 -10.67142  -1.19137  -0.79733  -0.59826
 Alpha  occ. eigenvalues --   -0.51880  -0.49725  -0.40838  -0.35811
 Alpha virt. eigenvalues --    0.05409   0.08743   0.11979   0.12246   0.14399
 Alpha virt. eigenvalues --    0.16999   0.18006   0.28931   0.32248   0.33223
 Alpha virt. eigenvalues --    0.37196   0.39111   0.39613   0.40202   0.43068

 Mulliken charges:
               1
     1  C    0.063462
     2  O   -0.382239
     3  H    0.057158
     4  H    0.051850
     5  H    0.075899
     6  H    0.133871
 Sum of Mulliken charges =   0.00000

 Dipole moment (field-independent basis, Debye):
    X=              0.9399    Y=             -1.3426    Z=             -0.0398  Tot=              1.6394
 Quadrupole moment (field-independent basis, Debye-Ang):
   XX=            -13.0527   YY=            -12.4820   ZZ=            -13.5439
   XY=              2.1315   XZ=              0.0453   YZ=              0.0342

 Normal termination of Gaussian 09 at Thu Aug 27 00:07:59 2020.
