 Gaussian 09, Revision D.01,
 Gaussian 09:  ES64L-G09RevD.01 24-Apr-2013

 --------------------
 #p B2PLYPD3/Def2QZVP
 --------------------

 --------
 methanol
 --------
 Symbolic Z-matrix:
 Charge =  0 Multiplicity = 1

                         Standard orientation:
 ---------------------------------------------------------------------
 Center     Atomic      Atomic             Coordinates (Angstroms)
 Number     Number       Type             X           Y           Z
 ---------------------------------------------------------------------
      1          6           0       -0.657363   -0.001407    0.016307
      2          8           0        0.755113   -0.153400   -0.025677
      3          1           0       -1.113273    0.698192   -0.730677
      4          1           0       -0.935107    0.428010    0.792652
      5          1           0       -1.090560   -0.930517   -0.046737
      6          1           0        1.042213    1.039958    0.092337
 ---------------------------------------------------------------------

 SCF Done:  E(RB2PLYPD3) =  -115.476616813     A.U. after   11 cycles
 E2(B2PLYPD3) =    -0.1526555045D+00 E(B2PLYPD3) =    -0.11562927231717D+03

 The electronic state is 1-A.
 Alpha  occ. eigenvalues --  -19.74855 -10.63158  -1.13038  -0.79636  -0.57145
 Alpha  occ. eigenvalues --   -0.51114  -0.49187  -0.41620  -0.34875
 Alpha virt. eigenvalues --    0.01588   0.07599   0.12226   0.12943   0.15030
 Alpha virt. eigenvalues --    0.17528   0.18257   0.25252   0.29797   0.32952
 Alpha virt. eigenvalues --    0.34243   0.38156   0.39727   0.40760   0.44774

 Mulliken charges:
               1
     1  C    0.091832
     2  O   -0.482276
     3  H    0.024212
     4  H    0.051943
     5  H    0.064298
     6  H    0.249992
 Sum of Mulliken charges =   0.00000

 Dipole moment (field-independent basis, Debye):
    X=             -1.1401    Y=              1.7073    Z=              0.3532  Tot=              2.0831
 Quadrupole moment (field-independent basis, Debye-Ang):
   XX=            -13.6063   YY=            -11.2869   ZZ=            -14.1700
   XY=              2.1546   XZ=              0.0817   YZ=              0.2739

 Normal termination of Gaussian 09 at Wed Aug 26 19:56:27 2020.
