 Gaussian 09, Revision D.01,
 Gaussian 09:  ES64L-G09RevD.01 24-Apr-2013

 --------------------
 #p B2PLYPD3/Def2QZVP
 --------------------

 --------
 methanol
 --------
 Symbolic Z-matrix:
 Charge =  0 Multiplicity = 1

                         Standard orientation:
 ---------------------------------------------------------------------
 Center     Atomic      Atomic             Coordinates (Angstroms)
 Number     Number       Type             X           Y           Z
 ---------------------------------------------------------------------
      1          6           0        0.659779    0.041744    0.013346
      2          8           0       -0.726824   -0.210312   -0.027945
      3          1           0        1.042064    0.299305    0.795013
      4          1           0        1.107611    0.746623   -0.677244
      5          1           0        1.151550   -0.758207   -0.098769
      6          1           0       -1.445305    1.144311    0.124482
 ---------------------------------------------------------------------

 SCF Done:  E(RB2PLYPD3) =  -115.379465048     A.U. after   12 cycles
 E2(B2PLYPD3) =    -0.1586937725D+00 E(B2PLYPD3) =    -0.11553815882040D+03

 The electronic state is 1-A.
 Alpha  occ. eigenvalues --  -19.76154 -10.61367  -1.11666  -0.81811  -0.53902
 Alpha  occ. eigenvalues --   -0.51849  -0.50006  -0.38127  -0.35243
 Alpha virt. eigenvalues --   -0.04345   0.07124   0.12743   0.13382   0.14837
 Alpha virt. eigenvalues --    0.17550   0.18911   0.20558   0.29629   0.33910
 Alpha virt. eigenvalues --    0.34807   0.37909   0.39551   0.42138   0.45109

 Mulliken charges:
               1
     1  C    0.082187
     2  O   -0.467481
     3  H    0.059904
     4  H    0.035852
     5  H    0.060916
     6  H    0.228622
 Sum of Mulliken charges =   0.00000

 Dipole moment (field-independent basis, Debye):
    X=              0.8693    Y=              1.6663    Z=              0.3458  Tot=              1.9110
 Quadrupole moment (field-independent basis, Debye-Ang):
   XX=            -11.9180   YY=            -11.7183   ZZ=            -14.2227
   XY=             -2.8673   XZ=             -0.1138   YZ=              0.1618

 Normal termination of Gaussian 09 at Wed Aug 26 22:18:34 2020.
