 Gaussian 09, Revision D.01,
 Gaussian 09:  ES64L-G09RevD.01 24-Apr-2013

 --------------------
 #p B2PLYPD3/Def2QZVP
 --------------------

 --------
 methanol
 --------
 Symbolic Z-matrix:
 Charge =  0 Multiplicity = 1

                         Standard orientation:
 ---------------------------------------------------------------------
 Center     Atomic      Atomic             Coordinates (Angstroms)
 Number     Number       Type             X           Y           Z
 ---------------------------------------------------------------------
      1          6           0        0.655687   -0.012235    0.005040
      2          8           0       -0.750841    0.098915   -0.004767
      3          1           0        1.072833   -0.608383   -0.879179
      4          1           0        1.011723   -0.522993    0.929779
      5          1           0        1.081922    1.046231   -0.042580
      6          1           0       -1.093875   -0.632764   -0.000129
 ---------------------------------------------------------------------

 SCF Done:  E(RB2PLYPD3) =  -115.520050662     A.U. after   10 cycles
 E2(B2PLYPD3) =    -0.1451111417D+00 E(B2PLYPD3) =    -0.11566516180394D+03

 The electronic state is 1-A.
 Alpha  occ. eigenvalues --  -19.71280 -10.67256  -1.20579  -0.79599  -0.60999
 Alpha  occ. eigenvalues --   -0.51376  -0.50086  -0.41293  -0.35658
 Alpha virt. eigenvalues --    0.05348   0.08783   0.12034   0.12209   0.14900
 Alpha virt. eigenvalues --    0.17184   0.17828   0.28966   0.32955   0.33590
 Alpha virt. eigenvalues --    0.37254   0.38694   0.39373   0.40143   0.42656

 Mulliken charges:
               1
     1  C    0.061057
     2  O   -0.355547
     3  H    0.042526
     4  H    0.049312
     5  H    0.073134
     6  H    0.129517
 Sum of Mulliken charges =   0.00000

 Dipole moment (field-independent basis, Debye):
    X=              0.8662    Y=             -1.3620    Z=              0.0367  Tot=              1.6145
 Quadrupole moment (field-independent basis, Debye-Ang):
   XX=            -13.1248   YY=            -12.3594   ZZ=            -13.7880
   XY=              2.0345   XZ=             -0.0385   YZ=             -0.0378

 Normal termination of Gaussian 09 at Thu Aug 27 00:15:19 2020.
