 Gaussian 09, Revision D.01,
 Gaussian 09:  ES64L-G09RevD.01 24-Apr-2013

 --------------------
 #p B2PLYPD3/Def2QZVP
 --------------------

 --------
 methanol
 --------
 Symbolic Z-matrix:
 Charge =  0 Multiplicity = 1

                         Standard orientation:
 ---------------------------------------------------------------------
 Center     Atomic      Atomic             Coordinates (Angstroms)
 Number     Number       Type             X           Y           Z
 ---------------------------------------------------------------------
      1          6           0        0.667993    0.000824    0.011620
      2          8           0       -0.759953    0.100647   -0.013557
      3          1           0        1.061165   -0.703787   -0.875307
      4          1           0        1.062321   -0.424712    0.983896
      5          1           0        1.102400    0.963427   -0.144459
      6          1           0       -1.154222   -0.645045    0.074605
 ---------------------------------------------------------------------

 SCF Done:  E(RB2PLYPD3) =  -115.531432322     A.U. after   10 cycles
 E2(B2PLYPD3) =    -0.1459879817D+00 E(B2PLYPD3) =    -0.11567742030398D+03

 The electronic state is 1-A.
 Alpha  occ. eigenvalues --  -19.71672 -10.67445  -1.18490  -0.79513  -0.59825
 Alpha  occ. eigenvalues --   -0.51059  -0.50254  -0.41004  -0.35385
 Alpha virt. eigenvalues --    0.05297   0.08409   0.11899   0.12491   0.14589
 Alpha virt. eigenvalues --    0.17302   0.18008   0.28964   0.32486   0.32967
 Alpha virt. eigenvalues --    0.36081   0.38481   0.39344   0.40522   0.43017

 Mulliken charges:
               1
     1  C    0.064583
     2  O   -0.402299
     3  H    0.034842
     4  H    0.050304
     5  H    0.084560
     6  H    0.168010
 Sum of Mulliken charges =   0.00000

 Dipole moment (field-independent basis, Debye):
    X=              0.8637    Y=             -1.2747    Z=              0.2189  Tot=              1.5552
 Quadrupole moment (field-independent basis, Debye-Ang):
   XX=            -12.8610   YY=            -12.5275   ZZ=            -13.7970
   XY=              2.2782   XZ=             -0.1847   YZ=             -0.2071

 Normal termination of Gaussian 09 at Wed Aug 26 11:10:04 2020.
