 Gaussian 09, Revision D.01,
 Gaussian 09:  ES64L-G09RevD.01 24-Apr-2013

 --------------------
 #p B2PLYPD3/Def2QZVP
 --------------------

 --------
 methanol
 --------
 Symbolic Z-matrix:
 Charge =  0 Multiplicity = 1

                         Standard orientation:
 ---------------------------------------------------------------------
 Center     Atomic      Atomic             Coordinates (Angstroms)
 Number     Number       Type             X           Y           Z
 ---------------------------------------------------------------------
      1          6           0       -0.672578   -0.029705   -0.007147
      2          8           0        0.759487    0.096341   -0.009155
      3          1           0       -1.064919   -0.437088    0.980809
      4          1           0       -0.995293   -0.682034   -0.859165
      5          1           0       -1.146069    1.065559   -0.096275
      6          1           0        1.165849   -0.538936    0.090753
 ---------------------------------------------------------------------

 SCF Done:  E(RB2PLYPD3) =  -115.483225322     A.U. after   10 cycles
 E2(B2PLYPD3) =    -0.1448969321D+00 E(B2PLYPD3) =    -0.11562812225386D+03

 The electronic state is 1-A.
 Alpha  occ. eigenvalues --  -19.70362 -10.68310  -1.20949  -0.80288  -0.60949
 Alpha  occ. eigenvalues --   -0.51668  -0.49179  -0.40170  -0.36076
 Alpha virt. eigenvalues --    0.05362   0.08790   0.11844   0.12040   0.14448
 Alpha virt. eigenvalues --    0.17067   0.17930   0.28914   0.32042   0.33197
 Alpha virt. eigenvalues --    0.35603   0.38728   0.39318   0.40130   0.42366

 Mulliken charges:
               1
     1  C    0.060071
     2  O   -0.322599
     3  H    0.053263
     4  H    0.059856
     5  H    0.072143
     6  H    0.077267
 Sum of Mulliken charges =   0.00000

 Dipole moment (field-independent basis, Debye):
    X=             -0.8936    Y=             -1.3054    Z=              0.1937  Tot=              1.5937
 Quadrupole moment (field-independent basis, Debye-Ang):
   XX=            -12.7592   YY=            -12.6625   ZZ=            -13.6418
   XY=             -2.0359   XZ=              0.2407   YZ=             -0.0387

 Normal termination of Gaussian 09 at Wed Aug 26 11:48:39 2020.
