 Gaussian 09, Revision D.01,
 Gaussian 09:  ES64L-G09RevD.01 24-Apr-2013

 --------------------
 #p B2PLYPD3/Def2QZVP
 --------------------

 --------
 methanol
 --------
 Symbolic Z-matrix:
 Charge =  0 Multiplicity = 1

                         Standard orientation:
 ---------------------------------------------------------------------
 Center     Atomic      Atomic             Coordinates (Angstroms)
 Number     Number       Type             X           Y           Z
 ---------------------------------------------------------------------
      1          6           0       -0.691134   -0.025570    0.003273
      2          8           0        0.763392    0.137189   -0.011307
      3          1           0       -1.144729   -0.414434    0.854049
      4          1           0       -0.958984   -0.749278   -0.780151
      5          1           0       -1.171966    0.975231   -0.127118
      6          1           0        1.315348   -0.755608    0.124035
 ---------------------------------------------------------------------

 SCF Done:  E(RB2PLYPD3) =  -115.533618682     A.U. after   11 cycles
 E2(B2PLYPD3) =    -0.1496089685D+00 E(B2PLYPD3) =    -0.11568322765049D+03

 The electronic state is 1-A.
 Alpha  occ. eigenvalues --  -19.73153 -10.65850  -1.12607  -0.78703  -0.57033
 Alpha  occ. eigenvalues --   -0.51134  -0.48446  -0.40338  -0.35064
 Alpha virt. eigenvalues --    0.04310   0.07327   0.12214   0.12711   0.14756
 Alpha virt. eigenvalues --    0.17321   0.18198   0.29044   0.30706   0.32339
 Alpha virt. eigenvalues --    0.33961   0.37821   0.39242   0.41086   0.43386

 Mulliken charges:
               1
     1  C    0.080591
     2  O   -0.504877
     3  H    0.054526
     4  H    0.046682
     5  H    0.073289
     6  H    0.249788
 Sum of Mulliken charges =   0.00000

 Dipole moment (field-independent basis, Debye):
    X=             -0.8250    Y=             -1.5697    Z=              0.2926  Tot=              1.7973
 Quadrupole moment (field-independent basis, Debye-Ang):
   XX=            -12.1317   YY=            -12.3112   ZZ=            -14.1222
   XY=             -2.5117   XZ=              0.1294   YZ=             -0.1498

 Normal termination of Gaussian 09 at Wed Aug 26 23:49:26 2020.
