 Gaussian 09, Revision D.01,
 Gaussian 09:  ES64L-G09RevD.01 24-Apr-2013

 --------------------
 #p B2PLYPD3/Def2QZVP
 --------------------

 --------
 methanol
 --------
 Symbolic Z-matrix:
 Charge =  0 Multiplicity = 1

                         Standard orientation:
 ---------------------------------------------------------------------
 Center     Atomic      Atomic             Coordinates (Angstroms)
 Number     Number       Type             X           Y           Z
 ---------------------------------------------------------------------
      1          6           0       -0.664302   -0.028237   -0.003143
      2          8           0        0.747375    0.139491    0.001909
      3          1           0       -1.043971   -0.523266    0.867219
      4          1           0       -0.969451   -0.563573   -0.861903
      5          1           0       -1.154393    0.946338   -0.020552
      6          1           0        1.174626   -0.806000    0.018824
 ---------------------------------------------------------------------

 SCF Done:  E(RB2PLYPD3) =  -115.545067314     A.U. after   10 cycles
 E2(B2PLYPD3) =    -0.1484754208D+00 E(B2PLYPD3) =    -0.11569354273448D+03

 The electronic state is 1-A.
 Alpha  occ. eigenvalues --  -19.73166 -10.64911  -1.14648  -0.78567  -0.57565
 Alpha  occ. eigenvalues --   -0.52218  -0.49680  -0.40652  -0.35305
 Alpha virt. eigenvalues --    0.04420   0.07896   0.12531   0.12590   0.14753
 Alpha virt. eigenvalues --    0.17652   0.18151   0.29167   0.31946   0.33265
 Alpha virt. eigenvalues --    0.33820   0.39122   0.39980   0.41607   0.43948

 Mulliken charges:
               1
     1  C    0.076827
     2  O   -0.481020
     3  H    0.046543
     4  H    0.048260
     5  H    0.065361
     6  H    0.244030
 Sum of Mulliken charges =   0.00000

 Dipole moment (field-independent basis, Debye):
    X=             -0.8739    Y=             -1.5982    Z=              0.0160  Tot=              1.8216
 Quadrupole moment (field-independent basis, Debye-Ang):
   XX=            -12.8466   YY=            -12.2026   ZZ=            -13.8411
   XY=             -2.4090   XZ=             -0.0104   YZ=             -0.0013

 Normal termination of Gaussian 09 at Wed Aug 26 23:59:55 2020.
