 Gaussian 09, Revision D.01,
 Gaussian 09:  ES64L-G09RevD.01 24-Apr-2013

 --------------------
 #p B2PLYPD3/Def2QZVP
 --------------------

 --------
 methanol
 --------
 Symbolic Z-matrix:
 Charge =  0 Multiplicity = 1

                         Standard orientation:
 ---------------------------------------------------------------------
 Center     Atomic      Atomic             Coordinates (Angstroms)
 Number     Number       Type             X           Y           Z
 ---------------------------------------------------------------------
      1          6           0        0.668032   -0.024724    0.008462
      2          8           0       -0.741470    0.099225   -0.006381
      3          1           0        1.058391   -0.598288   -0.883461
      4          1           0        1.004911   -0.496707    0.925221
      5          1           0        1.027323    1.068497   -0.052364
      6          1           0       -1.167054   -0.618954    0.010874
 ---------------------------------------------------------------------

 SCF Done:  E(RB2PLYPD3) =  -115.530601564     A.U. after   10 cycles
 E2(B2PLYPD3) =    -0.1453325698D+00 E(B2PLYPD3) =    -0.11567593413401D+03

 The electronic state is 1-A.
 Alpha  occ. eigenvalues --  -19.71041 -10.66872  -1.19014  -0.79756  -0.60528
 Alpha  occ. eigenvalues --   -0.51884  -0.49496  -0.40448  -0.35651
 Alpha virt. eigenvalues --    0.05384   0.08727   0.11979   0.12306   0.14905
 Alpha virt. eigenvalues --    0.16787   0.17958   0.29085   0.33192   0.33506
 Alpha virt. eigenvalues --    0.37254   0.38791   0.39653   0.40662   0.42652

 Mulliken charges:
               1
     1  C    0.061399
     2  O   -0.390803
     3  H    0.048592
     4  H    0.056787
     5  H    0.071993
     6  H    0.152032
 Sum of Mulliken charges =   0.00000

 Dipole moment (field-independent basis, Debye):
    X=              0.7713    Y=             -1.3844    Z=              0.0733  Tot=              1.5865
 Quadrupole moment (field-independent basis, Debye-Ang):
   XX=            -12.8939   YY=            -12.4326   ZZ=            -13.6829
   XY=              2.0288   XZ=             -0.0487   YZ=             -0.0607

 Normal termination of Gaussian 09 at Wed Aug 26 16:01:56 2020.
