 Gaussian 09, Revision D.01,
 Gaussian 09:  ES64L-G09RevD.01 24-Apr-2013

 --------------------
 #p B2PLYPD3/Def2QZVP
 --------------------

 --------
 methanol
 --------
 Symbolic Z-matrix:
 Charge =  0 Multiplicity = 1

                         Standard orientation:
 ---------------------------------------------------------------------
 Center     Atomic      Atomic             Coordinates (Angstroms)
 Number     Number       Type             X           Y           Z
 ---------------------------------------------------------------------
      1          6           0       -0.659401   -0.021289   -0.003828
      2          8           0        0.745169    0.108508   -0.004014
      3          1           0       -0.994121   -0.553585    0.906123
      4          1           0       -1.037882   -0.541258   -0.892687
      5          1           0       -1.058776    1.038936    0.028977
      6          1           0        1.085834   -0.684426    0.012665
 ---------------------------------------------------------------------

 SCF Done:  E(RB2PLYPD3) =  -115.541842810     A.U. after   10 cycles
 E2(B2PLYPD3) =    -0.1457318801D+00 E(B2PLYPD3) =    -0.11568757468986D+03

 The electronic state is 1-A.
 Alpha  occ. eigenvalues --  -19.71650 -10.66366  -1.18920  -0.79086  -0.60236
 Alpha  occ. eigenvalues --   -0.52079  -0.49714  -0.41254  -0.35629
 Alpha virt. eigenvalues --    0.05264   0.08723   0.12125   0.12261   0.14869
 Alpha virt. eigenvalues --    0.17152   0.17920   0.29031   0.33193   0.33587
 Alpha virt. eigenvalues --    0.37594   0.38093   0.40138   0.40691   0.43284

 Mulliken charges:
               1
     1  C    0.064500
     2  O   -0.403946
     3  H    0.046817
     4  H    0.050922
     5  H    0.068256
     6  H    0.173451
 Sum of Mulliken charges =   0.00000

 Dipole moment (field-independent basis, Debye):
    X=             -0.8845    Y=             -1.4457    Z=              0.0283  Tot=              1.6950
 Quadrupole moment (field-independent basis, Debye-Ang):
   XX=            -13.2583   YY=            -12.2623   ZZ=            -13.7015
   XY=             -2.0530   XZ=              0.0792   YZ=              0.0110

 Normal termination of Gaussian 09 at Thu Aug 27 00:07:46 2020.
