 Gaussian 09, Revision D.01,
 Gaussian 09:  ES64L-G09RevD.01 24-Apr-2013

 --------------------
 #p B2PLYPD3/Def2QZVP
 --------------------

 --------
 methanol
 --------
 Symbolic Z-matrix:
 Charge =  0 Multiplicity = 1

                         Standard orientation:
 ---------------------------------------------------------------------
 Center     Atomic      Atomic             Coordinates (Angstroms)
 Number     Number       Type             X           Y           Z
 ---------------------------------------------------------------------
      1          6           0        0.668732    0.025008    0.009389
      2          8           0       -0.738879   -0.142346   -0.003489
      3          1           0        0.995176    0.504588    0.847839
      4          1           0        1.020823    0.557823   -0.843008
      5          1           0        1.047139   -0.949145   -0.036264
      6          1           0       -1.164493    0.875453    0.003013
 ---------------------------------------------------------------------

 SCF Done:  E(RB2PLYPD3) =  -115.530898059     A.U. after   11 cycles
 E2(B2PLYPD3) =    -0.1494664425D+00 E(B2PLYPD3) =    -0.11568036450198D+03

 The electronic state is 1-A.
 Alpha  occ. eigenvalues --  -19.73438 -10.63748  -1.13859  -0.78794  -0.57339
 Alpha  occ. eigenvalues --   -0.52496  -0.49340  -0.40986  -0.35136
 Alpha virt. eigenvalues --    0.03764   0.07973   0.12529   0.12668   0.15014
 Alpha virt. eigenvalues --    0.17207   0.18139   0.28888   0.30299   0.33484
 Alpha virt. eigenvalues --    0.34236   0.39116   0.39851   0.42308   0.44480

 Mulliken charges:
               1
     1  C    0.082738
     2  O   -0.488441
     3  H    0.048173
     4  H    0.042418
     5  H    0.067750
     6  H    0.247362
 Sum of Mulliken charges =   0.00000

 Dipole moment (field-independent basis, Debye):
    X=              0.9145    Y=              1.6281    Z=              0.0412  Tot=              1.8678
 Quadrupole moment (field-independent basis, Debye-Ang):
   XX=            -13.0510   YY=            -11.8907   ZZ=            -13.8248
   XY=             -2.3310   XZ=              0.0012   YZ=              0.0572

 Normal termination of Gaussian 09 at Wed Aug 26 11:35:51 2020.
