 Gaussian 09, Revision D.01,
 Gaussian 09:  ES64L-G09RevD.01 24-Apr-2013

 --------------------
 #p B2PLYPD3/Def2QZVP
 --------------------

 --------
 methanol
 --------
 Symbolic Z-matrix:
 Charge =  0 Multiplicity = 1

                         Standard orientation:
 ---------------------------------------------------------------------
 Center     Atomic      Atomic             Coordinates (Angstroms)
 Number     Number       Type             X           Y           Z
 ---------------------------------------------------------------------
      1          6           0       -0.662777    0.023770    0.009123
      2          8           0        0.737715   -0.155331   -0.013822
      3          1           0       -1.121639    0.593184   -0.798156
      4          1           0       -1.019616    0.472467    0.837284
      5          1           0       -1.057363   -0.907167   -0.023612
      6          1           0        1.273563    0.941544    0.040324
 ---------------------------------------------------------------------

 SCF Done:  E(RB2PLYPD3) =  -115.499355261     A.U. after   11 cycles
 E2(B2PLYPD3) =    -0.1518100976D+00 E(B2PLYPD3) =    -0.11565116535889D+03

 The electronic state is 1-A.
 Alpha  occ. eigenvalues --  -19.74479 -10.63382  -1.12842  -0.78971  -0.56342
 Alpha  occ. eigenvalues --   -0.51325  -0.49725  -0.40369  -0.34946
 Alpha virt. eigenvalues --    0.02026   0.07507   0.12640   0.12978   0.15177
 Alpha virt. eigenvalues --    0.17188   0.18474   0.25820   0.29517   0.33596
 Alpha virt. eigenvalues --    0.34722   0.38661   0.39520   0.41554   0.44425

 Mulliken charges:
               1
     1  C    0.081484
     2  O   -0.490062
     3  H    0.038714
     4  H    0.046342
     5  H    0.067986
     6  H    0.255537
 Sum of Mulliken charges =   0.00000

 Dipole moment (field-independent basis, Debye):
    X=             -0.7916    Y=              1.6431    Z=              0.1636  Tot=              1.8311
 Quadrupole moment (field-independent basis, Debye-Ang):
   XX=            -12.5252   YY=            -11.8960   ZZ=            -14.0791
   XY=              2.5250   XZ=              0.0848   YZ=              0.1068

 Normal termination of Gaussian 09 at Wed Aug 26 11:05:44 2020.
