 Gaussian 09, Revision D.01,
 Gaussian 09:  ES64L-G09RevD.01 24-Apr-2013

 --------------------
 #p B2PLYPD3/Def2QZVP
 --------------------

 --------
 methanol
 --------
 Symbolic Z-matrix:
 Charge =  0 Multiplicity = 1

                         Standard orientation:
 ---------------------------------------------------------------------
 Center     Atomic      Atomic             Coordinates (Angstroms)
 Number     Number       Type             X           Y           Z
 ---------------------------------------------------------------------
      1          6           0        0.669675    0.064043    0.009893
      2          8           0       -0.755454   -0.163195   -0.024752
      3          1           0        1.044939    0.235914    0.867992
      4          1           0        1.060239    0.741932   -0.690536
      5          1           0        1.201831   -0.946025   -0.166688
      6          1           0       -1.281422    0.889478    0.127887
 ---------------------------------------------------------------------

 SCF Done:  E(RB2PLYPD3) =  -115.494252519     A.U. after   11 cycles
 E2(B2PLYPD3) =    -0.1518791239D+00 E(B2PLYPD3) =    -0.11564613164318D+03

 The electronic state is 1-A.
 Alpha  occ. eigenvalues --  -19.74548 -10.64211  -1.12173  -0.79421  -0.55176
 Alpha  occ. eigenvalues --   -0.53275  -0.48083  -0.39490  -0.35779
 Alpha virt. eigenvalues --    0.02651   0.07173   0.12198   0.12984   0.14808
 Alpha virt. eigenvalues --    0.17414   0.18978   0.26509   0.29152   0.33106
 Alpha virt. eigenvalues --    0.34153   0.36656   0.39857   0.42539   0.43861

 Mulliken charges:
               1
     1  C    0.078463
     2  O   -0.494890
     3  H    0.064520
     4  H    0.053505
     5  H    0.043175
     6  H    0.255227
 Sum of Mulliken charges =   0.00000

 Dipole moment (field-independent basis, Debye):
    X=              0.8566    Y=              1.7339    Z=              0.3474  Tot=              1.9649
 Quadrupole moment (field-independent basis, Debye-Ang):
   XX=            -12.3938   YY=            -12.2259   ZZ=            -13.9852
   XY=             -2.4495   XZ=             -0.2156   YZ=              0.0474

 Normal termination of Gaussian 09 at Wed Aug 26 23:54:20 2020.
