 Gaussian 09, Revision D.01,
 Gaussian 09:  ES64L-G09RevD.01 24-Apr-2013

 --------------------
 #p B2PLYPD3/Def2QZVP
 --------------------

 --------
 methanol
 --------
 Symbolic Z-matrix:
 Charge =  0 Multiplicity = 1

                         Standard orientation:
 ---------------------------------------------------------------------
 Center     Atomic      Atomic             Coordinates (Angstroms)
 Number     Number       Type             X           Y           Z
 ---------------------------------------------------------------------
      1          6           0        0.667903   -0.016280   -0.004859
      2          8           0       -0.747544    0.093861   -0.004942
      3          1           0        1.013622   -0.659709   -0.869188
      4          1           0        1.072589   -0.412827    0.989015
      5          1           0        1.003215    1.040819   -0.116504
      6          1           0       -1.116496   -0.621490    0.065365
 ---------------------------------------------------------------------

 SCF Done:  E(RB2PLYPD3) =  -115.519825445     A.U. after   10 cycles
 E2(B2PLYPD3) =    -0.1451424153D+00 E(B2PLYPD3) =    -0.11566496786033D+03

 The electronic state is 1-A.
 Alpha  occ. eigenvalues --  -19.70928 -10.67183  -1.20015  -0.79826  -0.60393
 Alpha  occ. eigenvalues --   -0.51553  -0.49910  -0.41062  -0.35696
 Alpha virt. eigenvalues --    0.05394   0.08816   0.12020   0.12175   0.14717
 Alpha virt. eigenvalues --    0.16789   0.18033   0.28937   0.32968   0.33315
 Alpha virt. eigenvalues --    0.37240   0.39037   0.39759   0.40177   0.42644

 Mulliken charges:
               1
     1  C    0.057042
     2  O   -0.361477
     3  H    0.051261
     4  H    0.049274
     5  H    0.077095
     6  H    0.126804
 Sum of Mulliken charges =   0.00000

 Dipole moment (field-independent basis, Debye):
    X=              0.8547    Y=             -1.3176    Z=              0.1141  Tot=              1.5747
 Quadrupole moment (field-independent basis, Debye-Ang):
   XX=            -13.1366   YY=            -12.4032   ZZ=            -13.6304
   XY=              2.0165   XZ=             -0.1596   YZ=             -0.0585

 Normal termination of Gaussian 09 at Wed Aug 26 15:56:45 2020.
