 Gaussian 09, Revision D.01,
 Gaussian 09:  ES64L-G09RevD.01 24-Apr-2013

 --------------------
 #p B2PLYPD3/Def2QZVP
 --------------------

 --------
 methanol
 --------
 Symbolic Z-matrix:
 Charge =  0 Multiplicity = 1

                         Standard orientation:
 ---------------------------------------------------------------------
 Center     Atomic      Atomic             Coordinates (Angstroms)
 Number     Number       Type             X           Y           Z
 ---------------------------------------------------------------------
      1          6           0        0.656572   -0.008634    0.000842
      2          8           0       -0.747046    0.105179    0.002413
      3          1           0        1.060024   -0.555245   -0.907154
      4          1           0        1.029148   -0.573271    0.914083
      5          1           0        1.078211    1.007058   -0.001533
      6          1           0       -1.130450   -0.668169   -0.029754
 ---------------------------------------------------------------------

 SCF Done:  E(RB2PLYPD3) =  -115.541360426     A.U. after   10 cycles
 E2(B2PLYPD3) =    -0.1458008995D+00 E(B2PLYPD3) =    -0.11568716132536D+03

 The electronic state is 1-A.
 Alpha  occ. eigenvalues --  -19.71803 -10.66816  -1.18817  -0.79209  -0.60216
 Alpha  occ. eigenvalues --   -0.51144  -0.50493  -0.41092  -0.35343
 Alpha virt. eigenvalues --    0.05280   0.08539   0.12201   0.12329   0.14887
 Alpha virt. eigenvalues --    0.17215   0.17937   0.29049   0.32989   0.33867
 Alpha virt. eigenvalues --    0.36930   0.39102   0.39582   0.39765   0.42906

 Mulliken charges:
               1
     1  C    0.063861
     2  O   -0.404707
     3  H    0.042231
     4  H    0.043683
     5  H    0.076674
     6  H    0.178258
 Sum of Mulliken charges =   0.00000

 Dipole moment (field-independent basis, Debye):
    X=              0.8026    Y=             -1.3705    Z=             -0.0649  Tot=              1.5895
 Quadrupole moment (field-independent basis, Debye-Ang):
   XX=            -12.9964   YY=            -12.3686   ZZ=            -13.8353
   XY=              2.1817   XZ=              0.0431   YZ=              0.0311

 Normal termination of Gaussian 09 at Thu Aug 27 00:03:38 2020.
