 Gaussian 09, Revision D.01,
 Gaussian 09:  ES64L-G09RevD.01 24-Apr-2013

 --------------------
 #p B2PLYPD3/Def2QZVP
 --------------------

 --------
 methanol
 --------
 Symbolic Z-matrix:
 Charge =  0 Multiplicity = 1

                         Standard orientation:
 ---------------------------------------------------------------------
 Center     Atomic      Atomic             Coordinates (Angstroms)
 Number     Number       Type             X           Y           Z
 ---------------------------------------------------------------------
      1          6           0       -0.667967    0.013376   -0.004509
      2          8           0        0.749901   -0.139135   -0.005291
      3          1           0       -1.040471    0.594598   -0.836726
      4          1           0       -1.062879    0.485215    0.883739
      5          1           0       -1.079653   -0.915217   -0.024540
      6          1           0        1.191594    0.868230    0.046907
 ---------------------------------------------------------------------

 SCF Done:  E(RB2PLYPD3) =  -115.531991851     A.U. after   11 cycles
 E2(B2PLYPD3) =    -0.1497306084D+00 E(B2PLYPD3) =    -0.11568172245954D+03

 The electronic state is 1-A.
 Alpha  occ. eigenvalues --  -19.73724 -10.64423  -1.13616  -0.78765  -0.56907
 Alpha  occ. eigenvalues --   -0.51280  -0.50017  -0.41046  -0.35057
 Alpha virt. eigenvalues --    0.03756   0.07736   0.12571   0.12730   0.14945
 Alpha virt. eigenvalues --    0.17370   0.18301   0.28843   0.30246   0.33451
 Alpha virt. eigenvalues --    0.33824   0.38825   0.40310   0.41087   0.43599

 Mulliken charges:
               1
     1  C    0.077981
     2  O   -0.488909
     3  H    0.044041
     4  H    0.042395
     5  H    0.071995
     6  H    0.252496
 Sum of Mulliken charges =   0.00000

 Dipole moment (field-independent basis, Debye):
    X=             -0.8844    Y=              1.5779    Z=              0.0881  Tot=              1.8110
 Quadrupole moment (field-independent basis, Debye-Ang):
   XX=            -12.8270   YY=            -12.0069   ZZ=            -13.9606
   XY=              2.4523   XZ=              0.0910   YZ=              0.0348

 Normal termination of Gaussian 09 at Thu Aug 27 00:11:30 2020.
