 Gaussian 09, Revision D.01,
 Gaussian 09:  ES64L-G09RevD.01 24-Apr-2013

 --------------------
 #p B2PLYPD3/Def2QZVP
 --------------------

 --------
 methanol
 --------
 Symbolic Z-matrix:
 Charge =  0 Multiplicity = 1

                         Standard orientation:
 ---------------------------------------------------------------------
 Center     Atomic      Atomic             Coordinates (Angstroms)
 Number     Number       Type             X           Y           Z
 ---------------------------------------------------------------------
      1          6           0        0.663422    0.015212   -0.003481
      2          8           0       -0.747044   -0.141263   -0.002992
      3          1           0        1.036084    0.483476    0.891036
      4          1           0        0.987808    0.610351   -0.837124
      5          1           0        1.131907   -0.904238   -0.048362
      6          1           0       -1.159985    0.849242    0.039272
 ---------------------------------------------------------------------

 SCF Done:  E(RB2PLYPD3) =  -115.538225734     A.U. after   11 cycles
 E2(B2PLYPD3) =    -0.1490477897D+00 E(B2PLYPD3) =    -0.11568727352346D+03

 The electronic state is 1-A.
 Alpha  occ. eigenvalues --  -19.73462 -10.64458  -1.14242  -0.78714  -0.57123
 Alpha  occ. eigenvalues --   -0.51770  -0.50323  -0.40941  -0.35059
 Alpha virt. eigenvalues --    0.04015   0.07876   0.12510   0.12769   0.14782
 Alpha virt. eigenvalues --    0.17711   0.18147   0.29118   0.30785   0.33243
 Alpha virt. eigenvalues --    0.33866   0.39339   0.40635   0.41344   0.43562

 Mulliken charges:
               1
     1  C    0.080130
     2  O   -0.484244
     3  H    0.042124
     4  H    0.042108
     5  H    0.069752
     6  H    0.250130
 Sum of Mulliken charges =   0.00000

 Dipole moment (field-independent basis, Debye):
    X=              0.9026    Y=              1.5826    Z=              0.0654  Tot=              1.8231
 Quadrupole moment (field-independent basis, Debye-Ang):
   XX=            -12.9339   YY=            -12.0547   ZZ=            -13.8904
   XY=             -2.4672   XZ=             -0.0628   YZ=              0.0325

 Normal termination of Gaussian 09 at Wed Aug 26 09:59:25 2020.
