 Gaussian 09, Revision D.01,
 Gaussian 09:  ES64L-G09RevD.01 24-Apr-2013

 --------------------
 #p B2PLYPD3/Def2QZVP
 --------------------

 --------
 methanol
 --------
 Symbolic Z-matrix:
 Charge =  0 Multiplicity = 1

                         Standard orientation:
 ---------------------------------------------------------------------
 Center     Atomic      Atomic             Coordinates (Angstroms)
 Number     Number       Type             X           Y           Z
 ---------------------------------------------------------------------
      1          6           0        0.647033    0.021117   -0.007451
      2          8           0       -0.725861   -0.153728   -0.006287
      3          1           0        1.071275    0.361422    0.836305
      4          1           0        0.868558    0.725928   -0.741279
      5          1           0        1.055023   -0.929556   -0.122192
      6          1           0       -1.070164    0.945325    0.122164
 ---------------------------------------------------------------------

 SCF Done:  E(RB2PLYPD3) =  -115.509156856     A.U. after   11 cycles
 E2(B2PLYPD3) =    -0.1502817182D+00 E(B2PLYPD3) =    -0.11565943857433D+03

 The electronic state is 1-A.
 Alpha  occ. eigenvalues --  -19.73924 -10.62933  -1.14825  -0.78704  -0.57839
 Alpha  occ. eigenvalues --   -0.53415  -0.49236  -0.41045  -0.34719
 Alpha virt. eigenvalues --    0.02788   0.08045   0.12364   0.12846   0.15128
 Alpha virt. eigenvalues --    0.17260   0.18227   0.27388   0.29575   0.32609
 Alpha virt. eigenvalues --    0.35599   0.39217   0.39748   0.43222   0.44966

 Mulliken charges:
               1
     1  C    0.091881
     2  O   -0.470465
     3  H    0.035057
     4  H    0.033711
     5  H    0.061918
     6  H    0.247899
 Sum of Mulliken charges =   0.00000

 Dipole moment (field-independent basis, Debye):
    X=              0.9552    Y=              1.6776    Z=              0.2397  Tot=              1.9453
 Quadrupole moment (field-independent basis, Debye-Ang):
   XX=            -13.4883   YY=            -11.5595   ZZ=            -13.9428
   XY=             -2.2484   XZ=             -0.0127   YZ=              0.1307

 Normal termination of Gaussian 09 at Wed Aug 26 23:52:44 2020.
