 Gaussian 09, Revision D.01,
 Gaussian 09:  ES64L-G09RevD.01 24-Apr-2013

 --------------------
 #p B2PLYPD3/Def2QZVP
 --------------------

 --------
 methanol
 --------
 Symbolic Z-matrix:
 Charge =  0 Multiplicity = 1

                         Standard orientation:
 ---------------------------------------------------------------------
 Center     Atomic      Atomic             Coordinates (Angstroms)
 Number     Number       Type             X           Y           Z
 ---------------------------------------------------------------------
      1          6           0        0.714452    0.024425    0.030476
      2          8           0       -0.756981   -0.181035   -0.030148
      3          1           0        0.916027    0.278239    0.803038
      4          1           0        1.082266    0.698639   -0.724889
      5          1           0        0.988802   -0.823087   -0.130705
      6          1           0       -1.217956    1.147940    0.110885
 ---------------------------------------------------------------------

 SCF Done:  E(RB2PLYPD3) =  -115.366875425     A.U. after   12 cycles
 E2(B2PLYPD3) =    -0.1569727704D+00 E(B2PLYPD3) =    -0.11552384819522D+03

 The electronic state is 1-A.
 Alpha  occ. eigenvalues --  -19.75076 -10.60738  -1.09745  -0.82274  -0.57671
 Alpha  occ. eigenvalues --   -0.53139  -0.46724  -0.39958  -0.35545
 Alpha virt. eigenvalues --   -0.01157   0.07452   0.12532   0.12683   0.14487
 Alpha virt. eigenvalues --    0.16836   0.18350   0.22364   0.28895   0.31936
 Alpha virt. eigenvalues --    0.33504   0.38090   0.40259   0.42324   0.46295

 Mulliken charges:
               1
     1  C    0.007736
     2  O   -0.504886
     3  H    0.124932
     4  H    0.054936
     5  H    0.092496
     6  H    0.224787
 Sum of Mulliken charges =   0.00000

 Dipole moment (field-independent basis, Debye):
    X=              1.3474    Y=              1.6520    Z=              0.2944  Tot=              2.1521
 Quadrupole moment (field-independent basis, Debye-Ang):
   XX=            -13.1355   YY=            -11.2448   ZZ=            -13.7512
   XY=             -2.3841   XZ=             -0.1988   YZ=              0.2099

 Normal termination of Gaussian 09 at Wed Aug 26 18:46:39 2020.
