 Gaussian 09, Revision D.01,
 Gaussian 09:  ES64L-G09RevD.01 24-Apr-2013

 --------------------
 #p B2PLYPD3/Def2QZVP
 --------------------

 --------
 methanol
 --------
 Symbolic Z-matrix:
 Charge =  0 Multiplicity = 1

                         Standard orientation:
 ---------------------------------------------------------------------
 Center     Atomic      Atomic             Coordinates (Angstroms)
 Number     Number       Type             X           Y           Z
 ---------------------------------------------------------------------
      1          6           0       -0.650215    0.009032    0.017941
      2          8           0        0.740267   -0.094394   -0.032148
      3          1           0       -1.012679    0.874241   -0.742715
      4          1           0       -1.033670    0.186952    1.050402
      5          1           0       -1.106281   -0.929612   -0.345391
      6          1           0        1.131785    0.569378    0.187238
 ---------------------------------------------------------------------

 SCF Done:  E(RB2PLYPD3) =  -115.512550681     A.U. after   11 cycles
 E2(B2PLYPD3) =    -0.1448782666D+00 E(B2PLYPD3) =    -0.11565742894762D+03

 The electronic state is 1-A.
 Alpha  occ. eigenvalues --  -19.71124 -10.67489  -1.20997  -0.80122  -0.60898
 Alpha  occ. eigenvalues --   -0.51554  -0.51039  -0.40334  -0.35455
 Alpha virt. eigenvalues --    0.05368   0.08788   0.11842   0.12489   0.14470
 Alpha virt. eigenvalues --    0.17257   0.18076   0.28716   0.32590   0.33973
 Alpha virt. eigenvalues --    0.36333   0.39051   0.40074   0.40258   0.43035

 Mulliken charges:
               1
     1  C    0.055564
     2  O   -0.343954
     3  H    0.032337
     4  H    0.053021
     5  H    0.077631
     6  H    0.125402
 Sum of Mulliken charges =   0.00000

 Dipole moment (field-independent basis, Debye):
    X=             -0.7305    Y=              1.1523    Z=              0.4806  Tot=              1.4465
 Quadrupole moment (field-independent basis, Debye-Ang):
   XX=            -12.9517   YY=            -12.7904   ZZ=            -13.5338
   XY=              2.1519   XZ=              0.5678   YZ=              0.3347

 Normal termination of Gaussian 09 at Wed Aug 26 14:32:39 2020.
