 Gaussian 09, Revision D.01,
 Gaussian 09:  ES64L-G09RevD.01 24-Apr-2013

 --------------------
 #p B2PLYPD3/Def2QZVP
 --------------------

 --------
 methanol
 --------
 Symbolic Z-matrix:
 Charge =  0 Multiplicity = 1

                         Standard orientation:
 ---------------------------------------------------------------------
 Center     Atomic      Atomic             Coordinates (Angstroms)
 Number     Number       Type             X           Y           Z
 ---------------------------------------------------------------------
      1          6           0        0.665787   -0.017575    0.008292
      2          8           0       -0.749923    0.097874   -0.005929
      3          1           0        1.043442   -0.604273   -0.893290
      4          1           0        0.980514   -0.498938    0.946087
      5          1           0        1.059202    1.046087   -0.057863
      6          1           0       -1.078494   -0.620415    0.002749
 ---------------------------------------------------------------------

 SCF Done:  E(RB2PLYPD3) =  -115.510957348     A.U. after   10 cycles
 E2(B2PLYPD3) =    -0.1447935474D+00 E(B2PLYPD3) =    -0.11565575089571D+03

 The electronic state is 1-A.
 Alpha  occ. eigenvalues --  -19.70736 -10.67049  -1.20805  -0.79891  -0.60722
 Alpha  occ. eigenvalues --   -0.51991  -0.49859  -0.41324  -0.35831
 Alpha virt. eigenvalues --    0.05394   0.08972   0.12023   0.12126   0.14684
 Alpha virt. eigenvalues --    0.17059   0.17794   0.28925   0.32808   0.33238
 Alpha virt. eigenvalues --    0.37443   0.38737   0.39843   0.40571   0.43055

 Mulliken charges:
               1
     1  C    0.062238
     2  O   -0.344860
     3  H    0.046062
     4  H    0.054635
     5  H    0.073766
     6  H    0.108159
 Sum of Mulliken charges =   0.00000

 Dipole moment (field-independent basis, Debye):
    X=              0.9380    Y=             -1.3508    Z=              0.0500  Tot=              1.6453
 Quadrupole moment (field-independent basis, Debye-Ang):
   XX=            -13.2564   YY=            -12.3482   ZZ=            -13.5989
   XY=              2.0088   XZ=             -0.0514   YZ=             -0.0524

 Normal termination of Gaussian 09 at Wed Aug 26 15:45:36 2020.
