 Gaussian 09, Revision D.01,
 Gaussian 09:  ES64L-G09RevD.01 24-Apr-2013

 --------------------
 #p B2PLYPD3/Def2QZVP
 --------------------

 --------
 methanol
 --------
 Symbolic Z-matrix:
 Charge =  0 Multiplicity = 1

                         Standard orientation:
 ---------------------------------------------------------------------
 Center     Atomic      Atomic             Coordinates (Angstroms)
 Number     Number       Type             X           Y           Z
 ---------------------------------------------------------------------
      1          6           0        0.661080   -0.014192   -0.011336
      2          8           0       -0.751188    0.119634    0.003961
      3          1           0        1.041660   -0.530063   -0.887076
      4          1           0        1.147036   -0.483090    0.906314
      5          1           0        0.987085    0.963035   -0.012935
      6          1           0       -1.132758   -0.821804    0.030023
 ---------------------------------------------------------------------

 SCF Done:  E(RB2PLYPD3) =  -115.543847073     A.U. after   10 cycles
 E2(B2PLYPD3) =    -0.1485483931D+00 E(B2PLYPD3) =    -0.11569239546609D+03

 The electronic state is 1-A.
 Alpha  occ. eigenvalues --  -19.73374 -10.65258  -1.15383  -0.78559  -0.58171
 Alpha  occ. eigenvalues --   -0.51291  -0.49649  -0.41410  -0.35339
 Alpha virt. eigenvalues --    0.04593   0.07918   0.12378   0.12555   0.15080
 Alpha virt. eigenvalues --    0.16952   0.18560   0.28856   0.32721   0.33666
 Alpha virt. eigenvalues --    0.34346   0.37651   0.39898   0.40816   0.43767

 Mulliken charges:
               1
     1  C    0.059413
     2  O   -0.462339
     3  H    0.050249
     4  H    0.041174
     5  H    0.073199
     6  H    0.238303
 Sum of Mulliken charges =   0.00000

 Dipole moment (field-independent basis, Debye):
    X=              0.8675    Y=             -1.4849    Z=             -0.0125  Tot=              1.7197
 Quadrupole moment (field-independent basis, Debye-Ang):
   XX=            -13.0937   YY=            -12.1232   ZZ=            -13.8729
   XY=              2.2346   XZ=             -0.0415   YZ=              0.0307

 Normal termination of Gaussian 09 at Wed Aug 26 15:24:17 2020.
