 Gaussian 09, Revision D.01,
 Gaussian 09:  ES64L-G09RevD.01 24-Apr-2013

 --------------------
 #p B2PLYPD3/Def2QZVP
 --------------------

 --------
 methanol
 --------
 Symbolic Z-matrix:
 Charge =  0 Multiplicity = 1

                         Standard orientation:
 ---------------------------------------------------------------------
 Center     Atomic      Atomic             Coordinates (Angstroms)
 Number     Number       Type             X           Y           Z
 ---------------------------------------------------------------------
      1          6           0       -0.638128    0.002947    0.021255
      2          8           0        0.745030   -0.060740   -0.031035
      3          1           0       -1.037722    1.049247   -0.611098
      4          1           0       -1.011967    0.074265    1.055025
      5          1           0       -1.124680   -1.024495   -0.478368
      6          1           0        1.042900    0.369218    0.155192
 ---------------------------------------------------------------------

 SCF Done:  E(RB2PLYPD3) =  -115.045309866     A.U. after   11 cycles
 E2(B2PLYPD3) =    -0.1430887537D+00 E(B2PLYPD3) =    -0.11518839862005D+03

 The electronic state is 1-A.
 Alpha  occ. eigenvalues --  -19.69113 -10.70097  -1.32261  -0.84421  -0.63433
 Alpha  occ. eigenvalues --   -0.51676  -0.50850  -0.40366  -0.36149
 Alpha virt. eigenvalues --    0.04924   0.09687   0.10968   0.11803   0.14526
 Alpha virt. eigenvalues --    0.16838   0.17564   0.27991   0.31311   0.33599
 Alpha virt. eigenvalues --    0.34353   0.35759   0.40315   0.41109   0.42763

 Mulliken charges:
               1
     1  C    0.049641
     2  O   -0.087787
     3  H    0.025408
     4  H    0.062506
     5  H    0.075769
     6  H   -0.125537
 Sum of Mulliken charges =   0.00000

 Dipole moment (field-independent basis, Debye):
    X=             -0.8260    Y=              0.8758    Z=              0.6049  Tot=              1.3473
 Quadrupole moment (field-independent basis, Debye-Ang):
   XX=            -13.1777   YY=            -12.7533   ZZ=            -13.4311
   XY=              1.7377   XZ=              0.5007   YZ=              0.3465

 Normal termination of Gaussian 09 at Wed Aug 26 20:22:30 2020.
