 Gaussian 09, Revision D.01,
 Gaussian 09:  ES64L-G09RevD.01 24-Apr-2013

 --------------------
 #p B2PLYPD3/Def2QZVP
 --------------------

 --------
 methanol
 --------
 Symbolic Z-matrix:
 Charge =  0 Multiplicity = 1

                         Standard orientation:
 ---------------------------------------------------------------------
 Center     Atomic      Atomic             Coordinates (Angstroms)
 Number     Number       Type             X           Y           Z
 ---------------------------------------------------------------------
      1          6           0       -0.661931    0.037311   -0.010907
      2          8           0        0.739117   -0.155587   -0.000942
      3          1           0       -1.080991    0.479296   -0.823826
      4          1           0       -0.991606    0.579565    0.829491
      5          1           0       -1.130274   -0.923555    0.079726
      6          1           0        1.261520    0.885521   -0.012409
 ---------------------------------------------------------------------

 SCF Done:  E(RB2PLYPD3) =  -115.516682062     A.U. after   11 cycles
 E2(B2PLYPD3) =    -0.1506428085D+00 E(B2PLYPD3) =    -0.11566732487045D+03

 The electronic state is 1-A.
 Alpha  occ. eigenvalues --  -19.74073 -10.63817  -1.13190  -0.78792  -0.56373
 Alpha  occ. eigenvalues --   -0.52215  -0.49463  -0.40052  -0.35192
 Alpha virt. eigenvalues --    0.02929   0.07550   0.12655   0.12857   0.14987
 Alpha virt. eigenvalues --    0.17432   0.18485   0.27330   0.29553   0.33548
 Alpha virt. eigenvalues --    0.34497   0.38932   0.39503   0.42370   0.44230

 Mulliken charges:
               1
     1  C    0.082284
     2  O   -0.491869
     3  H    0.049721
     4  H    0.042935
     5  H    0.060615
     6  H    0.256314
 Sum of Mulliken charges =   0.00000

 Dipole moment (field-independent basis, Debye):
    X=             -0.7860    Y=              1.6726    Z=             -0.0329  Tot=              1.8484
 Quadrupole moment (field-independent basis, Debye-Ang):
   XX=            -12.4908   YY=            -12.1133   ZZ=            -13.9617
   XY=              2.5136   XZ=              0.0562   YZ=             -0.0605

 Normal termination of Gaussian 09 at Wed Aug 26 13:13:26 2020.
