 Gaussian 09, Revision D.01,
 Gaussian 09:  ES64L-G09RevD.01 24-Apr-2013

 --------------------
 #p B2PLYPD3/Def2QZVP
 --------------------

 --------
 methanol
 --------
 Symbolic Z-matrix:
 Charge =  0 Multiplicity = 1

                         Standard orientation:
 ---------------------------------------------------------------------
 Center     Atomic      Atomic             Coordinates (Angstroms)
 Number     Number       Type             X           Y           Z
 ---------------------------------------------------------------------
      1          6           0       -0.657084   -0.020694    0.020052
      2          8           0        0.759168    0.088859   -0.040055
      3          1           0       -0.959402   -0.299874    1.032150
      4          1           0       -1.106960   -0.734999   -0.840891
      5          1           0       -1.112551    1.014651   -0.172376
      6          1           0        1.048074   -0.566485    0.181246
 ---------------------------------------------------------------------

 SCF Done:  E(RB2PLYPD3) =  -115.475075293     A.U. after   10 cycles
 E2(B2PLYPD3) =    -0.1447286229D+00 E(B2PLYPD3) =    -0.11561980391627D+03

 The electronic state is 1-A.
 Alpha  occ. eigenvalues --  -19.70747 -10.67869  -1.22721  -0.79987  -0.61151
 Alpha  occ. eigenvalues --   -0.51764  -0.50122  -0.41178  -0.36153
 Alpha virt. eigenvalues --    0.05370   0.08903   0.11718   0.12170   0.14314
 Alpha virt. eigenvalues --    0.17335   0.18161   0.28482   0.32708   0.32820
 Alpha virt. eigenvalues --    0.36023   0.37941   0.39781   0.40620   0.43682

 Mulliken charges:
               1
     1  C    0.052938
     2  O   -0.295165
     3  H    0.058523
     4  H    0.044899
     5  H    0.069507
     6  H    0.069299
 Sum of Mulliken charges =   0.00000

 Dipole moment (field-independent basis, Debye):
    X=             -0.9758    Y=             -1.1858    Z=              0.5332  Tot=              1.6256
 Quadrupole moment (field-independent basis, Debye-Ang):
   XX=            -13.2848   YY=            -12.7117   ZZ=            -13.3983
   XY=             -1.9297   XZ=              0.5924   YZ=             -0.2933

 Normal termination of Gaussian 09 at Wed Aug 26 15:24:37 2020.
