 Gaussian 09, Revision D.01,
 Gaussian 09:  ES64L-G09RevD.01 24-Apr-2013

 --------------------
 #p B2PLYPD3/Def2QZVP
 --------------------

 --------
 methanol
 --------
 Symbolic Z-matrix:
 Charge =  0 Multiplicity = 1

                         Standard orientation:
 ---------------------------------------------------------------------
 Center     Atomic      Atomic             Coordinates (Angstroms)
 Number     Number       Type             X           Y           Z
 ---------------------------------------------------------------------
      1          6           0        0.669250    0.066725   -0.018420
      2          8           0       -0.740704   -0.198181    0.000069
      3          1           0        0.970071    0.435949    0.818109
      4          1           0        0.940855    0.553311   -0.706725
      5          1           0        1.241578   -0.862525   -0.022577
      6          1           0       -1.242372    1.058359    0.021161
 ---------------------------------------------------------------------

 SCF Done:  E(RB2PLYPD3) =  -115.425123785     A.U. after   11 cycles
 E2(B2PLYPD3) =    -0.1545014482D+00 E(B2PLYPD3) =    -0.11557962523327D+03

 The electronic state is 1-A.
 Alpha  occ. eigenvalues --  -19.75079 -10.61535  -1.11436  -0.81031  -0.56166
 Alpha  occ. eigenvalues --   -0.53083  -0.48544  -0.39288  -0.35622
 Alpha virt. eigenvalues --   -0.00352   0.07348   0.12565   0.13030   0.14492
 Alpha virt. eigenvalues --    0.18012   0.18634   0.22902   0.29403   0.33351
 Alpha virt. eigenvalues --    0.33626   0.38167   0.40612   0.42495   0.45605

 Mulliken charges:
               1
     1  C    0.086303
     2  O   -0.493225
     3  H    0.051477
     4  H    0.070734
     5  H    0.044589
     6  H    0.240122
 Sum of Mulliken charges =   0.00000

 Dipole moment (field-independent basis, Debye):
    X=              1.0704    Y=              1.8565    Z=              0.0256  Tot=              2.1431
 Quadrupole moment (field-independent basis, Debye-Ang):
   XX=            -12.7545   YY=            -11.7147   ZZ=            -13.8463
   XY=             -2.4990   XZ=             -0.0191   YZ=             -0.0929

 Normal termination of Gaussian 09 at Wed Aug 26 23:39:51 2020.
