 Gaussian 09, Revision D.01,
 Gaussian 09:  ES64L-G09RevD.01 24-Apr-2013

 --------------------
 #p B2PLYPD3/Def2QZVP
 --------------------

 --------
 methanol
 --------
 Symbolic Z-matrix:
 Charge =  0 Multiplicity = 1

                         Standard orientation:
 ---------------------------------------------------------------------
 Center     Atomic      Atomic             Coordinates (Angstroms)
 Number     Number       Type             X           Y           Z
 ---------------------------------------------------------------------
      1          6           0        0.672930   -0.002506    0.004343
      2          8           0       -0.755317    0.078301   -0.018761
      3          1           0        1.089971   -0.803412   -0.780802
      4          1           0        1.054088   -0.250836    1.062502
      5          1           0        0.970544    1.016633   -0.276310
      6          1           0       -1.109647   -0.573756    0.118636
 ---------------------------------------------------------------------

 SCF Done:  E(RB2PLYPD3) =  -115.479903707     A.U. after   11 cycles
 E2(B2PLYPD3) =    -0.1447683064D+00 E(B2PLYPD3) =    -0.11562467201350D+03

 The electronic state is 1-A.
 Alpha  occ. eigenvalues --  -19.70383 -10.68029  -1.21585  -0.80513  -0.60574
 Alpha  occ. eigenvalues --   -0.50778  -0.50290  -0.41280  -0.35778
 Alpha virt. eigenvalues --    0.05382   0.08879   0.11732   0.12185   0.14616
 Alpha virt. eigenvalues --    0.16640   0.17984   0.28828   0.32472   0.32914
 Alpha virt. eigenvalues --    0.36063   0.38735   0.39717   0.40449   0.42415

 Mulliken charges:
               1
     1  C    0.050826
     2  O   -0.305684
     3  H    0.043873
     4  H    0.053733
     5  H    0.086321
     6  H    0.070932
 Sum of Mulliken charges =   0.00000

 Dipole moment (field-independent basis, Debye):
    X=              0.8968    Y=             -1.1855    Z=              0.2867  Tot=              1.5139
 Quadrupole moment (field-independent basis, Debye-Ang):
   XX=            -13.1624   YY=            -12.4751   ZZ=            -13.5799
   XY=              1.9148   XZ=             -0.3908   YZ=             -0.2308

 Normal termination of Gaussian 09 at Wed Aug 26 12:45:52 2020.
