 Gaussian 09, Revision D.01,
 Gaussian 09:  ES64L-G09RevD.01 24-Apr-2013

 --------------------
 #p B2PLYPD3/Def2QZVP
 --------------------

 --------
 methanol
 --------
 Symbolic Z-matrix:
 Charge =  0 Multiplicity = 1

                         Standard orientation:
 ---------------------------------------------------------------------
 Center     Atomic      Atomic             Coordinates (Angstroms)
 Number     Number       Type             X           Y           Z
 ---------------------------------------------------------------------
      1          6           0       -0.662806   -0.015514    0.001430
      2          8           0        0.757553    0.093230   -0.005718
      3          1           0       -1.035576   -0.545860    0.937928
      4          1           0       -0.986384   -0.625701   -0.925759
      5          1           0       -1.163510    1.050962   -0.031313
      6          1           0        1.101879   -0.532151    0.056309
 ---------------------------------------------------------------------

 SCF Done:  E(RB2PLYPD3) =  -115.442144895     A.U. after   11 cycles
 E2(B2PLYPD3) =    -0.1442156249D+00 E(B2PLYPD3) =    -0.11558636051969D+03

 The electronic state is 1-A.
 Alpha  occ. eigenvalues --  -19.70042 -10.68448  -1.23389  -0.80718  -0.61564
 Alpha  occ. eigenvalues --   -0.51392  -0.50104  -0.40829  -0.35963
 Alpha virt. eigenvalues --    0.05335   0.09062   0.11902   0.11943   0.14451
 Alpha virt. eigenvalues --    0.17303   0.17593   0.28769   0.32360   0.33061
 Alpha virt. eigenvalues --    0.35969   0.38303   0.38942   0.40225   0.42922

 Mulliken charges:
               1
     1  C    0.059487
     2  O   -0.271316
     3  H    0.049445
     4  H    0.048977
     5  H    0.077357
     6  H    0.036050
 Sum of Mulliken charges =   0.00000

 Dipole moment (field-independent basis, Debye):
    X=             -0.9421    Y=             -1.2557    Z=              0.1460  Tot=              1.5766
 Quadrupole moment (field-independent basis, Debye-Ang):
   XX=            -13.0089   YY=            -12.5633   ZZ=            -13.6483
   XY=             -2.0422   XZ=              0.1024   YZ=             -0.0814

 Normal termination of Gaussian 09 at Wed Aug 26 11:06:02 2020.
