 Gaussian 09, Revision D.01,
 Gaussian 09:  ES64L-G09RevD.01 24-Apr-2013

 --------------------
 #p B2PLYPD3/Def2QZVP
 --------------------

 --------
 methanol
 --------
 Symbolic Z-matrix:
 Charge =  0 Multiplicity = 1

                         Standard orientation:
 ---------------------------------------------------------------------
 Center     Atomic      Atomic             Coordinates (Angstroms)
 Number     Number       Type             X           Y           Z
 ---------------------------------------------------------------------
      1          6           0       -0.677136   -0.026016    0.015022
      2          8           0        0.762325    0.103191   -0.012649
      3          1           0       -0.996138   -0.462615    0.907530
      4          1           0       -1.059226   -0.633743   -0.860785
      5          1           0       -1.068322    1.081324   -0.078496
      6          1           0        1.087899   -0.654399    0.042808
 ---------------------------------------------------------------------

 SCF Done:  E(RB2PLYPD3) =  -115.523914039     A.U. after   10 cycles
 E2(B2PLYPD3) =    -0.1457101976D+00 E(B2PLYPD3) =    -0.11566962423653D+03

 The electronic state is 1-A.
 Alpha  occ. eigenvalues --  -19.71213 -10.66910  -1.18999  -0.79490  -0.60329
 Alpha  occ. eigenvalues --   -0.52012  -0.48654  -0.41523  -0.36044
 Alpha virt. eigenvalues --    0.05293   0.08723   0.11733   0.12247   0.14841
 Alpha virt. eigenvalues --    0.17057   0.17836   0.28990   0.31983   0.33358
 Alpha virt. eigenvalues --    0.36471   0.38408   0.39563   0.41338   0.43014

 Mulliken charges:
               1
     1  C    0.066098
     2  O   -0.387581
     3  H    0.062400
     4  H    0.050063
     5  H    0.067490
     6  H    0.141530
 Sum of Mulliken charges =   0.00000

 Dipole moment (field-independent basis, Debye):
    X=             -1.0224    Y=             -1.4522    Z=              0.1785  Tot=              1.7849
 Quadrupole moment (field-independent basis, Debye-Ang):
   XX=            -13.2393   YY=            -12.2576   ZZ=            -13.6695
   XY=             -1.9475   XZ=              0.1047   YZ=             -0.1303

 Normal termination of Gaussian 09 at Wed Aug 26 13:24:08 2020.
