 Gaussian 09, Revision D.01,
 Gaussian 09:  ES64L-G09RevD.01 24-Apr-2013

 --------------------
 #p B2PLYPD3/Def2QZVP
 --------------------

 --------
 methanol
 --------
 Symbolic Z-matrix:
 Charge =  0 Multiplicity = 1

                         Standard orientation:
 ---------------------------------------------------------------------
 Center     Atomic      Atomic             Coordinates (Angstroms)
 Number     Number       Type             X           Y           Z
 ---------------------------------------------------------------------
      1          6           0        0.656390    0.022012   -0.002317
      2          8           0       -0.738045   -0.146693    0.002824
      3          1           0        1.013319    0.539258    0.868071
      4          1           0        1.028806    0.519810   -0.855370
      5          1           0        1.096171   -0.905761    0.000483
      6          1           0       -1.172276    0.888163   -0.021874
 ---------------------------------------------------------------------

 SCF Done:  E(RB2PLYPD3) =  -115.528312604     A.U. after   11 cycles
 E2(B2PLYPD3) =    -0.1497451708D+00 E(B2PLYPD3) =    -0.11567805777465D+03

 The electronic state is 1-A.
 Alpha  occ. eigenvalues --  -19.73810 -10.63920  -1.14146  -0.78601  -0.56886
 Alpha  occ. eigenvalues --   -0.52071  -0.50202  -0.40652  -0.35050
 Alpha virt. eigenvalues --    0.03455   0.07821   0.12601   0.12793   0.14912
 Alpha virt. eigenvalues --    0.17539   0.18326   0.28417   0.29793   0.33389
 Alpha virt. eigenvalues --    0.34680   0.39180   0.40527   0.41772   0.43689

 Mulliken charges:
               1
     1  C    0.078240
     2  O   -0.482990
     3  H    0.042196
     4  H    0.042894
     5  H    0.065876
     6  H    0.253785
 Sum of Mulliken charges =   0.00000

 Dipole moment (field-independent basis, Debye):
    X=              0.8506    Y=              1.6081    Z=             -0.0574  Tot=              1.8201
 Quadrupole moment (field-independent basis, Debye-Ang):
   XX=            -12.9383   YY=            -12.0045   ZZ=            -13.8767
   XY=             -2.4622   XZ=              0.0135   YZ=             -0.0384

 Normal termination of Gaussian 09 at Wed Aug 26 16:02:16 2020.
