 Gaussian 09, Revision D.01,
 Gaussian 09:  ES64L-G09RevD.01 24-Apr-2013

 --------------------
 #p B2PLYPD3/Def2QZVP
 --------------------

 --------
 methanol
 --------
 Symbolic Z-matrix:
 Charge =  0 Multiplicity = 1

                         Standard orientation:
 ---------------------------------------------------------------------
 Center     Atomic      Atomic             Coordinates (Angstroms)
 Number     Number       Type             X           Y           Z
 ---------------------------------------------------------------------
      1          6           0        0.682156    0.016392    0.001674
      2          8           0       -0.747957   -0.146356    0.000040
      3          1           0        1.024352    0.479324    0.886834
      4          1           0        1.001801    0.604297   -0.824994
      5          1           0        1.075443   -0.897814   -0.076975
      6          1           0       -1.210876    0.886687    0.004774
 ---------------------------------------------------------------------

 SCF Done:  E(RB2PLYPD3) =  -115.523278622     A.U. after   11 cycles
 E2(B2PLYPD3) =    -0.1502036112D+00 E(B2PLYPD3) =    -0.11567348223322D+03

 The electronic state is 1-A.
 Alpha  occ. eigenvalues --  -19.73544 -10.63817  -1.12644  -0.79074  -0.56372
 Alpha  occ. eigenvalues --   -0.51786  -0.49859  -0.40877  -0.34997
 Alpha virt. eigenvalues --    0.03439   0.07778   0.12589   0.12746   0.14774
 Alpha virt. eigenvalues --    0.17320   0.18113   0.28466   0.29798   0.33267
 Alpha virt. eigenvalues --    0.33437   0.38998   0.40887   0.41628   0.43693

 Mulliken charges:
               1
     1  C    0.086033
     2  O   -0.503392
     3  H    0.048727
     4  H    0.043357
     5  H    0.073227
     6  H    0.252048
 Sum of Mulliken charges =   0.00000

 Dipole moment (field-independent basis, Debye):
    X=              0.9473    Y=              1.6079    Z=              0.0015  Tot=              1.8663
 Quadrupole moment (field-independent basis, Debye-Ang):
   XX=            -12.8314   YY=            -11.9236   ZZ=            -13.8610
   XY=             -2.5063   XZ=             -0.0108   YZ=              0.0280

 Normal termination of Gaussian 09 at Wed Aug 26 22:57:58 2020.
