 Gaussian 09, Revision D.01,
 Gaussian 09:  ES64L-G09RevD.01 24-Apr-2013

 --------------------
 #p B2PLYPD3/Def2QZVP
 --------------------

 --------
 methanol
 --------
 Symbolic Z-matrix:
 Charge =  0 Multiplicity = 1

                         Standard orientation:
 ---------------------------------------------------------------------
 Center     Atomic      Atomic             Coordinates (Angstroms)
 Number     Number       Type             X           Y           Z
 ---------------------------------------------------------------------
      1          6           0       -0.663132    0.015674   -0.004635
      2          8           0        0.738405   -0.142303   -0.000625
      3          1           0       -1.004417    0.542142   -0.850383
      4          1           0       -0.982445    0.535159    0.875212
      5          1           0       -1.075953   -0.909653    0.008187
      6          1           0        1.134366    0.876734   -0.000204
 ---------------------------------------------------------------------

 SCF Done:  E(RB2PLYPD3) =  -115.532661639     A.U. after   11 cycles
 E2(B2PLYPD3) =    -0.1491655951D+00 E(B2PLYPD3) =    -0.11568182723385D+03

 The electronic state is 1-A.
 Alpha  occ. eigenvalues --  -19.73403 -10.63782  -1.14297  -0.78793  -0.57287
 Alpha  occ. eigenvalues --   -0.52248  -0.50218  -0.41099  -0.34967
 Alpha virt. eigenvalues --    0.03805   0.08035   0.12527   0.12746   0.14861
 Alpha virt. eigenvalues --    0.17507   0.18072   0.28988   0.30384   0.33244
 Alpha virt. eigenvalues --    0.34360   0.39260   0.40972   0.41783   0.43889

 Mulliken charges:
               1
     1  C    0.082350
     2  O   -0.484101
     3  H    0.042863
     4  H    0.040673
     5  H    0.069202
     6  H    0.249013
 Sum of Mulliken charges =   0.00000

 Dipole moment (field-independent basis, Debye):
    X=             -0.9253    Y=              1.5958    Z=             -0.0107  Tot=              1.8447
 Quadrupole moment (field-independent basis, Debye-Ang):
   XX=            -13.1440   YY=            -11.8982   ZZ=            -13.8122
   XY=              2.4000   XZ=              0.0353   YZ=             -0.0286

 Normal termination of Gaussian 09 at Thu Aug 27 00:09:36 2020.
