 Gaussian 09, Revision D.01,
 Gaussian 09:  ES64L-G09RevD.01 24-Apr-2013

 --------------------
 #p B2PLYPD3/Def2QZVP
 --------------------

 --------
 methanol
 --------
 Symbolic Z-matrix:
 Charge =  0 Multiplicity = 1

                         Standard orientation:
 ---------------------------------------------------------------------
 Center     Atomic      Atomic             Coordinates (Angstroms)
 Number     Number       Type             X           Y           Z
 ---------------------------------------------------------------------
      1          6           0        0.639642    0.035521   -0.005528
      2          8           0       -0.736915   -0.150122    0.007974
      3          1           0        1.030764    0.548879    0.832213
      4          1           0        1.050500    0.495903   -0.806503
      5          1           0        1.110478   -0.967866   -0.002789
      6          1           0       -1.134279    0.910938   -0.053550
 ---------------------------------------------------------------------

 SCF Done:  E(RB2PLYPD3) =  -115.521188426     A.U. after   11 cycles
 E2(B2PLYPD3) =    -0.1501268703D+00 E(B2PLYPD3) =    -0.11567131529648D+03

 The electronic state is 1-A.
 Alpha  occ. eigenvalues --  -19.74321 -10.64007  -1.14892  -0.78444  -0.57469
 Alpha  occ. eigenvalues --   -0.52472  -0.49584  -0.40329  -0.35315
 Alpha virt. eigenvalues --    0.03201   0.07721   0.12426   0.12827   0.15167
 Alpha virt. eigenvalues --    0.17618   0.18424   0.27851   0.29619   0.33650
 Alpha virt. eigenvalues --    0.35509   0.37817   0.39943   0.42281   0.44721

 Mulliken charges:
               1
     1  C    0.078116
     2  O   -0.467935
     3  H    0.041700
     4  H    0.043537
     5  H    0.052044
     6  H    0.252537
 Sum of Mulliken charges =   0.00000

 Dipole moment (field-independent basis, Debye):
    X=              0.8320    Y=              1.7135    Z=             -0.1448  Tot=              1.9103
 Quadrupole moment (field-independent basis, Debye-Ang):
   XX=            -13.0888   YY=            -11.9418   ZZ=            -13.9866
   XY=             -2.2427   XZ=              0.0408   YZ=             -0.0909

 Normal termination of Gaussian 09 at Wed Aug 26 13:42:49 2020.
