 Gaussian 09, Revision D.01,
 Gaussian 09:  ES64L-G09RevD.01 24-Apr-2013

 --------------------
 #p B2PLYPD3/Def2QZVP
 --------------------

 --------
 methanol
 --------
 Symbolic Z-matrix:
 Charge =  0 Multiplicity = 1

                         Standard orientation:
 ---------------------------------------------------------------------
 Center     Atomic      Atomic             Coordinates (Angstroms)
 Number     Number       Type             X           Y           Z
 ---------------------------------------------------------------------
      1          6           0        0.672953   -0.020391    0.016746
      2          8           0       -0.743740    0.116591   -0.015730
      3          1           0        1.088479   -0.616819   -0.866251
      4          1           0        0.965712   -0.492197    0.905167
      5          1           0        1.067402    1.003130   -0.047799
      6          1           0       -1.209391   -0.704498    0.034251
 ---------------------------------------------------------------------

 SCF Done:  E(RB2PLYPD3) =  -115.549373069     A.U. after   10 cycles
 E2(B2PLYPD3) =    -0.1469890760D+00 E(B2PLYPD3) =    -0.11569636214498D+03

 The electronic state is 1-A.
 Alpha  occ. eigenvalues --  -19.72113 -10.65919  -1.15948  -0.78939  -0.58979
 Alpha  occ. eigenvalues --   -0.51675  -0.49690  -0.40572  -0.35227
 Alpha virt. eigenvalues --    0.05090   0.08187   0.12313   0.12430   0.14902
 Alpha virt. eigenvalues --    0.17023   0.18022   0.29184   0.33043   0.33493
 Alpha virt. eigenvalues --    0.35717   0.38618   0.39362   0.40632   0.43990

 Mulliken charges:
               1
     1  C    0.071891
     2  O   -0.463889
     3  H    0.041975
     4  H    0.055454
     5  H    0.074993
     6  H    0.219576
 Sum of Mulliken charges =   0.00000

 Dipole moment (field-independent basis, Debye):
    X=              0.7760    Y=             -1.4547    Z=              0.1786  Tot=              1.6584
 Quadrupole moment (field-independent basis, Debye-Ang):
   XX=            -12.7288   YY=            -12.3400   ZZ=            -13.8025
   XY=              2.2912   XZ=             -0.1286   YZ=             -0.1380

 Normal termination of Gaussian 09 at Wed Aug 26 15:23:56 2020.
