 Gaussian 09, Revision D.01,
 Gaussian 09:  ES64L-G09RevD.01 24-Apr-2013

 --------------------
 #p B2PLYPD3/Def2QZVP
 --------------------

 --------
 methanol
 --------
 Symbolic Z-matrix:
 Charge =  0 Multiplicity = 1

                         Standard orientation:
 ---------------------------------------------------------------------
 Center     Atomic      Atomic             Coordinates (Angstroms)
 Number     Number       Type             X           Y           Z
 ---------------------------------------------------------------------
      1          6           0        0.673314    0.038302   -0.027207
      2          8           0       -0.744028   -0.198742    0.008270
      3          1           0        0.973844    0.512105    0.774888
      4          1           0        0.990997    0.470161   -0.666066
      5          1           0        1.063472   -0.862900    0.023625
      6          1           0       -1.115979    1.240757   -0.035364
 ---------------------------------------------------------------------

 SCF Done:  E(RB2PLYPD3) =  -115.356779178     A.U. after   12 cycles
 E2(B2PLYPD3) =    -0.1579399179D+00 E(B2PLYPD3) =    -0.11551471909616D+03

 The electronic state is 1-A.
 Alpha  occ. eigenvalues --  -19.75857 -10.60067  -1.11245  -0.82644  -0.56980
 Alpha  occ. eigenvalues --   -0.53735  -0.48076  -0.39267  -0.35655
 Alpha virt. eigenvalues --   -0.03048   0.07497   0.12358   0.13143   0.14618
 Alpha virt. eigenvalues --    0.17632   0.18267   0.21354   0.29567   0.33174
 Alpha virt. eigenvalues --    0.34174   0.38725   0.39060   0.43381   0.47042

 Mulliken charges:
               1
     1  C    0.058932
     2  O   -0.468764
     3  H    0.040925
     4  H    0.105260
     5  H    0.052037
     6  H    0.211609
 Sum of Mulliken charges =   0.00000

 Dipole moment (field-independent basis, Debye):
    X=              1.3794    Y=              1.7805    Z=             -0.1019  Tot=              2.2547
 Quadrupole moment (field-independent basis, Debye-Ang):
   XX=            -13.4732   YY=            -10.9530   ZZ=            -13.9351
   XY=             -2.0967   XZ=             -0.0252   YZ=             -0.1420

 Normal termination of Gaussian 09 at Wed Aug 26 23:48:32 2020.
