 Gaussian 09, Revision D.01,
 Gaussian 09:  ES64L-G09RevD.01 24-Apr-2013

 --------------------
 #p B2PLYPD3/Def2QZVP
 --------------------

 --------
 methanol
 --------
 Symbolic Z-matrix:
 Charge =  0 Multiplicity = 1

                         Standard orientation:
 ---------------------------------------------------------------------
 Center     Atomic      Atomic             Coordinates (Angstroms)
 Number     Number       Type             X           Y           Z
 ---------------------------------------------------------------------
      1          6           0        0.649398    0.029351   -0.001478
      2          8           0       -0.731725   -0.155325   -0.013512
      3          1           0        0.949825    0.429736    0.908759
      4          1           0        1.056688    0.615494   -0.788513
      5          1           0        1.147645   -0.877292   -0.045735
      6          1           0       -1.196743    0.898559    0.042451
 ---------------------------------------------------------------------

 SCF Done:  E(RB2PLYPD3) =  -115.519584557     A.U. after   11 cycles
 E2(B2PLYPD3) =    -0.1500957066D+00 E(B2PLYPD3) =    -0.11566968026356D+03

 The electronic state is 1-A.
 Alpha  occ. eigenvalues --  -19.73975 -10.63553  -1.14175  -0.78634  -0.56464
 Alpha  occ. eigenvalues --   -0.52569  -0.50431  -0.40072  -0.35001
 Alpha virt. eigenvalues --    0.03001   0.07724   0.12600   0.12994   0.14808
 Alpha virt. eigenvalues --    0.17788   0.18448   0.27519   0.29558   0.33287
 Alpha virt. eigenvalues --    0.35043   0.39604   0.40641   0.42178   0.43367

 Mulliken charges:
               1
     1  C    0.079411
     2  O   -0.482399
     3  H    0.043944
     4  H    0.040758
     5  H    0.060633
     6  H    0.257653
 Sum of Mulliken charges =   0.00000

 Dipole moment (field-independent basis, Debye):
    X=              0.7984    Y=              1.6361    Z=              0.1156  Tot=              1.8241
 Quadrupole moment (field-independent basis, Debye-Ang):
   XX=            -12.7809   YY=            -12.0761   ZZ=            -13.8712
   XY=             -2.5450   XZ=             -0.1863   YZ=              0.0332

 Normal termination of Gaussian 09 at Wed Aug 26 11:53:00 2020.
