 Gaussian 09, Revision D.01,
 Gaussian 09:  ES64L-G09RevD.01 24-Apr-2013

 --------------------
 #p B2PLYPD3/Def2QZVP
 --------------------

 --------
 methanol
 --------
 Symbolic Z-matrix:
 Charge =  0 Multiplicity = 1

                         Standard orientation:
 ---------------------------------------------------------------------
 Center     Atomic      Atomic             Coordinates (Angstroms)
 Number     Number       Type             X           Y           Z
 ---------------------------------------------------------------------
      1          6           0        0.681892   -0.000592    0.015587
      2          8           0       -0.756080    0.100637   -0.029406
      3          1           0        1.058291   -0.763768   -0.823081
      4          1           0        1.000368   -0.333700    0.987657
      5          1           0        1.030788    0.965481   -0.177750
      6          1           0       -1.132164   -0.669555    0.154904
 ---------------------------------------------------------------------

 SCF Done:  E(RB2PLYPD3) =  -115.539155453     A.U. after   10 cycles
 E2(B2PLYPD3) =    -0.1462420910D+00 E(B2PLYPD3) =    -0.11568539754416D+03

 The electronic state is 1-A.
 Alpha  occ. eigenvalues --  -19.71529 -10.66456  -1.17284  -0.79587  -0.59196
 Alpha  occ. eigenvalues --   -0.51008  -0.50509  -0.41461  -0.35333
 Alpha virt. eigenvalues --    0.05252   0.08510   0.11927   0.12479   0.14634
 Alpha virt. eigenvalues --    0.16985   0.17915   0.29042   0.32272   0.32967
 Alpha virt. eigenvalues --    0.36409   0.38823   0.40101   0.40557   0.43929

 Mulliken charges:
               1
     1  C    0.070157
     2  O   -0.431362
     3  H    0.038806
     4  H    0.055422
     5  H    0.083381
     6  H    0.183596
 Sum of Mulliken charges =   0.00000

 Dipole moment (field-independent basis, Debye):
    X=              0.9479    Y=             -1.2951    Z=              0.4349  Tot=              1.6628
 Quadrupole moment (field-independent basis, Debye-Ang):
   XX=            -13.1161   YY=            -12.3404   ZZ=            -13.6183
   XY=              2.1883   XZ=             -0.3989   YZ=             -0.3160

 Normal termination of Gaussian 09 at Wed Aug 26 13:16:08 2020.
