 Gaussian 09, Revision D.01,
 Gaussian 09:  ES64L-G09RevD.01 24-Apr-2013

 --------------------
 #p B2PLYPD3/Def2QZVP
 --------------------

 --------
 methanol
 --------
 Symbolic Z-matrix:
 Charge =  0 Multiplicity = 1

                         Standard orientation:
 ---------------------------------------------------------------------
 Center     Atomic      Atomic             Coordinates (Angstroms)
 Number     Number       Type             X           Y           Z
 ---------------------------------------------------------------------
      1          6           0        0.632662    0.018354   -0.015886
      2          8           0       -0.725031   -0.173114    0.006035
      3          1           0        0.957579    0.582623    0.849513
      4          1           0        1.143270    0.476243   -0.757738
      5          1           0        1.103544   -0.832167    0.040997
      6          1           0       -1.200115    1.048089   -0.085732
 ---------------------------------------------------------------------

 SCF Done:  E(RB2PLYPD3) =  -115.465047120     A.U. after   11 cycles
 E2(B2PLYPD3) =    -0.1533570400D+00 E(B2PLYPD3) =    -0.11561840416048D+03

 The electronic state is 1-A.
 Alpha  occ. eigenvalues --  -19.75302 -10.62522  -1.14104  -0.79331  -0.55959
 Alpha  occ. eigenvalues --   -0.52245  -0.50378  -0.39824  -0.34535
 Alpha virt. eigenvalues --    0.00016   0.07479   0.12827   0.12982   0.15062
 Alpha virt. eigenvalues --    0.17806   0.18650   0.23429   0.29676   0.33034
 Alpha virt. eigenvalues --    0.36064   0.38898   0.39461   0.42226   0.44762

 Mulliken charges:
               1
     1  C    0.085240
     2  O   -0.463109
     3  H    0.029140
     4  H    0.035119
     5  H    0.059419
     6  H    0.254192
 Sum of Mulliken charges =   0.00000

 Dipole moment (field-independent basis, Debye):
    X=              0.8051    Y=              1.6778    Z=             -0.1956  Tot=              1.8712
 Quadrupole moment (field-independent basis, Debye-Ang):
   XX=            -12.8458   YY=            -11.6932   ZZ=            -14.1524
   XY=             -2.5718   XZ=             -0.0429   YZ=             -0.1676

 Normal termination of Gaussian 09 at Wed Aug 26 23:41:30 2020.
