 Gaussian 09, Revision D.01,
 Gaussian 09:  ES64L-G09RevD.01 24-Apr-2013

 --------------------
 #p B2PLYPD3/Def2QZVP
 --------------------

 --------
 methanol
 --------
 Symbolic Z-matrix:
 Charge =  0 Multiplicity = 1

                         Standard orientation:
 ---------------------------------------------------------------------
 Center     Atomic      Atomic             Coordinates (Angstroms)
 Number     Number       Type             X           Y           Z
 ---------------------------------------------------------------------
      1          6           0        0.655648    0.018454   -0.004916
      2          8           0       -0.732798   -0.144767    0.003821
      3          1           0        0.986237    0.540400    0.862488
      4          1           0        1.049412    0.501517   -0.824199
      5          1           0        1.004916   -0.932657    0.005796
      6          1           0       -1.112074    0.938149   -0.045156
 ---------------------------------------------------------------------

 SCF Done:  E(RB2PLYPD3) =  -115.518052435     A.U. after   11 cycles
 E2(B2PLYPD3) =    -0.1502429706D+00 E(B2PLYPD3) =    -0.11566829540566D+03

 The electronic state is 1-A.
 Alpha  occ. eigenvalues --  -19.73924 -10.63264  -1.14291  -0.78652  -0.57484
 Alpha  occ. eigenvalues --   -0.52481  -0.49508  -0.41108  -0.34992
 Alpha virt. eigenvalues --    0.03095   0.07976   0.12588   0.12675   0.15102
 Alpha virt. eigenvalues --    0.17219   0.18244   0.27817   0.29674   0.33328
 Alpha virt. eigenvalues --    0.35239   0.38900   0.40104   0.42276   0.44500

 Mulliken charges:
               1
     1  C    0.080259
     2  O   -0.476688
     3  H    0.040303
     4  H    0.041028
     5  H    0.066533
     6  H    0.248566
 Sum of Mulliken charges =   0.00000

 Dipole moment (field-independent basis, Debye):
    X=              0.9333    Y=              1.6326    Z=             -0.1076  Tot=              1.8836
 Quadrupole moment (field-independent basis, Debye-Ang):
   XX=            -13.3308   YY=            -11.7073   ZZ=            -13.8602
   XY=             -2.2529   XZ=             -0.0065   YZ=             -0.0822

 Normal termination of Gaussian 09 at Wed Aug 26 15:10:03 2020.
