 Gaussian 09, Revision D.01,
 Gaussian 09:  ES64L-G09RevD.01 24-Apr-2013

 --------------------
 #p B2PLYPD3/Def2QZVP
 --------------------

 --------
 methanol
 --------
 Symbolic Z-matrix:
 Charge =  0 Multiplicity = 1

                         Standard orientation:
 ---------------------------------------------------------------------
 Center     Atomic      Atomic             Coordinates (Angstroms)
 Number     Number       Type             X           Y           Z
 ---------------------------------------------------------------------
      1          6           0        0.699502    0.031039    0.006506
      2          8           0       -0.724200   -0.175893   -0.023117
      3          1           0        0.982718    0.250908    0.926194
      4          1           0        0.929579    0.748123   -0.734963
      5          1           0        1.028679   -0.755582   -0.189275
      6          1           0       -1.344384    0.977460    0.143944
 ---------------------------------------------------------------------

 SCF Done:  E(RB2PLYPD3) =  -115.433505910     A.U. after   11 cycles
 E2(B2PLYPD3) =    -0.1535410428D+00 E(B2PLYPD3) =    -0.11558704695323D+03

 The electronic state is 1-A.
 Alpha  occ. eigenvalues --  -19.73958 -10.61376  -1.11069  -0.80618  -0.55649
 Alpha  occ. eigenvalues --   -0.53600  -0.49250  -0.39338  -0.34772
 Alpha virt. eigenvalues --    0.00519   0.07709   0.12559   0.13131   0.14449
 Alpha virt. eigenvalues --    0.16998   0.18360   0.23991   0.29353   0.33088
 Alpha virt. eigenvalues --    0.33461   0.38201   0.42093   0.43197   0.44245

 Mulliken charges:
               1
     1  C    0.055771
     2  O   -0.514463
     3  H    0.054533
     4  H    0.050851
     5  H    0.107183
     6  H    0.246126
 Sum of Mulliken charges =   0.00000

 Dipole moment (field-independent basis, Debye):
    X=              0.9316    Y=              1.5838    Z=              0.2527  Tot=              1.8548
 Quadrupole moment (field-independent basis, Debye-Ang):
   XX=            -12.4499   YY=            -11.8679   ZZ=            -13.6288
   XY=             -2.7944   XZ=             -0.3151   YZ=              0.1610

 Normal termination of Gaussian 09 at Wed Aug 26 23:21:10 2020.
