 Gaussian 09, Revision D.01,
 Gaussian 09:  ES64L-G09RevD.01 24-Apr-2013

 --------------------
 #p B2PLYPD3/Def2QZVP
 --------------------

 --------
 methanol
 --------
 Symbolic Z-matrix:
 Charge =  0 Multiplicity = 1

                         Standard orientation:
 ---------------------------------------------------------------------
 Center     Atomic      Atomic             Coordinates (Angstroms)
 Number     Number       Type             X           Y           Z
 ---------------------------------------------------------------------
      1          6           0       -0.649733    0.021898   -0.008613
      2          8           0        0.736994   -0.157301    0.006497
      3          1           0       -1.087238    0.448047   -0.796558
      4          1           0       -0.956416    0.639198    0.798422
      5          1           0       -1.106539   -0.914241    0.076054
      6          1           0        1.152636    0.954014   -0.078211
 ---------------------------------------------------------------------

 SCF Done:  E(RB2PLYPD3) =  -115.505926061     A.U. after   11 cycles
 E2(B2PLYPD3) =    -0.1510414431D+00 E(B2PLYPD3) =    -0.11565696750448D+03

 The electronic state is 1-A.
 Alpha  occ. eigenvalues --  -19.74413 -10.63223  -1.13859  -0.78988  -0.56869
 Alpha  occ. eigenvalues --   -0.52263  -0.49617  -0.40768  -0.34924
 Alpha virt. eigenvalues --    0.02397   0.07710   0.12571   0.12904   0.15094
 Alpha virt. eigenvalues --    0.17656   0.18286   0.26487   0.29681   0.33156
 Alpha virt. eigenvalues --    0.35215   0.39157   0.39253   0.42243   0.44891

 Mulliken charges:
               1
     1  C    0.090265
     2  O   -0.478083
     3  H    0.039828
     4  H    0.033888
     5  H    0.060424
     6  H    0.253678
 Sum of Mulliken charges =   0.00000

 Dipole moment (field-independent basis, Debye):
    X=             -0.8998    Y=              1.7017    Z=             -0.1834  Tot=              1.9337
 Quadrupole moment (field-independent basis, Debye-Ang):
   XX=            -13.0294   YY=            -11.7328   ZZ=            -14.0443
   XY=              2.3781   XZ=              0.0042   YZ=             -0.1368

 Normal termination of Gaussian 09 at Wed Aug 26 12:01:29 2020.
