 Gaussian 09, Revision D.01,
 Gaussian 09:  ES64L-G09RevD.01 24-Apr-2013

 --------------------
 #p B2PLYPD3/Def2QZVP
 --------------------

 --------
 methanol
 --------
 Symbolic Z-matrix:
 Charge =  0 Multiplicity = 1

                         Standard orientation:
 ---------------------------------------------------------------------
 Center     Atomic      Atomic             Coordinates (Angstroms)
 Number     Number       Type             X           Y           Z
 ---------------------------------------------------------------------
      1          6           0       -0.654908   -0.011744    0.008993
      2          8           0        0.749200    0.100931   -0.022702
      3          1           0       -1.000016   -0.378855    0.985121
      4          1           0       -1.062609   -0.715569   -0.836446
      5          1           0       -1.088266    1.001728   -0.133593
      6          1           0        1.086742   -0.644284    0.112573
 ---------------------------------------------------------------------

 SCF Done:  E(RB2PLYPD3) =  -115.529194879     A.U. after   10 cycles
 E2(B2PLYPD3) =    -0.1453532271D+00 E(B2PLYPD3) =    -0.11567454810571D+03

 The electronic state is 1-A.
 Alpha  occ. eigenvalues --  -19.71503 -10.66971  -1.20025  -0.79433  -0.60535
 Alpha  occ. eigenvalues --   -0.51475  -0.50483  -0.41222  -0.35607
 Alpha virt. eigenvalues --    0.05332   0.08724   0.12019   0.12338   0.14717
 Alpha virt. eigenvalues --    0.17278   0.17986   0.28874   0.32952   0.33579
 Alpha virt. eigenvalues --    0.36874   0.39032   0.39387   0.40408   0.43364

 Mulliken charges:
               1
     1  C    0.061282
     2  O   -0.374454
     3  H    0.050381
     4  H    0.039476
     5  H    0.073850
     6  H    0.149465
 Sum of Mulliken charges =   0.00000

 Dipole moment (field-independent basis, Debye):
    X=             -0.8700    Y=             -1.3158    Z=              0.3222  Tot=              1.6100
 Quadrupole moment (field-independent basis, Debye-Ang):
   XX=            -13.1785   YY=            -12.4380   ZZ=            -13.6801
   XY=             -2.0999   XZ=              0.3181   YZ=             -0.2025

 Normal termination of Gaussian 09 at Wed Aug 26 10:44:15 2020.
