 Gaussian 09, Revision D.01,
 Gaussian 09:  ES64L-G09RevD.01 24-Apr-2013

 --------------------
 #p B2PLYPD3/Def2QZVP
 --------------------

 --------
 methanol
 --------
 Symbolic Z-matrix:
 Charge =  0 Multiplicity = 1

                         Standard orientation:
 ---------------------------------------------------------------------
 Center     Atomic      Atomic             Coordinates (Angstroms)
 Number     Number       Type             X           Y           Z
 ---------------------------------------------------------------------
      1          6           0       -0.650358    0.004437    0.010845
      2          8           0        0.740675   -0.125150   -0.011629
      3          1           0       -1.043250    0.652777   -0.865108
      4          1           0       -1.053611    0.471703    0.907649
      5          1           0       -1.103927   -0.926330   -0.079851
      6          1           0        1.177539    0.776430    0.065274
 ---------------------------------------------------------------------

 SCF Done:  E(RB2PLYPD3) =  -115.545839436     A.U. after   10 cycles
 E2(B2PLYPD3) =    -0.1478426678D+00 E(B2PLYPD3) =    -0.11569368210355D+03

 The electronic state is 1-A.
 Alpha  occ. eigenvalues --  -19.73176 -10.65562  -1.16066  -0.78499  -0.58611
 Alpha  occ. eigenvalues --   -0.51163  -0.50810  -0.40810  -0.34814
 Alpha virt. eigenvalues --    0.04579   0.07961   0.12396   0.12713   0.14974
 Alpha virt. eigenvalues --    0.17532   0.18154   0.29155   0.32740   0.33231
 Alpha virt. eigenvalues --    0.34599   0.38502   0.40283   0.40578   0.43717

 Mulliken charges:
               1
     1  C    0.069514
     2  O   -0.460356
     3  H    0.029628
     4  H    0.043207
     5  H    0.075561
     6  H    0.242446
 Sum of Mulliken charges =   0.00000

 Dipole moment (field-independent basis, Debye):
    X=             -0.7126    Y=              1.4545    Z=              0.1997  Tot=              1.6320
 Quadrupole moment (field-independent basis, Debye-Ang):
   XX=            -12.8079   YY=            -12.2769   ZZ=            -13.9812
   XY=              2.4542   XZ=              0.0982   YZ=              0.1728

 Normal termination of Gaussian 09 at Wed Aug 26 13:56:51 2020.
