 Gaussian 09, Revision D.01,
 Gaussian 09:  ES64L-G09RevD.01 24-Apr-2013

 --------------------
 #p B2PLYPD3/Def2QZVP
 --------------------

 --------
 methanol
 --------
 Symbolic Z-matrix:
 Charge =  0 Multiplicity = 1

                         Standard orientation:
 ---------------------------------------------------------------------
 Center     Atomic      Atomic             Coordinates (Angstroms)
 Number     Number       Type             X           Y           Z
 ---------------------------------------------------------------------
      1          6           0        0.686003    0.067458    0.002220
      2          8           0       -0.736617   -0.191799   -0.008996
      3          1           0        0.968415    0.353473    0.807156
      4          1           0        1.006512    0.577738   -0.710246
      5          1           0        1.060522   -0.897779   -0.076364
      6          1           0       -1.258530    1.096209    0.038103
 ---------------------------------------------------------------------

 SCF Done:  E(RB2PLYPD3) =  -115.413927597     A.U. after   12 cycles
 E2(B2PLYPD3) =    -0.1555775092D+00 E(B2PLYPD3) =    -0.11556950510634D+03

 The electronic state is 1-A.
 Alpha  occ. eigenvalues --  -19.75101 -10.60893  -1.10944  -0.81316  -0.56107
 Alpha  occ. eigenvalues --   -0.54463  -0.47573  -0.39225  -0.35798
 Alpha virt. eigenvalues --   -0.00768   0.07526   0.12351   0.13027   0.14841
 Alpha virt. eigenvalues --    0.17066   0.18564   0.22553   0.29221   0.33360
 Alpha virt. eigenvalues --    0.34015   0.38136   0.39928   0.44635   0.45702

 Mulliken charges:
               1
     1  C    0.089305
     2  O   -0.488736
     3  H    0.068047
     4  H    0.053612
     5  H    0.052333
     6  H    0.225438
 Sum of Mulliken charges =   0.00000

 Dipole moment (field-independent basis, Debye):
    X=              1.1713    Y=              1.7538    Z=              0.0928  Tot=              2.1110
 Quadrupole moment (field-independent basis, Debye-Ang):
   XX=            -12.9000   YY=            -11.5170   ZZ=            -13.7736
   XY=             -2.3493   XZ=             -0.0696   YZ=             -0.0073

 Normal termination of Gaussian 09 at Wed Aug 26 18:54:48 2020.
