 Gaussian 09, Revision D.01,
 Gaussian 09:  ES64L-G09RevD.01 24-Apr-2013

 --------------------
 #p B2PLYPD3/Def2QZVP
 --------------------

 --------
 methanol
 --------
 Symbolic Z-matrix:
 Charge =  0 Multiplicity = 1

                         Standard orientation:
 ---------------------------------------------------------------------
 Center     Atomic      Atomic             Coordinates (Angstroms)
 Number     Number       Type             X           Y           Z
 ---------------------------------------------------------------------
      1          6           0        0.667347    0.005783    0.014217
      2          8           0       -0.759653    0.084151   -0.025686
      3          1           0        1.048192   -0.851438   -0.775681
      4          1           0        1.018332   -0.273898    1.051323
      5          1           0        1.101344    0.963818   -0.291769
      6          1           0       -1.094725   -0.546388    0.136310
 ---------------------------------------------------------------------

 SCF Done:  E(RB2PLYPD3) =  -115.458300001     A.U. after   11 cycles
 E2(B2PLYPD3) =    -0.1444082223D+00 E(B2PLYPD3) =    -0.11560270822345D+03

 The electronic state is 1-A.
 Alpha  occ. eigenvalues --  -19.70260 -10.68230  -1.22646  -0.80779  -0.61073
 Alpha  occ. eigenvalues --   -0.51407  -0.50493  -0.41246  -0.35686
 Alpha virt. eigenvalues --    0.05347   0.08994   0.11623   0.12285   0.14424
 Alpha virt. eigenvalues --    0.17212   0.17692   0.28708   0.32186   0.32600
 Alpha virt. eigenvalues --    0.35945   0.38674   0.39605   0.40458   0.42850

 Mulliken charges:
               1
     1  C    0.059231
     2  O   -0.287087
     3  H    0.032899
     4  H    0.053993
     5  H    0.088721
     6  H    0.052243
 Sum of Mulliken charges =   0.00000

 Dipole moment (field-independent basis, Debye):
    X=              0.9577    Y=             -1.1204    Z=              0.3890  Tot=              1.5245
 Quadrupole moment (field-independent basis, Debye-Ang):
   XX=            -13.1024   YY=            -12.6016   ZZ=            -13.5617
   XY=              2.0776   XZ=             -0.4430   YZ=             -0.3344

 Normal termination of Gaussian 09 at Wed Aug 26 11:00:59 2020.
