 Gaussian 09, Revision D.01,
 Gaussian 09:  ES64L-G09RevD.01 24-Apr-2013

 --------------------
 #p B2PLYPD3/Def2QZVP
 --------------------

 --------
 methanol
 --------
 Symbolic Z-matrix:
 Charge =  0 Multiplicity = 1

                         Standard orientation:
 ---------------------------------------------------------------------
 Center     Atomic      Atomic             Coordinates (Angstroms)
 Number     Number       Type             X           Y           Z
 ---------------------------------------------------------------------
      1          6           0        0.714682   -0.015951   -0.006952
      2          8           0       -0.764146    0.074053   -0.004088
      3          1           0        0.993222   -0.585994   -0.960569
      4          1           0        0.922978   -0.613365    0.990026
      5          1           0        1.104652    1.090857    0.042979
      6          1           0       -1.195775   -0.388220    0.001980
 ---------------------------------------------------------------------

 SCF Done:  E(RB2PLYPD3) =  -115.284887631     A.U. after   11 cycles
 E2(B2PLYPD3) =    -0.1440825067D+00 E(B2PLYPD3) =    -0.11542897013814D+03

 The electronic state is 1-A.
 Alpha  occ. eigenvalues --  -19.67364 -10.69969  -1.24233  -0.82481  -0.60376
 Alpha  occ. eigenvalues --   -0.51216  -0.50184  -0.39080  -0.35815
 Alpha virt. eigenvalues --    0.05150   0.09324   0.11495   0.11645   0.13573
 Alpha virt. eigenvalues --    0.16542   0.17142   0.28379   0.29551   0.32723
 Alpha virt. eigenvalues --    0.35989   0.37143   0.38340   0.40839   0.42553

 Mulliken charges:
               1
     1  C    0.072970
     2  O   -0.239724
     3  H    0.068277
     4  H    0.060457
     5  H    0.096391
     6  H   -0.058371
 Sum of Mulliken charges =   0.00000

 Dipole moment (field-independent basis, Debye):
    X=              1.1212    Y=             -1.0659    Z=             -0.0074  Tot=              1.5471
 Quadrupole moment (field-independent basis, Debye-Ang):
   XX=            -12.7463   YY=            -12.6148   ZZ=            -13.3355
   XY=              1.9611   XZ=             -0.1215   YZ=              0.0649

 Normal termination of Gaussian 09 at Wed Aug 26 20:11:02 2020.
