 Gaussian 09, Revision D.01,
 Gaussian 09:  ES64L-G09RevD.01 24-Apr-2013

 --------------------
 #p B2PLYPD3/Def2QZVP
 --------------------

 --------
 methanol
 --------
 Symbolic Z-matrix:
 Charge =  0 Multiplicity = 1

                         Standard orientation:
 ---------------------------------------------------------------------
 Center     Atomic      Atomic             Coordinates (Angstroms)
 Number     Number       Type             X           Y           Z
 ---------------------------------------------------------------------
      1          6           0       -0.670057   -0.014414    0.009458
      2          8           0        0.758325    0.112446   -0.018659
      3          1           0       -1.027565   -0.395235    0.945817
      4          1           0       -1.073861   -0.677476   -0.838181
      5          1           0       -1.069893    0.986745   -0.109354
      6          1           0        1.125056   -0.727118    0.094237
 ---------------------------------------------------------------------

 SCF Done:  E(RB2PLYPD3) =  -115.549784996     A.U. after   10 cycles
 E2(B2PLYPD3) =    -0.1469956725D+00 E(B2PLYPD3) =    -0.11569678066832D+03

 The electronic state is 1-A.
 Alpha  occ. eigenvalues --  -19.72353 -10.66170  -1.16607  -0.78900  -0.58966
 Alpha  occ. eigenvalues --   -0.51257  -0.49801  -0.41408  -0.35556
 Alpha virt. eigenvalues --    0.05123   0.08270   0.12188   0.12423   0.14804
 Alpha virt. eigenvalues --    0.17202   0.18159   0.29025   0.32859   0.33302
 Alpha virt. eigenvalues --    0.36084   0.38419   0.39593   0.40618   0.43764

 Mulliken charges:
               1
     1  C    0.067417
     2  O   -0.446601
     3  H    0.053857
     4  H    0.043105
     5  H    0.073279
     6  H    0.208941
 Sum of Mulliken charges =   0.00000

 Dipole moment (field-independent basis, Debye):
    X=             -0.9386    Y=             -1.4302    Z=              0.2689  Tot=              1.7317
 Quadrupole moment (field-independent basis, Debye-Ang):
   XX=            -13.0667   YY=            -12.2827   ZZ=            -13.7619
   XY=             -2.1952   XZ=              0.2275   YZ=             -0.1756

 Normal termination of Gaussian 09 at Thu Aug 27 00:07:53 2020.
