 Gaussian 09, Revision D.01,
 Gaussian 09:  ES64L-G09RevD.01 24-Apr-2013

 --------------------
 #p B2PLYPD3/Def2QZVP
 --------------------

 --------
 methanol
 --------
 Symbolic Z-matrix:
 Charge =  0 Multiplicity = 1

                         Standard orientation:
 ---------------------------------------------------------------------
 Center     Atomic      Atomic             Coordinates (Angstroms)
 Number     Number       Type             X           Y           Z
 ---------------------------------------------------------------------
      1          6           0       -0.683456   -0.024556    0.027026
      2          8           0        0.755366   -0.052988   -0.050225
      3          1           0       -0.971050    1.198066   -0.390746
      4          1           0       -0.895896   -0.156101    1.060085
      5          1           0       -1.110803   -0.806249   -0.666058
      6          1           0        1.035558    0.335521    0.236359
 ---------------------------------------------------------------------

 SCF Done:  E(RB2PLYPD3) =  -115.056873406     A.U. after   11 cycles
 E2(B2PLYPD3) =    -0.1431484476D+00 E(B2PLYPD3) =    -0.11520002185352D+03

 The electronic state is 1-A.
 Alpha  occ. eigenvalues --  -19.67946 -10.69424  -1.30391  -0.83694  -0.62198
 Alpha  occ. eigenvalues --   -0.52687  -0.50470  -0.41136  -0.35785
 Alpha virt. eigenvalues --    0.04960   0.09732   0.10678   0.11958   0.14029
 Alpha virt. eigenvalues --    0.16821   0.17068   0.27897   0.30179   0.31658
 Alpha virt. eigenvalues --    0.34711   0.37372   0.40740   0.41428   0.43745

 Mulliken charges:
               1
     1  C    0.063640
     2  O   -0.130665
     3  H    0.024477
     4  H    0.070127
     5  H    0.099197
     6  H   -0.126775
 Sum of Mulliken charges =   0.00000

 Dipole moment (field-independent basis, Debye):
    X=             -1.1242    Y=              0.6372    Z=              0.7781  Tot=              1.5084
 Quadrupole moment (field-independent basis, Debye-Ang):
   XX=            -13.4078   YY=            -12.8282   ZZ=            -12.9098
   XY=              1.7917   XZ=              1.0523   YZ=              0.4680

 Normal termination of Gaussian 09 at Wed Aug 26 23:27:31 2020.
