 Gaussian 09, Revision D.01,
 Gaussian 09:  ES64L-G09RevD.01 24-Apr-2013

 --------------------
 #p B2PLYPD3/Def2QZVP
 --------------------

 --------
 methanol
 --------
 Symbolic Z-matrix:
 Charge =  0 Multiplicity = 1

                         Standard orientation:
 ---------------------------------------------------------------------
 Center     Atomic      Atomic             Coordinates (Angstroms)
 Number     Number       Type             X           Y           Z
 ---------------------------------------------------------------------
      1          6           0       -0.672133   -0.028708    0.027835
      2          8           0        0.749887    0.080893   -0.023863
      3          1           0       -0.996187   -0.376463    0.975408
      4          1           0       -1.048708   -0.695124   -0.895867
      5          1           0       -1.030831    1.105963   -0.163219
      6          1           0        1.109433   -0.509274    0.107569
 ---------------------------------------------------------------------

 SCF Done:  E(RB2PLYPD3) =  -115.419891500     A.U. after   11 cycles
 E2(B2PLYPD3) =    -0.1441109053D+00 E(B2PLYPD3) =    -0.11556400240522D+03

 The electronic state is 1-A.
 Alpha  occ. eigenvalues --  -19.69565 -10.68273  -1.23619  -0.81281  -0.61728
 Alpha  occ. eigenvalues --   -0.52014  -0.49193  -0.40552  -0.36154
 Alpha virt. eigenvalues --    0.05310   0.09221   0.11574   0.11838   0.14500
 Alpha virt. eigenvalues --    0.16698   0.17957   0.28777   0.32208   0.33059
 Alpha virt. eigenvalues --    0.35691   0.37257   0.40704   0.41593   0.42154

 Mulliken charges:
               1
     1  C    0.050119
     2  O   -0.254642
     3  H    0.068736
     4  H    0.048379
     5  H    0.071209
     6  H    0.016199
 Sum of Mulliken charges =   0.00000

 Dipole moment (field-independent basis, Debye):
    X=             -0.8871    Y=             -1.2232    Z=              0.3972  Tot=              1.5623
 Quadrupole moment (field-independent basis, Debye-Ang):
   XX=            -13.1340   YY=            -12.6351   ZZ=            -13.3729
   XY=             -1.8150   XZ=              0.2802   YZ=             -0.2507

 Normal termination of Gaussian 09 at Wed Aug 26 15:21:49 2020.
