 Gaussian 09, Revision D.01,
 Gaussian 09:  ES64L-G09RevD.01 24-Apr-2013

 --------------------
 #p B2PLYPD3/Def2QZVP
 --------------------

 --------
 methanol
 --------
 Symbolic Z-matrix:
 Charge =  0 Multiplicity = 1

                         Standard orientation:
 ---------------------------------------------------------------------
 Center     Atomic      Atomic             Coordinates (Angstroms)
 Number     Number       Type             X           Y           Z
 ---------------------------------------------------------------------
      1          6           0        0.653153   -0.016063    0.012595
      2          8           0       -0.742377    0.107742   -0.009995
      3          1           0        1.048322   -0.670323   -0.849336
      4          1           0        1.002884   -0.464550    0.929824
      5          1           0        1.105719    1.021734   -0.105842
      6          1           0       -1.136825   -0.652420    0.029747
 ---------------------------------------------------------------------

 SCF Done:  E(RB2PLYPD3) =  -115.538363696     A.U. after   10 cycles
 E2(B2PLYPD3) =    -0.1455714188D+00 E(B2PLYPD3) =    -0.11568393511443D+03

 The electronic state is 1-A.
 Alpha  occ. eigenvalues --  -19.71672 -10.66741  -1.19162  -0.79312  -0.60645
 Alpha  occ. eigenvalues --   -0.51623  -0.50178  -0.40762  -0.35422
 Alpha virt. eigenvalues --    0.05291   0.08595   0.12148   0.12354   0.14922
 Alpha virt. eigenvalues --    0.17270   0.17871   0.29076   0.32985   0.34064
 Alpha virt. eigenvalues --    0.36927   0.38604   0.39191   0.40815   0.43110

 Mulliken charges:
               1
     1  C    0.065634
     2  O   -0.399340
     3  H    0.036833
     4  H    0.052289
     5  H    0.071224
     6  H    0.173359
 Sum of Mulliken charges =   0.00000

 Dipole moment (field-independent basis, Debye):
    X=              0.7670    Y=             -1.3986    Z=              0.1412  Tot=              1.6013
 Quadrupole moment (field-independent basis, Debye-Ang):
   XX=            -12.9516   YY=            -12.4103   ZZ=            -13.8095
   XY=              2.1571   XZ=             -0.0751   YZ=             -0.1243

 Normal termination of Gaussian 09 at Thu Aug 27 00:12:52 2020.
