 Gaussian 09, Revision D.01,
 Gaussian 09:  ES64L-G09RevD.01 24-Apr-2013

 --------------------
 #p B2PLYPD3/Def2QZVP
 --------------------

 --------
 methanol
 --------
 Symbolic Z-matrix:
 Charge =  0 Multiplicity = 1

                         Standard orientation:
 ---------------------------------------------------------------------
 Center     Atomic      Atomic             Coordinates (Angstroms)
 Number     Number       Type             X           Y           Z
 ---------------------------------------------------------------------
      1          6           0        0.670664    0.018319   -0.005819
      2          8           0       -0.744125   -0.139645    0.007760
      3          1           0        1.092844    0.518122    0.845312
      4          1           0        0.982102    0.541716   -0.840825
      5          1           0        1.016054   -0.947817   -0.029928
      6          1           0       -1.161984    0.895222   -0.001724
 ---------------------------------------------------------------------

 SCF Done:  E(RB2PLYPD3) =  -115.527632959     A.U. after   11 cycles
 E2(B2PLYPD3) =    -0.1499412893D+00 E(B2PLYPD3) =    -0.11567757424778D+03

 The electronic state is 1-A.
 Alpha  occ. eigenvalues --  -19.73669 -10.63833  -1.13577  -0.78805  -0.57308
 Alpha  occ. eigenvalues --   -0.51904  -0.49249  -0.41270  -0.35112
 Alpha virt. eigenvalues --    0.03606   0.07879   0.12511   0.12699   0.15081
 Alpha virt. eigenvalues --    0.17086   0.18213   0.28642   0.30105   0.33330
 Alpha virt. eigenvalues --    0.34200   0.38970   0.39798   0.41727   0.44329

 Mulliken charges:
               1
     1  C    0.079289
     2  O   -0.487780
     3  H    0.043994
     4  H    0.045759
     5  H    0.070695
     6  H    0.248043
 Sum of Mulliken charges =   0.00000

 Dipole moment (field-independent basis, Debye):
    X=              0.9375    Y=              1.6192    Z=             -0.0573  Tot=              1.8719
 Quadrupole moment (field-independent basis, Debye-Ang):
   XX=            -13.0673   YY=            -11.8200   ZZ=            -13.9033
   XY=             -2.3012   XZ=              0.0571   YZ=             -0.0322

 Normal termination of Gaussian 09 at Wed Aug 26 10:04:27 2020.
