 Gaussian 09, Revision D.01,
 Gaussian 09:  ES64L-G09RevD.01 24-Apr-2013

 --------------------
 #p B2PLYPD3/Def2QZVP
 --------------------

 --------
 methanol
 --------
 Symbolic Z-matrix:
 Charge =  0 Multiplicity = 1

                         Standard orientation:
 ---------------------------------------------------------------------
 Center     Atomic      Atomic             Coordinates (Angstroms)
 Number     Number       Type             X           Y           Z
 ---------------------------------------------------------------------
      1          6           0        0.688219    0.041396    0.024646
      2          8           0       -0.721065   -0.181125   -0.016136
      3          1           0        0.901355    0.375344    0.876687
      4          1           0        1.094850    0.618348   -0.769707
      5          1           0        0.998989   -0.828237   -0.132862
      6          1           0       -1.355989    1.035171    0.007094
 ---------------------------------------------------------------------

 SCF Done:  E(RB2PLYPD3) =  -115.434135481     A.U. after   12 cycles
 E2(B2PLYPD3) =    -0.1547903648D+00 E(B2PLYPD3) =    -0.11558892584624D+03

 The electronic state is 1-A.
 Alpha  occ. eigenvalues --  -19.74568 -10.61515  -1.11463  -0.79945  -0.56545
 Alpha  occ. eigenvalues --   -0.53180  -0.48289  -0.39089  -0.35112
 Alpha virt. eigenvalues --   -0.00415   0.07585   0.12755   0.12843   0.14719
 Alpha virt. eigenvalues --    0.16772   0.18539   0.23030   0.29300   0.32957
 Alpha virt. eigenvalues --    0.34574   0.38423   0.39861   0.43195   0.45400

 Mulliken charges:
               1
     1  C    0.074659
     2  O   -0.498615
     3  H    0.062429
     4  H    0.046273
     5  H    0.079131
     6  H    0.236123
 Sum of Mulliken charges =   0.00000

 Dipole moment (field-independent basis, Debye):
    X=              0.9346    Y=              1.6161    Z=              0.0870  Tot=              1.8689
 Quadrupole moment (field-independent basis, Debye-Ang):
   XX=            -12.5171   YY=            -11.8115   ZZ=            -13.7393
   XY=             -2.6414   XZ=             -0.1492   YZ=              0.1093

 Normal termination of Gaussian 09 at Wed Aug 26 23:15:07 2020.
