 Gaussian 09, Revision D.01,
 Gaussian 09:  ES64L-G09RevD.01 24-Apr-2013

 --------------------
 #p B2PLYPD3/Def2QZVP
 --------------------

 --------
 methanol
 --------
 Symbolic Z-matrix:
 Charge =  0 Multiplicity = 1

                         Standard orientation:
 ---------------------------------------------------------------------
 Center     Atomic      Atomic             Coordinates (Angstroms)
 Number     Number       Type             X           Y           Z
 ---------------------------------------------------------------------
      1          6           0        0.681832   -0.016878    0.000797
      2          8           0       -0.759021    0.085255   -0.017072
      3          1           0        0.934865   -0.892128   -0.728469
      4          1           0        1.108597   -0.176865    1.038366
      5          1           0        1.044302    1.002879   -0.359909
      6          1           0       -1.106586   -0.514660    0.181803
 ---------------------------------------------------------------------

 SCF Done:  E(RB2PLYPD3) =  -115.447615494     A.U. after   11 cycles
 E2(B2PLYPD3) =    -0.1444005275D+00 E(B2PLYPD3) =    -0.11559201602142D+03

 The electronic state is 1-A.
 Alpha  occ. eigenvalues --  -19.69697 -10.68221  -1.22442  -0.80754  -0.60764
 Alpha  occ. eigenvalues --   -0.51658  -0.49595  -0.41019  -0.35990
 Alpha virt. eigenvalues --    0.05365   0.09020   0.11759   0.12026   0.14335
 Alpha virt. eigenvalues --    0.16765   0.17818   0.28793   0.31339   0.33240
 Alpha virt. eigenvalues --    0.36883   0.38112   0.39289   0.40473   0.42510

 Mulliken charges:
               1
     1  C    0.056091
     2  O   -0.283174
     3  H    0.051884
     4  H    0.057485
     5  H    0.082266
     6  H    0.035447
 Sum of Mulliken charges =   0.00000

 Dipole moment (field-independent basis, Debye):
    X=              0.9978    Y=             -1.1706    Z=              0.4120  Tot=              1.5924
 Quadrupole moment (field-independent basis, Debye-Ang):
   XX=            -13.1287   YY=            -12.5233   ZZ=            -13.4704
   XY=              1.9537   XZ=             -0.4210   YZ=             -0.2393

 Normal termination of Gaussian 09 at Wed Aug 26 16:31:13 2020.
