 Gaussian 09, Revision D.01,
 Gaussian 09:  ES64L-G09RevD.01 24-Apr-2013

 --------------------
 #p B2PLYPD3/Def2QZVP
 --------------------

 --------
 methanol
 --------
 Symbolic Z-matrix:
 Charge =  0 Multiplicity = 1

                         Standard orientation:
 ---------------------------------------------------------------------
 Center     Atomic      Atomic             Coordinates (Angstroms)
 Number     Number       Type             X           Y           Z
 ---------------------------------------------------------------------
      1          6           0        0.649889   -0.041581    0.015651
      2          8           0       -0.718528    0.092288   -0.007853
      3          1           0        0.966571   -0.640659   -0.906222
      4          1           0        0.839888   -0.500945    0.987614
      5          1           0        1.139208    1.095074   -0.081882
      6          1           0       -1.096779   -0.442287   -0.030593
 ---------------------------------------------------------------------

 SCF Done:  E(RB2PLYPD3) =  -115.340298260     A.U. after   11 cycles
 E2(B2PLYPD3) =    -0.1429483255D+00 E(B2PLYPD3) =    -0.11548324658602D+03

 The electronic state is 1-A.
 Alpha  occ. eigenvalues --  -19.68665 -10.68099  -1.26752  -0.83138  -0.62066
 Alpha  occ. eigenvalues --   -0.53907  -0.50163  -0.39166  -0.35988
 Alpha virt. eigenvalues --    0.05269   0.09637   0.11650   0.11986   0.14175
 Alpha virt. eigenvalues --    0.16960   0.17371   0.28549   0.32461   0.33733
 Alpha virt. eigenvalues --    0.34793   0.38973   0.40397   0.41418   0.43970

 Mulliken charges:
               1
     1  C    0.054736
     2  O   -0.197594
     3  H    0.045006
     4  H    0.060227
     5  H    0.064264
     6  H   -0.026639
 Sum of Mulliken charges =   0.00000

 Dipole moment (field-independent basis, Debye):
    X=              0.6884    Y=             -1.2326    Z=             -0.0069  Tot=              1.4118
 Quadrupole moment (field-independent basis, Debye-Ang):
   XX=            -13.1533   YY=            -12.7044   ZZ=            -13.3012
   XY=              1.9082   XZ=             -0.0522   YZ=             -0.0191

 Normal termination of Gaussian 09 at Wed Aug 26 21:47:40 2020.
