 Gaussian 09, Revision D.01,
 Gaussian 09:  ES64L-G09RevD.01 24-Apr-2013

 --------------------
 #p B2PLYPD3/Def2QZVP
 --------------------

 --------
 methanol
 --------
 Symbolic Z-matrix:
 Charge =  0 Multiplicity = 1

                         Standard orientation:
 ---------------------------------------------------------------------
 Center     Atomic      Atomic             Coordinates (Angstroms)
 Number     Number       Type             X           Y           Z
 ---------------------------------------------------------------------
      1          6           0        0.675893   -0.006119   -0.000679
      2          8           0       -0.744500    0.074520   -0.002792
      3          1           0        0.983212   -0.677448   -0.913133
      4          1           0        1.079562   -0.448185    1.001729
      5          1           0        0.977609    1.069203   -0.126749
      6          1           0       -1.139742   -0.503015    0.064569
 ---------------------------------------------------------------------

 SCF Done:  E(RB2PLYPD3) =  -115.423250201     A.U. after   11 cycles
 E2(B2PLYPD3) =    -0.1439551773D+00 E(B2PLYPD3) =    -0.11556720537876D+03

 The electronic state is 1-A.
 Alpha  occ. eigenvalues --  -19.69283 -10.68433  -1.23272  -0.81790  -0.60953
 Alpha  occ. eigenvalues --   -0.51228  -0.50494  -0.40449  -0.35699
 Alpha virt. eigenvalues --    0.05380   0.09219   0.11765   0.12008   0.14430
 Alpha virt. eigenvalues --    0.16516   0.17703   0.28899   0.32195   0.33007
 Alpha virt. eigenvalues --    0.36797   0.38490   0.39044   0.40547   0.42471

 Mulliken charges:
               1
     1  C    0.052836
     2  O   -0.255174
     3  H    0.048968
     4  H    0.050777
     5  H    0.089417
     6  H    0.013177
 Sum of Mulliken charges =   0.00000

 Dipole moment (field-independent basis, Debye):
    X=              0.8353    Y=             -1.1445    Z=              0.1373  Tot=              1.4235
 Quadrupole moment (field-independent basis, Debye-Ang):
   XX=            -13.0328   YY=            -12.5090   ZZ=            -13.5238
   XY=              1.9062   XZ=             -0.1164   YZ=             -0.1081

 Normal termination of Gaussian 09 at Wed Aug 26 15:38:59 2020.
