 Gaussian 09, Revision D.01,
 Gaussian 09:  ES64L-G09RevD.01 24-Apr-2013

 --------------------
 #p B2PLYPD3/Def2QZVP
 --------------------

 --------
 methanol
 --------
 Symbolic Z-matrix:
 Charge =  0 Multiplicity = 1

                         Standard orientation:
 ---------------------------------------------------------------------
 Center     Atomic      Atomic             Coordinates (Angstroms)
 Number     Number       Type             X           Y           Z
 ---------------------------------------------------------------------
      1          6           0        0.654772   -0.030368   -0.016308
      2          8           0       -0.755424    0.082062    0.008256
      3          1           0        1.029395   -0.575170   -0.906467
      4          1           0        1.085947   -0.511662    0.981615
      5          1           0        1.082279    1.120598   -0.030412
      6          1           0       -1.082862   -0.508052   -0.012934
 ---------------------------------------------------------------------

 SCF Done:  E(RB2PLYPD3) =  -115.379191781     A.U. after   11 cycles
 E2(B2PLYPD3) =    -0.1439708190D+00 E(B2PLYPD3) =    -0.11552316259970D+03

 The electronic state is 1-A.
 Alpha  occ. eigenvalues --  -19.69853 -10.68883  -1.25663  -0.81344  -0.62304
 Alpha  occ. eigenvalues --   -0.51730  -0.49557  -0.40566  -0.36371
 Alpha virt. eigenvalues --    0.05253   0.09172   0.11509   0.11883   0.14611
 Alpha virt. eigenvalues --    0.16907   0.18030   0.28546   0.32760   0.33046
 Alpha virt. eigenvalues --    0.35152   0.37401   0.39936   0.40577   0.42300

 Mulliken charges:
               1
     1  C    0.044746
     2  O   -0.221490
     3  H    0.062757
     4  H    0.048454
     5  H    0.066768
     6  H   -0.001235
 Sum of Mulliken charges =   0.00000

 Dipole moment (field-independent basis, Debye):
    X=              0.8799    Y=             -1.2616    Z=             -0.1239  Tot=              1.5431
 Quadrupole moment (field-independent basis, Debye-Ang):
   XX=            -13.0940   YY=            -12.6416   ZZ=            -13.5605
   XY=              1.7976   XZ=              0.0105   YZ=              0.1264

 Normal termination of Gaussian 09 at Wed Aug 26 13:56:17 2020.
