 Gaussian 09, Revision D.01,
 Gaussian 09:  ES64L-G09RevD.01 24-Apr-2013

 --------------------
 #p B2PLYPD3/Def2QZVP
 --------------------

 --------
 methanol
 --------
 Symbolic Z-matrix:
 Charge =  0 Multiplicity = 1

                         Standard orientation:
 ---------------------------------------------------------------------
 Center     Atomic      Atomic             Coordinates (Angstroms)
 Number     Number       Type             X           Y           Z
 ---------------------------------------------------------------------
      1          6           0       -0.700072    0.023334   -0.004422
      2          8           0        0.756400   -0.183190   -0.013279
      3          1           0       -1.118892    0.564737   -0.700675
      4          1           0       -0.919591    0.511369    0.764645
      5          1           0       -1.038031   -0.884779    0.045660
      6          1           0        1.225751    1.134191    0.023134
 ---------------------------------------------------------------------

 SCF Done:  E(RB2PLYPD3) =  -115.421769666     A.U. after   12 cycles
 E2(B2PLYPD3) =    -0.1563352541D+00 E(B2PLYPD3) =    -0.11557810491998D+03

 The electronic state is 1-A.
 Alpha  occ. eigenvalues --  -19.75234 -10.61283  -1.10125  -0.81357  -0.56458
 Alpha  occ. eigenvalues --   -0.52571  -0.47325  -0.40348  -0.35255
 Alpha virt. eigenvalues --   -0.01053   0.07439   0.12266   0.13254   0.14588
 Alpha virt. eigenvalues --    0.17130   0.18153   0.22463   0.29282   0.32190
 Alpha virt. eigenvalues --    0.34124   0.38559   0.39580   0.42964   0.45416

 Mulliken charges:
               1
     1  C    0.106437
     2  O   -0.497235
     3  H    0.042939
     4  H    0.051141
     5  H    0.068206
     6  H    0.228513
 Sum of Mulliken charges =   0.00000

 Dipole moment (field-independent basis, Debye):
    X=             -1.2649    Y=              1.7768    Z=              0.1139  Tot=              2.1840
 Quadrupole moment (field-independent basis, Debye-Ang):
   XX=            -12.9969   YY=            -11.1372   ZZ=            -14.1072
   XY=              2.3047   XZ=              0.1207   YZ=              0.0213

 Normal termination of Gaussian 09 at Wed Aug 26 19:10:06 2020.
