 Gaussian 09, Revision D.01,
 Gaussian 09:  ES64L-G09RevD.01 24-Apr-2013

 --------------------
 #p B2PLYPD3/Def2QZVP
 --------------------

 --------
 methanol
 --------
 Symbolic Z-matrix:
 Charge =  0 Multiplicity = 1

                         Standard orientation:
 ---------------------------------------------------------------------
 Center     Atomic      Atomic             Coordinates (Angstroms)
 Number     Number       Type             X           Y           Z
 ---------------------------------------------------------------------
      1          6           0        0.641867   -0.008853    0.030475
      2          8           0       -0.753853   -0.021293   -0.080667
      3          1           0        0.914896   -0.610434    0.932263
      4          1           0        1.169506    1.155329   -0.058387
      5          1           0        1.081372   -0.582329   -0.867795
      6          1           0       -0.986154    0.260900    0.456406
 ---------------------------------------------------------------------

 SCF Done:  E(RB2PLYPD3) =  -115.327266652     A.U. after   11 cycles
 E2(B2PLYPD3) =    -0.1439230925D+00 E(B2PLYPD3) =    -0.11547118974407D+03

 The electronic state is 1-A.
 Alpha  occ. eigenvalues --  -19.69954 -10.68912  -1.28133  -0.81266  -0.62075
 Alpha  occ. eigenvalues --   -0.52004  -0.50880  -0.41056  -0.36311
 Alpha virt. eigenvalues --    0.05228   0.09073   0.11289   0.12055   0.14052
 Alpha virt. eigenvalues --    0.17256   0.18290   0.27741   0.31724   0.33300
 Alpha virt. eigenvalues --    0.34580   0.37533   0.39828   0.41132   0.43910

 Mulliken charges:
               1
     1  C    0.039958
     2  O   -0.193874
     3  H    0.060176
     4  H    0.035753
     5  H    0.071705
     6  H   -0.013718
 Sum of Mulliken charges =   0.00000

 Dipole moment (field-independent basis, Debye):
    X=              0.9441    Y=              0.3557    Z=              1.0787  Tot=              1.4770
 Quadrupole moment (field-independent basis, Debye-Ang):
   XX=            -13.5159   YY=            -13.2479   ZZ=            -12.8500
   XY=             -0.8919   XZ=             -1.6930   YZ=              0.2521

 Normal termination of Gaussian 09 at Wed Aug 26 20:53:36 2020.
