 Gaussian 09, Revision D.01,
 Gaussian 09:  ES64L-G09RevD.01 24-Apr-2013

 --------------------
 #p B2PLYPD3/Def2QZVP
 --------------------

 --------
 methanol
 --------
 Symbolic Z-matrix:
 Charge =  0 Multiplicity = 1

                         Standard orientation:
 ---------------------------------------------------------------------
 Center     Atomic      Atomic             Coordinates (Angstroms)
 Number     Number       Type             X           Y           Z
 ---------------------------------------------------------------------
      1          6           0        0.663416   -0.029278    0.000474
      2          8           0       -0.746870    0.107790   -0.004653
      3          1           0        1.033399   -0.602772   -0.875896
      4          1           0        1.067586   -0.483394    0.917295
      5          1           0        1.071873    1.053360   -0.049815
      6          1           0       -1.178394   -0.653846    0.042798
 ---------------------------------------------------------------------

 SCF Done:  E(RB2PLYPD3) =  -115.542576989     A.U. after   10 cycles
 E2(B2PLYPD3) =    -0.1461138637D+00 E(B2PLYPD3) =    -0.11568869085284D+03

 The electronic state is 1-A.
 Alpha  occ. eigenvalues --  -19.71779 -10.66835  -1.17978  -0.79105  -0.60121
 Alpha  occ. eigenvalues --   -0.51666  -0.49337  -0.40401  -0.35676
 Alpha virt. eigenvalues --    0.05293   0.08413   0.12049   0.12363   0.14922
 Alpha virt. eigenvalues --    0.16985   0.18156   0.29039   0.33280   0.33681
 Alpha virt. eigenvalues --    0.36767   0.38174   0.39609   0.40610   0.42449

 Mulliken charges:
               1
     1  C    0.061077
     2  O   -0.419345
     3  H    0.052264
     4  H    0.053621
     5  H    0.067282
     6  H    0.185101
 Sum of Mulliken charges =   0.00000

 Dipole moment (field-independent basis, Debye):
    X=              0.7647    Y=             -1.4373    Z=              0.1011  Tot=              1.6312
 Quadrupole moment (field-independent basis, Debye-Ang):
   XX=            -12.7949   YY=            -12.4781   ZZ=            -13.7759
   XY=              2.1078   XZ=             -0.0793   YZ=             -0.0446

 Normal termination of Gaussian 09 at Thu Aug 27 00:14:04 2020.
