 Gaussian 09, Revision D.01,
 Gaussian 09:  ES64L-G09RevD.01 24-Apr-2013

 --------------------
 #p B2PLYPD3/Def2QZVP
 --------------------

 --------
 methanol
 --------
 Symbolic Z-matrix:
 Charge =  0 Multiplicity = 1

                         Standard orientation:
 ---------------------------------------------------------------------
 Center     Atomic      Atomic             Coordinates (Angstroms)
 Number     Number       Type             X           Y           Z
 ---------------------------------------------------------------------
      1          6           0       -0.671090   -0.054308   -0.002262
      2          8           0        0.755686    0.109138   -0.019861
      3          1           0       -0.922244   -0.408254    0.939429
      4          1           0       -0.956730   -0.617595   -0.847123
      5          1           0       -1.118299    1.103713   -0.042191
      6          1           0        0.978324   -0.625121    0.122349
 ---------------------------------------------------------------------

 SCF Done:  E(RB2PLYPD3) =  -115.488560464     A.U. after   10 cycles
 E2(B2PLYPD3) =    -0.1451043868D+00 E(B2PLYPD3) =    -0.11563366485047D+03

 The electronic state is 1-A.
 Alpha  occ. eigenvalues --  -19.70538 -10.66573  -1.21463  -0.79734  -0.60565
 Alpha  occ. eigenvalues --   -0.54794  -0.48232  -0.41057  -0.36592
 Alpha virt. eigenvalues --    0.05222   0.09176   0.11448   0.12007   0.14352
 Alpha virt. eigenvalues --    0.17296   0.17905   0.28686   0.31563   0.33340
 Alpha virt. eigenvalues --    0.34370   0.39082   0.41324   0.42269   0.44530

 Mulliken charges:
               1
     1  C    0.066713
     2  O   -0.335740
     3  H    0.061777
     4  H    0.066611
     5  H    0.049233
     6  H    0.091407
 Sum of Mulliken charges =   0.00000

 Dipole moment (field-independent basis, Debye):
    X=             -1.1383    Y=             -1.4984    Z=              0.3033  Tot=              1.9060
 Quadrupole moment (field-independent basis, Debye-Ang):
   XX=            -13.7526   YY=            -12.3233   ZZ=            -13.3052
   XY=             -1.7453   XZ=              0.3097   YZ=             -0.0857

 Normal termination of Gaussian 09 at Wed Aug 26 19:55:41 2020.
