 Gaussian 09, Revision D.01,
 Gaussian 09:  ES64L-G09RevD.01 24-Apr-2013

 --------------------
 #p B2PLYPD3/Def2QZVP
 --------------------

 --------
 methanol
 --------
 Symbolic Z-matrix:
 Charge =  0 Multiplicity = 1

                         Standard orientation:
 ---------------------------------------------------------------------
 Center     Atomic      Atomic             Coordinates (Angstroms)
 Number     Number       Type             X           Y           Z
 ---------------------------------------------------------------------
      1          6           0        0.670535   -0.004294   -0.006915
      2          8           0       -0.738443   -0.158040    0.011363
      3          1           0        1.179000    0.471512    0.859616
      4          1           0        1.031991    0.549215   -0.824843
      5          1           0        0.887534   -0.814568   -0.080660
      6          1           0       -1.214193    1.083926   -0.003523
 ---------------------------------------------------------------------

 SCF Done:  E(RB2PLYPD3) =  -115.417116677     A.U. after   11 cycles
 E2(B2PLYPD3) =    -0.1546083461D+00 E(B2PLYPD3) =    -0.11557172502334D+03

 The electronic state is 1-A.
 Alpha  occ. eigenvalues --  -19.75148 -10.62258  -1.12535  -0.80209  -0.57359
 Alpha  occ. eigenvalues --   -0.50654  -0.49291  -0.40799  -0.34780
 Alpha virt. eigenvalues --    0.00081   0.07450   0.12729   0.12941   0.14964
 Alpha virt. eigenvalues --    0.16858   0.18591   0.23515   0.29282   0.33170
 Alpha virt. eigenvalues --    0.34608   0.37054   0.39877   0.41275   0.43912

 Mulliken charges:
               1
     1  C   -0.008927
     2  O   -0.480793
     3  H    0.046547
     4  H    0.044899
     5  H    0.154152
     6  H    0.244121
 Sum of Mulliken charges =   0.00000

 Dipole moment (field-independent basis, Debye):
    X=              0.9594    Y=              1.6106    Z=             -0.1112  Tot=              1.8780
 Quadrupole moment (field-independent basis, Debye-Ang):
   XX=            -13.0438   YY=            -11.4190   ZZ=            -14.0550
   XY=             -2.3991   XZ=              0.0249   YZ=             -0.0011

 Normal termination of Gaussian 09 at Wed Aug 26 18:32:30 2020.
