 Gaussian 09, Revision D.01,
 Gaussian 09:  ES64L-G09RevD.01 24-Apr-2013

 --------------------
 #p B2PLYPD3/Def2QZVP
 --------------------

 --------
 methanol
 --------
 Symbolic Z-matrix:
 Charge =  0 Multiplicity = 1

                         Standard orientation:
 ---------------------------------------------------------------------
 Center     Atomic      Atomic             Coordinates (Angstroms)
 Number     Number       Type             X           Y           Z
 ---------------------------------------------------------------------
      1          6           0        0.677374   -0.016230   -0.000636
      2          8           0       -0.756959    0.082840   -0.016475
      3          1           0        0.957311   -0.915858   -0.704306
      4          1           0        1.143899   -0.142955    1.050394
      5          1           0        1.042079    0.991968   -0.395145
      6          1           0       -1.151861   -0.498492    0.184671
 ---------------------------------------------------------------------

 SCF Done:  E(RB2PLYPD3) =  -115.455063675     A.U. after   11 cycles
 E2(B2PLYPD3) =    -0.1446153539D+00 E(B2PLYPD3) =    -0.11559967902910D+03

 The electronic state is 1-A.
 Alpha  occ. eigenvalues --  -19.69906 -10.68616  -1.22004  -0.80840  -0.60795
 Alpha  occ. eigenvalues --   -0.51313  -0.49637  -0.40483  -0.35873
 Alpha virt. eigenvalues --    0.05355   0.08886   0.11772   0.12030   0.14386
 Alpha virt. eigenvalues --    0.16703   0.17965   0.28800   0.31589   0.33249
 Alpha virt. eigenvalues --    0.36521   0.38080   0.38791   0.40326   0.42244

 Mulliken charges:
               1
     1  C    0.053196
     2  O   -0.287319
     3  H    0.050252
     4  H    0.055615
     5  H    0.083704
     6  H    0.044552
 Sum of Mulliken charges =   0.00000

 Dipole moment (field-independent basis, Debye):
    X=              0.8917    Y=             -1.1358    Z=              0.4004  Tot=              1.4985
 Quadrupole moment (field-independent basis, Debye-Ang):
   XX=            -12.8965   YY=            -12.6475   ZZ=            -13.5594
   XY=              1.9634   XZ=             -0.4715   YZ=             -0.2390

 Normal termination of Gaussian 09 at Wed Aug 26 11:19:55 2020.
