 Gaussian 09, Revision D.01,
 Gaussian 09:  ES64L-G09RevD.01 24-Apr-2013

 --------------------
 #p B2PLYPD3/Def2QZVP
 --------------------

 --------
 methanol
 --------
 Symbolic Z-matrix:
 Charge =  0 Multiplicity = 1

                         Standard orientation:
 ---------------------------------------------------------------------
 Center     Atomic      Atomic             Coordinates (Angstroms)
 Number     Number       Type             X           Y           Z
 ---------------------------------------------------------------------
      1          6           0        0.665083    0.013511    0.007828
      2          8           0       -0.729649   -0.174960    0.005663
      3          1           0        0.887787    0.565248    0.833644
      4          1           0        1.061527    0.464187   -0.784954
      5          1           0        1.015731   -0.818319   -0.029372
      6          1           0       -1.118349    1.107495   -0.111597
 ---------------------------------------------------------------------

 SCF Done:  E(RB2PLYPD3) =  -115.434975170     A.U. after   11 cycles
 E2(B2PLYPD3) =    -0.1541633704D+00 E(B2PLYPD3) =    -0.11558913854047D+03

 The electronic state is 1-A.
 Alpha  occ. eigenvalues --  -19.74790 -10.61056  -1.12607  -0.80370  -0.56975
 Alpha  occ. eigenvalues --   -0.53517  -0.48716  -0.40261  -0.34867
 Alpha virt. eigenvalues --   -0.00249   0.07761   0.12661   0.12829   0.14750
 Alpha virt. eigenvalues --    0.17389   0.18270   0.23397   0.29572   0.32752
 Alpha virt. eigenvalues --    0.35111   0.38624   0.40331   0.44051   0.44739

 Mulliken charges:
               1
     1  C    0.086364
     2  O   -0.481694
     3  H    0.044308
     4  H    0.032251
     5  H    0.081389
     6  H    0.237383
 Sum of Mulliken charges =   0.00000

 Dipole moment (field-independent basis, Debye):
    X=              1.1459    Y=              1.6793    Z=             -0.1942  Tot=              2.0422
 Quadrupole moment (field-independent basis, Debye-Ang):
   XX=            -13.4205   YY=            -11.2929   ZZ=            -13.8179
   XY=             -2.3561   XZ=             -0.0249   YZ=             -0.0833

 Normal termination of Gaussian 09 at Wed Aug 26 22:51:46 2020.
