 Gaussian 09, Revision D.01,
 Gaussian 09:  ES64L-G09RevD.01 24-Apr-2013

 --------------------
 #p B2PLYPD3/Def2QZVP
 --------------------

 --------
 methanol
 --------
 Symbolic Z-matrix:
 Charge =  0 Multiplicity = 1

                         Standard orientation:
 ---------------------------------------------------------------------
 Center     Atomic      Atomic             Coordinates (Angstroms)
 Number     Number       Type             X           Y           Z
 ---------------------------------------------------------------------
      1          6           0       -0.634467    0.025374   -0.018670
      2          8           0        0.719866   -0.194844   -0.000404
      3          1           0       -1.038146    0.502883   -0.762657
      4          1           0       -0.953653    0.479041    0.863581
      5          1           0       -1.126778   -0.742331    0.023397
      6          1           0        1.166456    1.166912   -0.009068
 ---------------------------------------------------------------------

 SCF Done:  E(RB2PLYPD3) =  -115.412115052     A.U. after   11 cycles
 E2(B2PLYPD3) =    -0.1555676848D+00 E(B2PLYPD3) =    -0.11556768273706D+03

 The electronic state is 1-A.
 Alpha  occ. eigenvalues --  -19.75566 -10.60827  -1.13552  -0.80840  -0.55246
 Alpha  occ. eigenvalues --   -0.53102  -0.50886  -0.38809  -0.34939
 Alpha virt. eigenvalues --   -0.02349   0.07504   0.12730   0.13202   0.14642
 Alpha virt. eigenvalues --    0.18261   0.18696   0.21945   0.29475   0.33254
 Alpha virt. eigenvalues --    0.35753   0.39108   0.40802   0.43402   0.44714

 Mulliken charges:
               1
     1  C    0.095485
     2  O   -0.461647
     3  H    0.033492
     4  H    0.033713
     5  H    0.059718
     6  H    0.239239
 Sum of Mulliken charges =   0.00000

 Dipole moment (field-independent basis, Debye):
    X=             -1.0224    Y=              1.6971    Z=             -0.0516  Tot=              1.9820
 Quadrupole moment (field-independent basis, Debye-Ang):
   XX=            -13.0968   YY=            -11.4519   ZZ=            -13.8944
   XY=              2.5695   XZ=              0.1026   YZ=             -0.1013

 Normal termination of Gaussian 09 at Wed Aug 26 20:40:03 2020.
