 Gaussian 09, Revision D.01,
 Gaussian 09:  ES64L-G09RevD.01 24-Apr-2013

 --------------------
 #p B2PLYPD3/Def2QZVP
 --------------------

 --------
 methanol
 --------
 Symbolic Z-matrix:
 Charge =  0 Multiplicity = 1

                         Standard orientation:
 ---------------------------------------------------------------------
 Center     Atomic      Atomic             Coordinates (Angstroms)
 Number     Number       Type             X           Y           Z
 ---------------------------------------------------------------------
      1          6           0       -0.669387   -0.020580    0.001171
      2          8           0        0.742907    0.126463   -0.001456
      3          1           0       -1.007296   -0.543329    0.884433
      4          1           0       -1.068761   -0.522975   -0.875400
      5          1           0       -1.032338    0.971581    0.011810
      6          1           0        1.181458   -0.793498   -0.016218
 ---------------------------------------------------------------------

 SCF Done:  E(RB2PLYPD3) =  -115.548002645     A.U. after   10 cycles
 E2(B2PLYPD3) =    -0.1481590360D+00 E(B2PLYPD3) =    -0.11569616168112D+03

 The electronic state is 1-A.
 Alpha  occ. eigenvalues --  -19.72896 -10.64958  -1.14896  -0.78629  -0.58051
 Alpha  occ. eigenvalues --   -0.51748  -0.49722  -0.40952  -0.35203
 Alpha virt. eigenvalues --    0.04605   0.08057   0.12492   0.12519   0.14986
 Alpha virt. eigenvalues --    0.17026   0.18232   0.29124   0.33107   0.33413
 Alpha virt. eigenvalues --    0.34038   0.38848   0.39808   0.41268   0.43788

 Mulliken charges:
               1
     1  C    0.070228
     2  O   -0.476667
     3  H    0.048135
     4  H    0.047416
     5  H    0.072295
     6  H    0.238593
 Sum of Mulliken charges =   0.00000

 Dipole moment (field-independent basis, Debye):
    X=             -0.8346    Y=             -1.5286    Z=             -0.0179  Tot=              1.7416
 Quadrupole moment (field-independent basis, Debye-Ang):
   XX=            -12.9070   YY=            -12.1392   ZZ=            -13.8198
   XY=             -2.3106   XZ=              0.0117   YZ=              0.0135

 Normal termination of Gaussian 09 at Wed Aug 26 10:35:00 2020.
