 Gaussian 09, Revision D.01,
 Gaussian 09:  ES64L-G09RevD.01 24-Apr-2013

 --------------------
 #p B2PLYPD3/Def2QZVP
 --------------------

 --------
 methanol
 --------
 Symbolic Z-matrix:
 Charge =  0 Multiplicity = 1

                         Standard orientation:
 ---------------------------------------------------------------------
 Center     Atomic      Atomic             Coordinates (Angstroms)
 Number     Number       Type             X           Y           Z
 ---------------------------------------------------------------------
      1          6           0       -0.655330   -0.019652   -0.034594
      2          8           0        0.745800   -0.012365    0.058138
      3          1           0       -0.933580   -0.650282   -0.920092
      4          1           0       -1.218111    1.207131   -0.005750
      5          1           0       -1.073844   -0.558436    0.946997
      6          1           0        1.191121    0.218416   -0.278691
 ---------------------------------------------------------------------

 SCF Done:  E(RB2PLYPD3) =  -115.195019533     A.U. after   11 cycles
 E2(B2PLYPD3) =    -0.1442311299D+00 E(B2PLYPD3) =    -0.11533925066238D+03

 The electronic state is 1-A.
 Alpha  occ. eigenvalues --  -19.68772 -10.71008  -1.27913  -0.84841  -0.61942
 Alpha  occ. eigenvalues --   -0.51761  -0.49864  -0.38265  -0.35987
 Alpha virt. eigenvalues --    0.04855   0.09004   0.10869   0.11969   0.13969
 Alpha virt. eigenvalues --    0.16580   0.18222   0.28361   0.30469   0.32284
 Alpha virt. eigenvalues --    0.34208   0.35849   0.39616   0.41175   0.42248

 Mulliken charges:
               1
     1  C    0.046245
     2  O   -0.149019
     3  H    0.072063
     4  H    0.030119
     5  H    0.083994
     6  H   -0.083402
 Sum of Mulliken charges =   0.00000

 Dipole moment (field-independent basis, Debye):
    X=             -0.6373    Y=              0.2706    Z=             -0.8316  Tot=              1.0821
 Quadrupole moment (field-independent basis, Debye-Ang):
   XX=            -12.6002   YY=            -13.3635   ZZ=            -13.2173
   XY=              1.0364   XZ=             -1.4790   YZ=             -0.0919

 Normal termination of Gaussian 09 at Wed Aug 26 20:47:10 2020.
