 Gaussian 09, Revision D.01,
 Gaussian 09:  ES64L-G09RevD.01 24-Apr-2013

 --------------------
 #p B2PLYPD3/Def2QZVP
 --------------------

 --------
 methanol
 --------
 Symbolic Z-matrix:
 Charge =  0 Multiplicity = 1

                         Standard orientation:
 ---------------------------------------------------------------------
 Center     Atomic      Atomic             Coordinates (Angstroms)
 Number     Number       Type             X           Y           Z
 ---------------------------------------------------------------------
      1          6           0       -0.665136   -0.024272    0.017230
      2          8           0        0.743298    0.087916   -0.017666
      3          1           0       -0.930216   -0.463778    0.953736
      4          1           0       -1.026601   -0.654268   -0.888880
      5          1           0       -1.046027    1.103318   -0.084384
      6          1           0        1.047276   -0.542966    0.057476
 ---------------------------------------------------------------------

 SCF Done:  E(RB2PLYPD3) =  -115.426362858     A.U. after   10 cycles
 E2(B2PLYPD3) =    -0.1437337961D+00 E(B2PLYPD3) =    -0.11557009665433D+03

 The electronic state is 1-A.
 Alpha  occ. eigenvalues --  -19.69539 -10.67613  -1.24293  -0.81041  -0.61780
 Alpha  occ. eigenvalues --   -0.52612  -0.49546  -0.41166  -0.36085
 Alpha virt. eigenvalues --    0.05338   0.09405   0.11632   0.11977   0.14625
 Alpha virt. eigenvalues --    0.16867   0.17532   0.28723   0.32752   0.32910
 Alpha virt. eigenvalues --    0.36178   0.38164   0.40650   0.41267   0.43136

 Mulliken charges:
               1
     1  C    0.057852
     2  O   -0.256079
     3  H    0.059883
     4  H    0.046459
     5  H    0.071002
     6  H    0.020883
 Sum of Mulliken charges =   0.00000

 Dipole moment (field-independent basis, Debye):
    X=             -0.9366    Y=             -1.2948    Z=              0.2371  Tot=              1.6156
 Quadrupole moment (field-independent basis, Debye-Ang):
   XX=            -13.4238   YY=            -12.3620   ZZ=            -13.4412
   XY=             -1.8351   XZ=              0.2002   YZ=             -0.1597

 Normal termination of Gaussian 09 at Wed Aug 26 15:34:57 2020.
