 Gaussian 09, Revision D.01,
 Gaussian 09:  ES64L-G09RevD.01 24-Apr-2013

 --------------------
 #p B2PLYPD3/Def2QZVP
 --------------------

 --------
 methanol
 --------
 Symbolic Z-matrix:
 Charge =  0 Multiplicity = 1

                         Standard orientation:
 ---------------------------------------------------------------------
 Center     Atomic      Atomic             Coordinates (Angstroms)
 Number     Number       Type             X           Y           Z
 ---------------------------------------------------------------------
      1          6           0        0.678576    0.022996    0.002844
      2          8           0       -0.747400   -0.146049   -0.007233
      3          1           0        0.995212    0.478500    0.883439
      4          1           0        1.051831    0.581523   -0.828268
      5          1           0        1.077644   -0.911182   -0.035007
      6          1           0       -1.216939    0.881576    0.020634
 ---------------------------------------------------------------------

 SCF Done:  E(RB2PLYPD3) =  -115.525114123     A.U. after   11 cycles
 E2(B2PLYPD3) =    -0.1501703494D+00 E(B2PLYPD3) =    -0.11567528447287D+03

 The electronic state is 1-A.
 Alpha  occ. eigenvalues --  -19.73615 -10.63864  -1.12794  -0.79001  -0.56356
 Alpha  occ. eigenvalues --   -0.51995  -0.49625  -0.40772  -0.35125
 Alpha virt. eigenvalues --    0.03488   0.07746   0.12600   0.12739   0.14821
 Alpha virt. eigenvalues --    0.17273   0.18271   0.28463   0.29797   0.33292
 Alpha virt. eigenvalues --    0.33694   0.39098   0.40384   0.41828   0.43765

 Mulliken charges:
               1
     1  C    0.083185
     2  O   -0.500566
     3  H    0.049202
     4  H    0.045870
     5  H    0.070292
     6  H    0.252018
 Sum of Mulliken charges =   0.00000

 Dipole moment (field-independent basis, Debye):
    X=              0.9247    Y=              1.6088    Z=              0.0685  Tot=              1.8569
 Quadrupole moment (field-independent basis, Debye-Ang):
   XX=            -12.7771   YY=            -11.9859   ZZ=            -13.8500
   XY=             -2.4852   XZ=             -0.0844   YZ=              0.0398

 Normal termination of Gaussian 09 at Thu Aug 27 00:13:20 2020.
