 Gaussian 09, Revision D.01,
 Gaussian 09:  ES64L-G09RevD.01 24-Apr-2013

 --------------------
 #p B2PLYPD3/Def2QZVP
 --------------------

 --------
 methanol
 --------
 Symbolic Z-matrix:
 Charge =  0 Multiplicity = 1

                         Standard orientation:
 ---------------------------------------------------------------------
 Center     Atomic      Atomic             Coordinates (Angstroms)
 Number     Number       Type             X           Y           Z
 ---------------------------------------------------------------------
      1          6           0       -0.673637   -0.008363    0.014261
      2          8           0        0.749554    0.095478   -0.009638
      3          1           0       -1.025047   -0.485852    0.937860
      4          1           0       -1.013291   -0.636462   -0.916891
      5          1           0       -1.033202    1.025858   -0.083984
      6          1           0        1.116928   -0.617190    0.054556
 ---------------------------------------------------------------------

 SCF Done:  E(RB2PLYPD3) =  -115.517490258     A.U. after   10 cycles
 E2(B2PLYPD3) =    -0.1450296239D+00 E(B2PLYPD3) =    -0.11566251988233D+03

 The electronic state is 1-A.
 Alpha  occ. eigenvalues --  -19.70730 -10.67083  -1.19835  -0.80026  -0.60364
 Alpha  occ. eigenvalues --   -0.51344  -0.50336  -0.41268  -0.35512
 Alpha virt. eigenvalues --    0.05386   0.08877   0.11980   0.12218   0.14661
 Alpha virt. eigenvalues --    0.16906   0.17788   0.29017   0.32542   0.33153
 Alpha virt. eigenvalues --    0.37240   0.39333   0.39832   0.40265   0.42831

 Mulliken charges:
               1
     1  C    0.064124
     2  O   -0.365257
     3  H    0.055154
     4  H    0.041325
     5  H    0.081371
     6  H    0.123283
 Sum of Mulliken charges =   0.00000

 Dipole moment (field-independent basis, Debye):
    X=             -0.9036    Y=             -1.3023    Z=              0.1910  Tot=              1.5965
 Quadrupole moment (field-independent basis, Debye-Ang):
   XX=            -13.1346   YY=            -12.3632   ZZ=            -13.6272
   XY=             -2.0869   XZ=              0.0745   YZ=             -0.1717

 Normal termination of Gaussian 09 at Thu Aug 27 00:15:15 2020.
