 Gaussian 09, Revision D.01,
 Gaussian 09:  ES64L-G09RevD.01 24-Apr-2013

 --------------------
 #p B2PLYPD3/Def2QZVP
 --------------------

 --------
 methanol
 --------
 Symbolic Z-matrix:
 Charge =  0 Multiplicity = 1

                         Standard orientation:
 ---------------------------------------------------------------------
 Center     Atomic      Atomic             Coordinates (Angstroms)
 Number     Number       Type             X           Y           Z
 ---------------------------------------------------------------------
      1          6           0        0.656659    0.035068   -0.008660
      2          8           0       -0.743730   -0.162259    0.006902
      3          1           0        1.055807    0.539356    0.825920
      4          1           0        0.934599    0.552051   -0.823569
      5          1           0        1.228024   -0.900246   -0.013914
      6          1           0       -1.208548    0.896498    0.008302
 ---------------------------------------------------------------------

 SCF Done:  E(RB2PLYPD3) =  -115.516244270     A.U. after   11 cycles
 E2(B2PLYPD3) =    -0.1505213662D+00 E(B2PLYPD3) =    -0.11566676563651D+03

 The electronic state is 1-A.
 Alpha  occ. eigenvalues --  -19.74110 -10.63956  -1.13449  -0.78713  -0.56150
 Alpha  occ. eigenvalues --   -0.52628  -0.49544  -0.40097  -0.35205
 Alpha virt. eigenvalues --    0.02959   0.07508   0.12726   0.12773   0.14690
 Alpha virt. eigenvalues --    0.18103   0.18297   0.27349   0.29621   0.33207
 Alpha virt. eigenvalues --    0.34099   0.39076   0.40163   0.42290   0.43063

 Mulliken charges:
               1
     1  C    0.086138
     2  O   -0.490243
     3  H    0.042011
     4  H    0.046884
     5  H    0.057894
     6  H    0.257316
 Sum of Mulliken charges =   0.00000

 Dipole moment (field-independent basis, Debye):
    X=              0.8553    Y=              1.7259    Z=             -0.0362  Tot=              1.9266
 Quadrupole moment (field-independent basis, Debye-Ang):
   XX=            -12.6905   YY=            -12.0872   ZZ=            -13.9649
   XY=             -2.5342   XZ=              0.0510   YZ=             -0.0484

 Normal termination of Gaussian 09 at Wed Aug 26 11:40:10 2020.
