 Gaussian 09, Revision D.01,
 Gaussian 09:  ES64L-G09RevD.01 24-Apr-2013

 --------------------
 #p B2PLYPD3/Def2QZVP
 --------------------

 --------
 methanol
 --------
 Symbolic Z-matrix:
 Charge =  0 Multiplicity = 1

                         Standard orientation:
 ---------------------------------------------------------------------
 Center     Atomic      Atomic             Coordinates (Angstroms)
 Number     Number       Type             X           Y           Z
 ---------------------------------------------------------------------
      1          6           0       -0.658287   -0.009929    0.027375
      2          8           0        0.747426    0.093382   -0.039531
      3          1           0       -1.013954   -0.231654    1.009682
      4          1           0       -1.106162   -0.798321   -0.795900
      5          1           0       -1.041299    0.967847   -0.256692
      6          1           0        1.131732   -0.625348    0.194909
 ---------------------------------------------------------------------

 SCF Done:  E(RB2PLYPD3) =  -115.530526334     A.U. after   11 cycles
 E2(B2PLYPD3) =    -0.1457347231D+00 E(B2PLYPD3) =    -0.11567626105695D+03

 The electronic state is 1-A.
 Alpha  occ. eigenvalues --  -19.71693 -10.66895  -1.19207  -0.79655  -0.60358
 Alpha  occ. eigenvalues --   -0.51323  -0.50368  -0.40940  -0.35511
 Alpha virt. eigenvalues --    0.05332   0.08521   0.11902   0.12446   0.14720
 Alpha virt. eigenvalues --    0.17022   0.18336   0.28796   0.32683   0.33688
 Alpha virt. eigenvalues --    0.36049   0.39150   0.39574   0.40717   0.43605

 Mulliken charges:
               1
     1  C    0.057829
     2  O   -0.391029
     3  H    0.058888
     4  H    0.033096
     5  H    0.075422
     6  H    0.165793
 Sum of Mulliken charges =   0.00000

 Dipole moment (field-independent basis, Debye):
    X=             -0.7843    Y=             -1.1978    Z=              0.5696  Tot=              1.5409
 Quadrupole moment (field-independent basis, Debye-Ang):
   XX=            -13.0160   YY=            -12.6630   ZZ=            -13.5404
   XY=             -2.1147   XZ=              0.5311   YZ=             -0.3821

 Normal termination of Gaussian 09 at Wed Aug 26 11:26:18 2020.
