 Gaussian 09, Revision D.01,
 Gaussian 09:  ES64L-G09RevD.01 24-Apr-2013

 --------------------
 #p B2PLYPD3/Def2QZVP
 --------------------

 --------
 methanol
 --------
 Symbolic Z-matrix:
 Charge =  0 Multiplicity = 1

                         Standard orientation:
 ---------------------------------------------------------------------
 Center     Atomic      Atomic             Coordinates (Angstroms)
 Number     Number       Type             X           Y           Z
 ---------------------------------------------------------------------
      1          6           0       -0.667233    0.012426   -0.008160
      2          8           0        0.726807   -0.195640    0.006472
      3          1           0       -1.075158    0.495317   -0.769932
      4          1           0       -0.921326    0.653980    0.789921
      5          1           0       -1.171189   -0.735578    0.055139
      6          1           0        1.356611    1.076843   -0.077946
 ---------------------------------------------------------------------

 SCF Done:  E(RB2PLYPD3) =  -115.417014987     A.U. after   11 cycles
 E2(B2PLYPD3) =    -0.1555462166D+00 E(B2PLYPD3) =    -0.11557256120314D+03

 The electronic state is 1-A.
 Alpha  occ. eigenvalues --  -19.75193 -10.61471  -1.11762  -0.80866  -0.55102
 Alpha  occ. eigenvalues --   -0.51960  -0.50165  -0.39212  -0.34426
 Alpha virt. eigenvalues --   -0.02072   0.07399   0.13003   0.13087   0.14636
 Alpha virt. eigenvalues --    0.18144   0.18426   0.21915   0.29926   0.32867
 Alpha virt. eigenvalues --    0.34692   0.38374   0.40379   0.43028   0.44265

 Mulliken charges:
               1
     1  C    0.090409
     2  O   -0.486101
     3  H    0.036287
     4  H    0.033966
     5  H    0.076821
     6  H    0.248619
 Sum of Mulliken charges =   0.00000

 Dipole moment (field-independent basis, Debye):
    X=             -0.8360    Y=              1.7217    Z=             -0.1619  Tot=              1.9208
 Quadrupole moment (field-independent basis, Debye-Ang):
   XX=            -12.1897   YY=            -11.6409   ZZ=            -14.1632
   XY=              2.9030   XZ=              0.0036   YZ=             -0.1308

 Normal termination of Gaussian 09 at Wed Aug 26 21:07:13 2020.
