 Gaussian 09, Revision D.01,
 Gaussian 09:  ES64L-G09RevD.01 24-Apr-2013

 --------------------
 #p B2PLYPD3/Def2QZVP
 --------------------

 --------
 methanol
 --------
 Symbolic Z-matrix:
 Charge =  0 Multiplicity = 1

                         Standard orientation:
 ---------------------------------------------------------------------
 Center     Atomic      Atomic             Coordinates (Angstroms)
 Number     Number       Type             X           Y           Z
 ---------------------------------------------------------------------
      1          6           0        0.660988    0.032822    0.000261
      2          8           0       -0.743342   -0.152576   -0.003621
      3          1           0        0.994421    0.499787    0.853466
      4          1           0        1.008161    0.574765   -0.816026
      5          1           0        1.157051   -0.930672   -0.025868
      6          1           0       -1.178821    0.879796    0.015828
 ---------------------------------------------------------------------

 SCF Done:  E(RB2PLYPD3) =  -115.527609017     A.U. after   11 cycles
 E2(B2PLYPD3) =    -0.1498238009D+00 E(B2PLYPD3) =    -0.11567743281771D+03

 The electronic state is 1-A.
 Alpha  occ. eigenvalues --  -19.73781 -10.63975  -1.13746  -0.78719  -0.56701
 Alpha  occ. eigenvalues --   -0.52587  -0.49493  -0.40544  -0.35260
 Alpha virt. eigenvalues --    0.03506   0.07741   0.12599   0.12728   0.14842
 Alpha virt. eigenvalues --    0.17752   0.18195   0.28466   0.29798   0.33485
 Alpha virt. eigenvalues --    0.34125   0.39072   0.40025   0.42434   0.43751

 Mulliken charges:
               1
     1  C    0.085334
     2  O   -0.488972
     3  H    0.046216
     4  H    0.044538
     5  H    0.060463
     6  H    0.252421
 Sum of Mulliken charges =   0.00000

 Dipole moment (field-independent basis, Debye):
    X=              0.8959    Y=              1.6846    Z=              0.0434  Tot=              1.9085
 Quadrupole moment (field-independent basis, Debye-Ang):
   XX=            -12.8809   YY=            -12.0150   ZZ=            -13.8891
   XY=             -2.4242   XZ=             -0.0419   YZ=              0.0160

 Normal termination of Gaussian 09 at Wed Aug 26 09:50:05 2020.
