 Gaussian 09, Revision D.01,
 Gaussian 09:  ES64L-G09RevD.01 24-Apr-2013

 --------------------
 #p B2PLYPD3/Def2QZVP
 --------------------

 --------
 methanol
 --------
 Symbolic Z-matrix:
 Charge =  0 Multiplicity = 1

                         Standard orientation:
 ---------------------------------------------------------------------
 Center     Atomic      Atomic             Coordinates (Angstroms)
 Number     Number       Type             X           Y           Z
 ---------------------------------------------------------------------
      1          6           0        0.683684    0.016517   -0.011811
      2          8           0       -0.751700   -0.140511    0.005101
      3          1           0        0.989616    0.542615    0.897733
      4          1           0        1.079712    0.527566   -0.812984
      5          1           0        1.032574   -0.932588    0.001531
      6          1           0       -1.190406    0.887399   -0.056218
 ---------------------------------------------------------------------

 SCF Done:  E(RB2PLYPD3) =  -115.524942829     A.U. after   11 cycles
 E2(B2PLYPD3) =    -0.1502550243D+00 E(B2PLYPD3) =    -0.11567519785367D+03

 The electronic state is 1-A.
 Alpha  occ. eigenvalues --  -19.73598 -10.64062  -1.12758  -0.79000  -0.56859
 Alpha  occ. eigenvalues --   -0.51551  -0.49196  -0.41306  -0.35031
 Alpha virt. eigenvalues --    0.03615   0.07790   0.12476   0.12668   0.14860
 Alpha virt. eigenvalues --    0.17088   0.18224   0.28604   0.30109   0.32710
 Alpha virt. eigenvalues --    0.34012   0.38756   0.39998   0.41446   0.44309

 Mulliken charges:
               1
     1  C    0.080119
     2  O   -0.497312
     3  H    0.045543
     4  H    0.049287
     5  H    0.073403
     6  H    0.248960
 Sum of Mulliken charges =   0.00000

 Dipole moment (field-independent basis, Debye):
    X=              0.9724    Y=              1.6002    Z=             -0.1485  Tot=              1.8784
 Quadrupole moment (field-independent basis, Debye-Ang):
   XX=            -12.9542   YY=            -11.8805   ZZ=            -13.8847
   XY=             -2.3840   XZ=             -0.0222   YZ=             -0.1285

 Normal termination of Gaussian 09 at Wed Aug 26 15:38:05 2020.
