 Gaussian 09, Revision D.01,
 Gaussian 09:  ES64L-G09RevD.01 24-Apr-2013

 --------------------
 #p B2PLYPD3/Def2QZVP
 --------------------

 --------
 methanol
 --------
 Symbolic Z-matrix:
 Charge =  0 Multiplicity = 1

                         Standard orientation:
 ---------------------------------------------------------------------
 Center     Atomic      Atomic             Coordinates (Angstroms)
 Number     Number       Type             X           Y           Z
 ---------------------------------------------------------------------
      1          6           0        0.660992   -0.003286   -0.011543
      2          8           0       -0.758075    0.090701   -0.014327
      3          1           0        1.175623   -0.700403   -0.754592
      4          1           0        1.006743   -0.456931    0.943591
      5          1           0        1.020762    1.103465   -0.051572
      6          1           0       -1.104478   -0.652025    0.046449
 ---------------------------------------------------------------------

 SCF Done:  E(RB2PLYPD3) =  -115.519819421     A.U. after   11 cycles
 E2(B2PLYPD3) =    -0.1458006616D+00 E(B2PLYPD3) =    -0.11566562008247D+03

 The electronic state is 1-A.
 Alpha  occ. eigenvalues --  -19.71576 -10.67496  -1.19859  -0.79365  -0.61259
 Alpha  occ. eigenvalues --   -0.50335  -0.49453  -0.41852  -0.35373
 Alpha virt. eigenvalues --    0.05250   0.08544   0.11611   0.12442   0.15264
 Alpha virt. eigenvalues --    0.16724   0.17999   0.29206   0.32258   0.33779
 Alpha virt. eigenvalues --    0.36998   0.38269   0.38937   0.39659   0.42054

 Mulliken charges:
               1
     1  C    0.060471
     2  O   -0.366486
     3  H    0.046587
     4  H    0.044723
     5  H    0.072810
     6  H    0.141896
 Sum of Mulliken charges =   0.00000

 Dipole moment (field-independent basis, Debye):
    X=              0.8741    Y=             -1.4032    Z=              0.1625  Tot=              1.6612
 Quadrupole moment (field-independent basis, Debye-Ang):
   XX=            -13.0970   YY=            -12.1281   ZZ=            -14.0736
   XY=              1.8595   XZ=             -0.2119   YZ=             -0.0469

 Normal termination of Gaussian 09 at Wed Aug 26 22:13:50 2020.
