 Gaussian 09, Revision D.01,
 Gaussian 09:  ES64L-G09RevD.01 24-Apr-2013

 --------------------
 #p B2PLYPD3/Def2QZVP
 --------------------

 --------
 methanol
 --------
 Symbolic Z-matrix:
 Charge =  0 Multiplicity = 1

                         Standard orientation:
 ---------------------------------------------------------------------
 Center     Atomic      Atomic             Coordinates (Angstroms)
 Number     Number       Type             X           Y           Z
 ---------------------------------------------------------------------
      1          6           0        0.646310    0.037846   -0.003407
      2          8           0       -0.722678   -0.173705    0.008458
      3          1           0        0.953504    0.571487    0.761095
      4          1           0        1.038008    0.431380   -0.738945
      5          1           0        1.001458   -0.942067    0.013326
      6          1           0       -1.089408    1.101766   -0.082693
 ---------------------------------------------------------------------

 SCF Done:  E(RB2PLYPD3) =  -115.442531159     A.U. after   11 cycles
 E2(B2PLYPD3) =    -0.1537957542D+00 E(B2PLYPD3) =    -0.11559632691307D+03

 The electronic state is 1-A.
 Alpha  occ. eigenvalues --  -19.75078 -10.61246  -1.13684  -0.80187  -0.56856
 Alpha  occ. eigenvalues --   -0.54344  -0.48806  -0.39705  -0.35331
 Alpha virt. eigenvalues --   -0.00046   0.07768   0.12267   0.13072   0.15237
 Alpha virt. eigenvalues --    0.17266   0.18299   0.23333   0.29537   0.33450
 Alpha virt. eigenvalues --    0.35882   0.38135   0.39391   0.44285   0.46342

 Mulliken charges:
               1
     1  C    0.104071
     2  O   -0.463695
     3  H    0.035302
     4  H    0.040556
     5  H    0.052863
     6  H    0.230904
 Sum of Mulliken charges =   0.00000

 Dipole moment (field-independent basis, Debye):
    X=              1.0993    Y=              1.7739    Z=             -0.1814  Tot=              2.0948
 Quadrupole moment (field-independent basis, Debye-Ang):
   XX=            -13.5529   YY=            -11.2451   ZZ=            -13.9306
   XY=             -2.0132   XZ=             -0.0131   YZ=             -0.0949

 Normal termination of Gaussian 09 at Wed Aug 26 22:54:45 2020.
