 Gaussian 09, Revision D.01,
 Gaussian 09:  ES64L-G09RevD.01 24-Apr-2013

 --------------------
 #p B2PLYPD3/Def2QZVP
 --------------------

 --------
 methanol
 --------
 Symbolic Z-matrix:
 Charge =  0 Multiplicity = 1

                         Standard orientation:
 ---------------------------------------------------------------------
 Center     Atomic      Atomic             Coordinates (Angstroms)
 Number     Number       Type             X           Y           Z
 ---------------------------------------------------------------------
      1          6           0       -0.655738   -0.014071    0.024199
      2          8           0        0.746526    0.093095   -0.034172
      3          1           0       -0.923755   -0.328203    1.011478
      4          1           0       -1.095945   -0.756219   -0.818552
      5          1           0       -1.099338    1.009746   -0.186446
      6          1           0        1.081260   -0.585658    0.121705
 ---------------------------------------------------------------------

 SCF Done:  E(RB2PLYPD3) =  -115.494523000     A.U. after   10 cycles
 E2(B2PLYPD3) =    -0.1445810789D+00 E(B2PLYPD3) =    -0.11563910407934D+03

 The electronic state is 1-A.
 Alpha  occ. eigenvalues --  -19.70737 -10.67365  -1.21873  -0.80229  -0.61153
 Alpha  occ. eigenvalues --   -0.52084  -0.50297  -0.40964  -0.35762
 Alpha virt. eigenvalues --    0.05394   0.08938   0.11865   0.12240   0.14536
 Alpha virt. eigenvalues --    0.17234   0.17904   0.28705   0.32577   0.33431
 Alpha virt. eigenvalues --    0.36460   0.38406   0.39673   0.41073   0.43692

 Mulliken charges:
               1
     1  C    0.058534
     2  O   -0.318907
     3  H    0.057831
     4  H    0.036024
     5  H    0.073824
     6  H    0.092694
 Sum of Mulliken charges =   0.00000

 Dipole moment (field-independent basis, Debye):
    X=             -0.8660    Y=             -1.2312    Z=              0.4253  Tot=              1.5642
 Quadrupole moment (field-independent basis, Debye-Ang):
   XX=            -13.1948   YY=            -12.5799   ZZ=            -13.5185
   XY=             -2.0402   XZ=              0.4462   YZ=             -0.2756

 Normal termination of Gaussian 09 at Wed Aug 26 16:23:33 2020.
