 Gaussian 09, Revision D.01,
 Gaussian 09:  ES64L-G09RevD.01 24-Apr-2013

 --------------------
 #p B2PLYPD3/Def2QZVP
 --------------------

 --------
 methanol
 --------
 Symbolic Z-matrix:
 Charge =  0 Multiplicity = 1

                         Standard orientation:
 ---------------------------------------------------------------------
 Center     Atomic      Atomic             Coordinates (Angstroms)
 Number     Number       Type             X           Y           Z
 ---------------------------------------------------------------------
      1          6           0        0.665883   -0.003047   -0.011972
      2          8           0       -0.752693   -0.132698    0.011387
      3          1           0        1.057198    0.579191    0.864528
      4          1           0        0.989640    0.516649   -0.859206
      5          1           0        1.043451   -0.914584    0.012608
      6          1           0       -1.064046    0.898614   -0.037188
 ---------------------------------------------------------------------

 SCF Done:  E(RB2PLYPD3) =  -115.529772242     A.U. after   11 cycles
 E2(B2PLYPD3) =    -0.1494164898D+00 E(B2PLYPD3) =    -0.11567918873177D+03

 The electronic state is 1-A.
 Alpha  occ. eigenvalues --  -19.73582 -10.64178  -1.14308  -0.78959  -0.57682
 Alpha  occ. eigenvalues --   -0.51292  -0.50114  -0.42052  -0.34950
 Alpha virt. eigenvalues --    0.03892   0.08027   0.12427   0.12626   0.14913
 Alpha virt. eigenvalues --    0.17540   0.17957   0.29004   0.30673   0.33136
 Alpha virt. eigenvalues --    0.33900   0.38515   0.40612   0.41405   0.44054

 Mulliken charges:
               1
     1  C    0.082200
     2  O   -0.479764
     3  H    0.034171
     4  H    0.042504
     5  H    0.074379
     6  H    0.246510
 Sum of Mulliken charges =   0.00000

 Dipole moment (field-independent basis, Debye):
    X=              1.0533    Y=              1.5642    Z=             -0.1521  Tot=              1.8919
 Quadrupole moment (field-independent basis, Debye-Ang):
   XX=            -13.4554   YY=            -11.7226   ZZ=            -13.9068
   XY=             -2.2575   XZ=              0.0536   YZ=             -0.1265

 Normal termination of Gaussian 09 at Wed Aug 26 14:55:54 2020.
