 Gaussian 09, Revision D.01,
 Gaussian 09:  ES64L-G09RevD.01 24-Apr-2013

 --------------------
 #p B2PLYPD3/Def2QZVP
 --------------------

 --------
 methanol
 --------
 Symbolic Z-matrix:
 Charge =  0 Multiplicity = 1

                         Standard orientation:
 ---------------------------------------------------------------------
 Center     Atomic      Atomic             Coordinates (Angstroms)
 Number     Number       Type             X           Y           Z
 ---------------------------------------------------------------------
      1          6           0       -0.698653    0.008773   -0.025472
      2          8           0        0.766927   -0.146928    0.001904
      3          1           0       -1.101809    0.471296   -0.834460
      4          1           0       -0.975313    0.524007    0.944097
      5          1           0       -1.014828   -0.842324    0.068968
      6          1           0        1.148455    0.969808   -0.041003
 ---------------------------------------------------------------------

 SCF Done:  E(RB2PLYPD3) =  -115.484033255     A.U. after   11 cycles
 E2(B2PLYPD3) =    -0.1521062138D+00 E(B2PLYPD3) =    -0.11563613946861D+03

 The electronic state is 1-A.
 Alpha  occ. eigenvalues --  -19.74095 -10.63397  -1.11371  -0.80240  -0.56294
 Alpha  occ. eigenvalues --   -0.51338  -0.49035  -0.41424  -0.35081
 Alpha virt. eigenvalues --    0.02809   0.07605   0.12110   0.12985   0.14356
 Alpha virt. eigenvalues --    0.17167   0.18618   0.26898   0.29347   0.31706
 Alpha virt. eigenvalues --    0.33921   0.37220   0.41271   0.41673   0.43915

 Mulliken charges:
               1
     1  C    0.066861
     2  O   -0.504257
     3  H    0.056263
     4  H    0.042648
     5  H    0.087668
     6  H    0.250817
 Sum of Mulliken charges =   0.00000

 Dipole moment (field-independent basis, Debye):
    X=             -1.1697    Y=              1.5663    Z=             -0.1321  Tot=              1.9593
 Quadrupole moment (field-independent basis, Debye-Ang):
   XX=            -13.1856   YY=            -11.7853   ZZ=            -13.7331
   XY=              2.4530   XZ=              0.1312   YZ=             -0.2053

 Normal termination of Gaussian 09 at Wed Aug 26 22:45:49 2020.
