 Gaussian 09, Revision D.01,
 Gaussian 09:  ES64L-G09RevD.01 24-Apr-2013

 --------------------
 #p B2PLYPD3/Def2QZVP
 --------------------

 --------
 methanol
 --------
 Symbolic Z-matrix:
 Charge =  0 Multiplicity = 1

                         Standard orientation:
 ---------------------------------------------------------------------
 Center     Atomic      Atomic             Coordinates (Angstroms)
 Number     Number       Type             X           Y           Z
 ---------------------------------------------------------------------
      1          6           0        0.665515    0.024183    0.002662
      2          8           0       -0.742243   -0.144459    0.002843
      3          1           0        1.032948    0.531656    0.869950
      4          1           0        1.059546    0.515128   -0.863919
      5          1           0        1.071876   -0.913628   -0.013775
      6          1           0       -1.219523    0.877418   -0.030968
 ---------------------------------------------------------------------

 SCF Done:  E(RB2PLYPD3) =  -115.527128250     A.U. after   11 cycles
 E2(B2PLYPD3) =    -0.1500676609D+00 E(B2PLYPD3) =    -0.11567719591054D+03

 The electronic state is 1-A.
 Alpha  occ. eigenvalues --  -19.73817 -10.64128  -1.13503  -0.78653  -0.56592
 Alpha  occ. eigenvalues --   -0.51791  -0.49868  -0.40554  -0.35118
 Alpha virt. eigenvalues --    0.03459   0.07704   0.12613   0.12763   0.14943
 Alpha virt. eigenvalues --    0.17251   0.18466   0.28361   0.29760   0.33541
 Alpha virt. eigenvalues --    0.34269   0.38857   0.40214   0.41640   0.43612

 Mulliken charges:
               1
     1  C    0.075108
     2  O   -0.489877
     3  H    0.047355
     4  H    0.044608
     5  H    0.068674
     6  H    0.254133
 Sum of Mulliken charges =   0.00000

 Dipole moment (field-independent basis, Debye):
    X=              0.8307    Y=              1.5881    Z=             -0.0593  Tot=              1.7932
 Quadrupole moment (field-independent basis, Debye-Ang):
   XX=            -12.7359   YY=            -12.0775   ZZ=            -13.8914
   XY=             -2.4917   XZ=              0.0409   YZ=             -0.0162

 Normal termination of Gaussian 09 at Thu Aug 27 00:13:50 2020.
