 Gaussian 09, Revision D.01,
 Gaussian 09:  ES64L-G09RevD.01 24-Apr-2013

 --------------------
 #p B2PLYPD3/Def2QZVP
 --------------------

 --------
 methanol
 --------
 Symbolic Z-matrix:
 Charge =  0 Multiplicity = 1

                         Standard orientation:
 ---------------------------------------------------------------------
 Center     Atomic      Atomic             Coordinates (Angstroms)
 Number     Number       Type             X           Y           Z
 ---------------------------------------------------------------------
      1          6           0        0.667855    0.062564    0.008191
      2          8           0       -0.738711   -0.192641   -0.011299
      3          1           0        0.890849    0.410866    0.751538
      4          1           0        0.948505    0.561175   -0.724041
      5          1           0        1.151328   -0.927318   -0.030091
      6          1           0       -1.088121    1.121015    0.043836
 ---------------------------------------------------------------------

 SCF Done:  E(RB2PLYPD3) =  -115.395612899     A.U. after   11 cycles
 E2(B2PLYPD3) =    -0.1548757668D+00 E(B2PLYPD3) =    -0.11555048866625D+03

 The electronic state is 1-A.
 Alpha  occ. eigenvalues --  -19.75078 -10.60902  -1.11970  -0.81466  -0.57037
 Alpha  occ. eigenvalues --   -0.54589  -0.47864  -0.39412  -0.35880
 Alpha virt. eigenvalues --   -0.00522   0.07610   0.12182   0.12893   0.14642
 Alpha virt. eigenvalues --    0.17798   0.18202   0.22786   0.29330   0.33483
 Alpha virt. eigenvalues --    0.33820   0.37381   0.40408   0.43732   0.46142

 Mulliken charges:
               1
     1  C    0.052515
     2  O   -0.483136
     3  H    0.102994
     4  H    0.053547
     5  H    0.046672
     6  H    0.227407
 Sum of Mulliken charges =   0.00000

 Dipole moment (field-independent basis, Debye):
    X=              1.2693    Y=              1.8676    Z=              0.1218  Tot=              2.2614
 Quadrupole moment (field-independent basis, Debye-Ang):
   XX=            -13.5783   YY=            -11.2772   ZZ=            -13.7539
   XY=             -2.0914   XZ=             -0.0633   YZ=              0.0526

 Normal termination of Gaussian 09 at Wed Aug 26 23:46:36 2020.
