 Gaussian 09, Revision D.01,
 Gaussian 09:  ES64L-G09RevD.01 24-Apr-2013

 --------------------
 #p B2PLYPD3/Def2QZVP
 --------------------

 --------
 methanol
 --------
 Symbolic Z-matrix:
 Charge =  0 Multiplicity = 1

                         Standard orientation:
 ---------------------------------------------------------------------
 Center     Atomic      Atomic             Coordinates (Angstroms)
 Number     Number       Type             X           Y           Z
 ---------------------------------------------------------------------
      1          6           0       -0.664138   -0.011378   -0.010851
      2          8           0        0.751473    0.087284   -0.003120
      3          1           0       -1.033650   -0.550910    0.996556
      4          1           0       -0.997431   -0.595451   -0.958224
      5          1           0       -1.132992    1.022243    0.003958
      6          1           0        1.137120   -0.505885    0.047780
 ---------------------------------------------------------------------

 SCF Done:  E(RB2PLYPD3) =  -115.430189065     A.U. after   11 cycles
 E2(B2PLYPD3) =    -0.1441603439D+00 E(B2PLYPD3) =    -0.11557434940893D+03

 The electronic state is 1-A.
 Alpha  occ. eigenvalues --  -19.69802 -10.68798  -1.23450  -0.81329  -0.61227
 Alpha  occ. eigenvalues --   -0.51486  -0.50527  -0.40130  -0.35803
 Alpha virt. eigenvalues --    0.05340   0.09088   0.11633   0.12211   0.14151
 Alpha virt. eigenvalues --    0.17119   0.17787   0.28665   0.32520   0.32622
 Alpha virt. eigenvalues --    0.36195   0.38103   0.38578   0.40674   0.42748

 Mulliken charges:
               1
     1  C    0.055914
     2  O   -0.261516
     3  H    0.040427
     4  H    0.053234
     5  H    0.085449
     6  H    0.026493
 Sum of Mulliken charges =   0.00000

 Dipole moment (field-independent basis, Debye):
    X=             -0.8530    Y=             -1.1433    Z=              0.0651  Tot=              1.4280
 Quadrupole moment (field-independent basis, Debye-Ang):
   XX=            -12.8953   YY=            -12.7331   ZZ=            -13.5673
   XY=             -2.1187   XZ=              0.1565   YZ=              0.0191

 Normal termination of Gaussian 09 at Wed Aug 26 14:42:24 2020.
