 Gaussian 09, Revision D.01,
 Gaussian 09:  ES64L-G09RevD.01 24-Apr-2013

 --------------------
 #p B2PLYPD3/Def2QZVP
 --------------------

 --------
 methanol
 --------
 Symbolic Z-matrix:
 Charge =  0 Multiplicity = 1

                         Standard orientation:
 ---------------------------------------------------------------------
 Center     Atomic      Atomic             Coordinates (Angstroms)
 Number     Number       Type             X           Y           Z
 ---------------------------------------------------------------------
      1          6           0        0.660718   -0.012673    0.007929
      2          8           0       -0.741773    0.106156   -0.020464
      3          1           0        1.093874   -0.712899   -0.814137
      4          1           0        1.002569   -0.429316    0.943888
      5          1           0        1.075101    1.025073   -0.098814
      6          1           0       -1.201665   -0.656067    0.085201
 ---------------------------------------------------------------------

 SCF Done:  E(RB2PLYPD3) =  -115.544667221     A.U. after   10 cycles
 E2(B2PLYPD3) =    -0.1462805282D+00 E(B2PLYPD3) =    -0.11569094774901D+03

 The electronic state is 1-A.
 Alpha  occ. eigenvalues --  -19.71913 -10.66752  -1.17627  -0.79071  -0.60069
 Alpha  occ. eigenvalues --   -0.50935  -0.50175  -0.40509  -0.35159
 Alpha virt. eigenvalues --    0.05223   0.08303   0.12142   0.12444   0.15028
 Alpha virt. eigenvalues --    0.17027   0.17953   0.29187   0.33005   0.33923
 Alpha virt. eigenvalues --    0.36572   0.38698   0.38907   0.40076   0.42998

 Mulliken charges:
               1
     1  C    0.067111
     2  O   -0.431419
     3  H    0.038446
     4  H    0.050468
     5  H    0.075644
     6  H    0.199750
 Sum of Mulliken charges =   0.00000

 Dipole moment (field-independent basis, Debye):
    X=              0.6897    Y=             -1.3796    Z=              0.2852  Tot=              1.5685
 Quadrupole moment (field-independent basis, Debye-Ang):
   XX=            -12.7014   YY=            -12.4199   ZZ=            -13.9068
   XY=              2.2037   XZ=             -0.2494   YZ=             -0.1693

 Normal termination of Gaussian 09 at Wed Aug 26 12:29:40 2020.
