 Gaussian 09, Revision D.01,
 Gaussian 09:  ES64L-G09RevD.01 24-Apr-2013

 --------------------
 #p B2PLYPD3/Def2QZVP
 --------------------

 --------
 methanol
 --------
 Symbolic Z-matrix:
 Charge =  0 Multiplicity = 1

                         Standard orientation:
 ---------------------------------------------------------------------
 Center     Atomic      Atomic             Coordinates (Angstroms)
 Number     Number       Type             X           Y           Z
 ---------------------------------------------------------------------
      1          6           0       -0.647718    0.009543   -0.005258
      2          8           0        0.722257   -0.170081   -0.011784
      3          1           0       -1.008528    0.595335   -0.793898
      4          1           0       -0.960620    0.430795    0.874252
      5          1           0       -1.039791   -0.799411   -0.016700
      6          1           0        1.117188    1.076671    0.062162
 ---------------------------------------------------------------------

 SCF Done:  E(RB2PLYPD3) =  -115.449877022     A.U. after   11 cycles
 E2(B2PLYPD3) =    -0.1529688262D+00 E(B2PLYPD3) =    -0.11560284584780D+03

 The electronic state is 1-A.
 Alpha  occ. eigenvalues --  -19.74699 -10.61426  -1.13690  -0.79911  -0.56563
 Alpha  occ. eigenvalues --   -0.52872  -0.50394  -0.40200  -0.34705
 Alpha virt. eigenvalues --    0.00259   0.07796   0.12629   0.13077   0.14815
 Alpha virt. eigenvalues --    0.17692   0.18375   0.23892   0.29462   0.33100
 Alpha virt. eigenvalues --    0.35604   0.38678   0.42048   0.42509   0.44215

 Mulliken charges:
               1
     1  C    0.077193
     2  O   -0.475732
     3  H    0.035641
     4  H    0.034881
     5  H    0.080431
     6  H    0.247586
 Sum of Mulliken charges =   0.00000

 Dipole moment (field-independent basis, Debye):
    X=             -1.0069    Y=              1.6507    Z=              0.1305  Tot=              1.9379
 Quadrupole moment (field-independent basis, Debye-Ang):
   XX=            -13.3560   YY=            -11.4179   ZZ=            -13.8353
   XY=              2.4564   XZ=              0.1300   YZ=              0.0515

 Normal termination of Gaussian 09 at Wed Aug 26 21:00:23 2020.
