 Gaussian 09, Revision D.01,
 Gaussian 09:  ES64L-G09RevD.01 24-Apr-2013

 --------------------
 #p B2PLYPD3/Def2QZVP
 --------------------

 --------
 methanol
 --------
 Symbolic Z-matrix:
 Charge =  0 Multiplicity = 1

                         Standard orientation:
 ---------------------------------------------------------------------
 Center     Atomic      Atomic             Coordinates (Angstroms)
 Number     Number       Type             X           Y           Z
 ---------------------------------------------------------------------
      1          6           0        0.670739    0.019968    0.007708
      2          8           0       -0.741150   -0.145301   -0.002833
      3          1           0        1.045025    0.469020    0.871994
      4          1           0        0.997490    0.605451   -0.841229
      5          1           0        1.081494   -0.901800   -0.080941
      6          1           0       -1.219245    0.869929    0.026590
 ---------------------------------------------------------------------

 SCF Done:  E(RB2PLYPD3) =  -115.526762884     A.U. after   11 cycles
 E2(B2PLYPD3) =    -0.1498192413D+00 E(B2PLYPD3) =    -0.11567658212522D+03

 The electronic state is 1-A.
 Alpha  occ. eigenvalues --  -19.73580 -10.63890  -1.13350  -0.78886  -0.56687
 Alpha  occ. eigenvalues --   -0.51841  -0.50108  -0.40645  -0.34994
 Alpha virt. eigenvalues --    0.03526   0.07788   0.12633   0.12776   0.14888
 Alpha virt. eigenvalues --    0.17336   0.18259   0.28610   0.29855   0.33389
 Alpha virt. eigenvalues --    0.34028   0.38941   0.40606   0.41796   0.43789

 Mulliken charges:
               1
     1  C    0.081781
     2  O   -0.494887
     3  H    0.048260
     4  H    0.040788
     5  H    0.070571
     6  H    0.253486
 Sum of Mulliken charges =   0.00000

 Dipole moment (field-independent basis, Debye):
    X=              0.8555    Y=              1.5935    Z=              0.0671  Tot=              1.8099
 Quadrupole moment (field-independent basis, Debye-Ang):
   XX=            -12.7391   YY=            -12.0278   ZZ=            -13.8712
   XY=             -2.5153   XZ=             -0.0087   YZ=              0.0825

 Normal termination of Gaussian 09 at Thu Aug 27 00:12:24 2020.
