 Gaussian 09, Revision D.01,
 Gaussian 09:  ES64L-G09RevD.01 24-Apr-2013

 --------------------
 #p B2PLYPD3/Def2QZVP
 --------------------

 --------
 methanol
 --------
 Symbolic Z-matrix:
 Charge =  0 Multiplicity = 1

                         Standard orientation:
 ---------------------------------------------------------------------
 Center     Atomic      Atomic             Coordinates (Angstroms)
 Number     Number       Type             X           Y           Z
 ---------------------------------------------------------------------
      1          6           0        0.670434   -0.014007   -0.006017
      2          8           0       -0.747291    0.063309   -0.018102
      3          1           0        1.002678   -0.946697   -0.686783
      4          1           0        1.173321   -0.161546    1.029218
      5          1           0        0.994022    1.089693   -0.361871
      6          1           0       -1.214293   -0.403880    0.200353
 ---------------------------------------------------------------------

 SCF Done:  E(RB2PLYPD3) =  -115.398086831     A.U. after   11 cycles
 E2(B2PLYPD3) =    -0.1445772921D+00 E(B2PLYPD3) =    -0.11554266412282D+03

 The electronic state is 1-A.
 Alpha  occ. eigenvalues --  -19.69385 -10.69778  -1.23311  -0.82145  -0.61591
 Alpha  occ. eigenvalues --   -0.51151  -0.49020  -0.39275  -0.35674
 Alpha virt. eigenvalues --    0.05181   0.08967   0.11428   0.11833   0.14638
 Alpha virt. eigenvalues --    0.16461   0.17886   0.28943   0.31474   0.33431
 Alpha virt. eigenvalues --    0.35914   0.36879   0.38188   0.39775   0.42340

 Mulliken charges:
               1
     1  C    0.049756
     2  O   -0.239892
     3  H    0.050845
     4  H    0.051944
     5  H    0.084194
     6  H    0.003154
 Sum of Mulliken charges =   0.00000

 Dipole moment (field-independent basis, Debye):
    X=              0.6932    Y=             -0.9925    Z=              0.5186  Tot=              1.3171
 Quadrupole moment (field-independent basis, Debye-Ang):
   XX=            -12.5856   YY=            -12.7140   ZZ=            -13.7500
   XY=              1.6659   XZ=             -0.5175   YZ=             -0.2195

 Normal termination of Gaussian 09 at Wed Aug 26 20:12:02 2020.
