 Gaussian 09, Revision D.01,
 Gaussian 09:  ES64L-G09RevD.01 24-Apr-2013

 --------------------
 #p B2PLYPD3/Def2QZVP
 --------------------

 --------
 methanol
 --------
 Symbolic Z-matrix:
 Charge =  0 Multiplicity = 1

                         Standard orientation:
 ---------------------------------------------------------------------
 Center     Atomic      Atomic             Coordinates (Angstroms)
 Number     Number       Type             X           Y           Z
 ---------------------------------------------------------------------
      1          6           0       -0.661363   -0.020765    0.009634
      2          8           0        0.756369    0.103506   -0.010222
      3          1           0       -1.016664   -0.500105    0.921764
      4          1           0       -1.049270   -0.608515   -0.895807
      5          1           0       -1.111111    1.042451   -0.045085
      6          1           0        1.094272   -0.637287    0.043105
 ---------------------------------------------------------------------

 SCF Done:  E(RB2PLYPD3) =  -115.523000218     A.U. after   10 cycles
 E2(B2PLYPD3) =    -0.1453646980D+00 E(B2PLYPD3) =    -0.11566836491622D+03

 The electronic state is 1-A.
 Alpha  occ. eigenvalues --  -19.71335 -10.67229  -1.20005  -0.79429  -0.60661
 Alpha  occ. eigenvalues --   -0.51614  -0.49703  -0.41194  -0.35870
 Alpha virt. eigenvalues --    0.05340   0.08723   0.12043   0.12148   0.14725
 Alpha virt. eigenvalues --    0.17290   0.17926   0.28923   0.32915   0.33192
 Alpha virt. eigenvalues --    0.36879   0.38397   0.39490   0.40481   0.42957

 Mulliken charges:
               1
     1  C    0.062166
     2  O   -0.368416
     3  H    0.054878
     4  H    0.046112
     5  H    0.069357
     6  H    0.135904
 Sum of Mulliken charges =   0.00000

 Dipole moment (field-independent basis, Debye):
    X=             -0.9251    Y=             -1.3888    Z=              0.1555  Tot=              1.6759
 Quadrupole moment (field-independent basis, Debye-Ang):
   XX=            -13.1221   YY=            -12.4218   ZZ=            -13.7053
   XY=             -2.0547   XZ=              0.0989   YZ=             -0.1103

 Normal termination of Gaussian 09 at Thu Aug 27 00:05:14 2020.
