 Gaussian 09, Revision D.01,
 Gaussian 09:  ES64L-G09RevD.01 24-Apr-2013

 --------------------
 #p B2PLYPD3/Def2QZVP
 --------------------

 --------
 methanol
 --------
 Symbolic Z-matrix:
 Charge =  0 Multiplicity = 1

                         Standard orientation:
 ---------------------------------------------------------------------
 Center     Atomic      Atomic             Coordinates (Angstroms)
 Number     Number       Type             X           Y           Z
 ---------------------------------------------------------------------
      1          6           0        0.656073   -0.025034    0.010263
      2          8           0       -0.744720    0.103535   -0.002009
      3          1           0        1.010454   -0.603912   -0.911463
      4          1           0        1.047398   -0.496348    0.925194
      5          1           0        1.097763    1.041356   -0.075096
      6          1           0       -1.134290   -0.619170    0.015856
 ---------------------------------------------------------------------

 SCF Done:  E(RB2PLYPD3) =  -115.525121232     A.U. after   10 cycles
 E2(B2PLYPD3) =    -0.1452156923D+00 E(B2PLYPD3) =    -0.11567033692405D+03

 The electronic state is 1-A.
 Alpha  occ. eigenvalues --  -19.71271 -10.67221  -1.20035  -0.79597  -0.60793
 Alpha  occ. eigenvalues --   -0.51824  -0.49924  -0.40477  -0.35728
 Alpha virt. eigenvalues --    0.05362   0.08721   0.12111   0.12174   0.14718
 Alpha virt. eigenvalues --    0.17144   0.18042   0.28923   0.33091   0.33751
 Alpha virt. eigenvalues --    0.36793   0.38621   0.39651   0.40497   0.42726

 Mulliken charges:
               1
     1  C    0.058916
     2  O   -0.369488
     3  H    0.044588
     4  H    0.055370
     5  H    0.068596
     6  H    0.142018
 Sum of Mulliken charges =   0.00000

 Dipole moment (field-independent basis, Debye):
    X=              0.7849    Y=             -1.3701    Z=              0.0706  Tot=              1.5806
 Quadrupole moment (field-independent basis, Debye-Ang):
   XX=            -12.9602   YY=            -12.5414   ZZ=            -13.6883
   XY=              2.0960   XZ=              0.0216   YZ=             -0.0816

 Normal termination of Gaussian 09 at Thu Aug 27 00:07:40 2020.
