 Gaussian 09, Revision D.01,
 Gaussian 09:  ES64L-G09RevD.01 24-Apr-2013

 --------------------
 #p B2PLYPD3/Def2QZVP
 --------------------

 --------
 methanol
 --------
 Symbolic Z-matrix:
 Charge =  0 Multiplicity = 1

                         Standard orientation:
 ---------------------------------------------------------------------
 Center     Atomic      Atomic             Coordinates (Angstroms)
 Number     Number       Type             X           Y           Z
 ---------------------------------------------------------------------
      1          6           0        0.644632    0.059045   -0.021906
      2          8           0       -0.738898   -0.212343    0.013027
      3          1           0        0.979079    0.546456    0.790558
      4          1           0        1.058107    0.444804   -0.677404
      5          1           0        1.237296   -0.832288   -0.000534
      6          1           0       -1.231088    1.185504   -0.085405
 ---------------------------------------------------------------------

 SCF Done:  E(RB2PLYPD3) =  -115.382155163     A.U. after   11 cycles
 E2(B2PLYPD3) =    -0.1576852446D+00 E(B2PLYPD3) =    -0.11553984040743D+03

 The electronic state is 1-A.
 Alpha  occ. eigenvalues --  -19.76366 -10.61453  -1.12104  -0.81966  -0.54532
 Alpha  occ. eigenvalues --   -0.52795  -0.49403  -0.38300  -0.35787
 Alpha virt. eigenvalues --   -0.03367   0.07114   0.12684   0.13081   0.14557
 Alpha virt. eigenvalues --    0.18324   0.18812   0.21104   0.29523   0.33349
 Alpha virt. eigenvalues --    0.35206   0.37309   0.39667   0.41729   0.46136

 Mulliken charges:
               1
     1  C    0.069056
     2  O   -0.457817
     3  H    0.044682
     4  H    0.079584
     5  H    0.036989
     6  H    0.227505
 Sum of Mulliken charges =   0.00000

 Dipole moment (field-independent basis, Debye):
    X=              1.0735    Y=              1.8675    Z=             -0.2166  Tot=              2.1649
 Quadrupole moment (field-independent basis, Debye-Ang):
   XX=            -12.8400   YY=            -11.5260   ZZ=            -14.0886
   XY=             -2.4167   XZ=             -0.0285   YZ=             -0.1486

 Normal termination of Gaussian 09 at Wed Aug 26 19:43:30 2020.
