 Gaussian 09, Revision D.01,
 Gaussian 09:  ES64L-G09RevD.01 24-Apr-2013

 --------------------
 #p B2PLYPD3/Def2QZVP
 --------------------

 --------
 methanol
 --------
 Symbolic Z-matrix:
 Charge =  0 Multiplicity = 1

                         Standard orientation:
 ---------------------------------------------------------------------
 Center     Atomic      Atomic             Coordinates (Angstroms)
 Number     Number       Type             X           Y           Z
 ---------------------------------------------------------------------
      1          6           0       -0.661478   -0.020582   -0.001317
      2          8           0        0.752283    0.104664   -0.011162
      3          1           0       -0.991031   -0.495883    0.970794
      4          1           0       -1.053959   -0.599764   -0.900339
      5          1           0       -1.126840    1.006424   -0.020051
      6          1           0        1.122436   -0.624598    0.046794
 ---------------------------------------------------------------------

 SCF Done:  E(RB2PLYPD3) =  -115.525362519     A.U. after   10 cycles
 E2(B2PLYPD3) =    -0.1453361686D+00 E(B2PLYPD3) =    -0.11567069868772D+03

 The electronic state is 1-A.
 Alpha  occ. eigenvalues --  -19.71258 -10.67302  -1.19780  -0.79527  -0.60318
 Alpha  occ. eigenvalues --   -0.51615  -0.50227  -0.40683  -0.35756
 Alpha virt. eigenvalues --    0.05375   0.08678   0.12005   0.12341   0.14465
 Alpha virt. eigenvalues --    0.17321   0.18045   0.28866   0.32970   0.33210
 Alpha virt. eigenvalues --    0.36759   0.39126   0.39549   0.39740   0.43250

 Mulliken charges:
               1
     1  C    0.061005
     2  O   -0.373948
     3  H    0.048280
     4  H    0.050305
     5  H    0.073177
     6  H    0.141180
 Sum of Mulliken charges =   0.00000

 Dipole moment (field-independent basis, Debye):
    X=             -0.8731    Y=             -1.3370    Z=              0.1219  Tot=              1.6014
 Quadrupole moment (field-independent basis, Debye-Ang):
   XX=            -12.9926   YY=            -12.5620   ZZ=            -13.6485
   XY=             -2.1709   XZ=              0.1967   YZ=             -0.0385

 Normal termination of Gaussian 09 at Wed Aug 26 10:06:44 2020.
