 Gaussian 09, Revision D.01,
 Gaussian 09:  ES64L-G09RevD.01 24-Apr-2013

 --------------------
 #p B2PLYPD3/Def2QZVP
 --------------------

 --------
 methanol
 --------
 Symbolic Z-matrix:
 Charge =  0 Multiplicity = 1

                         Standard orientation:
 ---------------------------------------------------------------------
 Center     Atomic      Atomic             Coordinates (Angstroms)
 Number     Number       Type             X           Y           Z
 ---------------------------------------------------------------------
      1          6           0        0.634536    0.036055   -0.033566
      2          8           0       -0.720942   -0.186576    0.021161
      3          1           0        1.012821    0.655940    0.780740
      4          1           0        0.998684    0.416789   -0.749846
      5          1           0        1.190742   -0.839054    0.086101
      6          1           0       -1.241929    1.042608   -0.084885
 ---------------------------------------------------------------------

 SCF Done:  E(RB2PLYPD3) =  -115.438167223     A.U. after   11 cycles
 E2(B2PLYPD3) =    -0.1536259377D+00 E(B2PLYPD3) =    -0.11559179316112D+03

 The electronic state is 1-A.
 Alpha  occ. eigenvalues --  -19.75293 -10.62025  -1.13734  -0.80230  -0.56082
 Alpha  occ. eigenvalues --   -0.52247  -0.50443  -0.39300  -0.34867
 Alpha virt. eigenvalues --   -0.00484   0.07390   0.12866   0.13061   0.14952
 Alpha virt. eigenvalues --    0.18193   0.18546   0.22884   0.29672   0.33355
 Alpha virt. eigenvalues --    0.35687   0.38909   0.39370   0.41884   0.45793

 Mulliken charges:
               1
     1  C    0.077411
     2  O   -0.470272
     3  H    0.028964
     4  H    0.061850
     5  H    0.050656
     6  H    0.251391
 Sum of Mulliken charges =   0.00000

 Dipole moment (field-independent basis, Debye):
    X=              0.7947    Y=              1.7561    Z=             -0.3061  Tot=              1.9517
 Quadrupole moment (field-independent basis, Debye-Ang):
   XX=            -12.6756   YY=            -11.7687   ZZ=            -14.0614
   XY=             -2.6024   XZ=              0.0221   YZ=             -0.2543

 Normal termination of Gaussian 09 at Wed Aug 26 23:54:51 2020.
