 Gaussian 09, Revision D.01,
 Gaussian 09:  ES64L-G09RevD.01 24-Apr-2013

 --------------------
 #p B2PLYPD3/Def2QZVP
 --------------------

 --------
 methanol
 --------
 Symbolic Z-matrix:
 Charge =  0 Multiplicity = 1

                         Standard orientation:
 ---------------------------------------------------------------------
 Center     Atomic      Atomic             Coordinates (Angstroms)
 Number     Number       Type             X           Y           Z
 ---------------------------------------------------------------------
      1          6           0        0.668808    0.024045    0.000646
      2          8           0       -0.740646   -0.146481    0.003258
      3          1           0        1.011872    0.519927    0.872602
      4          1           0        1.061992    0.540473   -0.826664
      5          1           0        1.056753   -0.925025   -0.035507
      6          1           0       -1.218295    0.892207   -0.040372
 ---------------------------------------------------------------------

 SCF Done:  E(RB2PLYPD3) =  -115.523188610     A.U. after   11 cycles
 E2(B2PLYPD3) =    -0.1503182139D+00 E(B2PLYPD3) =    -0.11567350682367D+03

 The electronic state is 1-A.
 Alpha  occ. eigenvalues --  -19.73821 -10.63836  -1.13250  -0.78723  -0.56666
 Alpha  occ. eigenvalues --   -0.51966  -0.49524  -0.40682  -0.35063
 Alpha virt. eigenvalues --    0.03264   0.07737   0.12643   0.12716   0.15012
 Alpha virt. eigenvalues --    0.17185   0.18333   0.28070   0.29694   0.33428
 Alpha virt. eigenvalues --    0.34379   0.39004   0.39849   0.41953   0.43992

 Mulliken charges:
               1
     1  C    0.079122
     2  O   -0.492344
     3  H    0.047466
     4  H    0.044050
     5  H    0.068962
     6  H    0.252744
 Sum of Mulliken charges =   0.00000

 Dipole moment (field-independent basis, Debye):
    X=              0.8574    Y=              1.6192    Z=             -0.0854  Tot=              1.8342
 Quadrupole moment (field-independent basis, Debye-Ang):
   XX=            -12.7893   YY=            -11.9636   ZZ=            -13.9082
   XY=             -2.4472   XZ=              0.0234   YZ=             -0.0356

 Normal termination of Gaussian 09 at Thu Aug 27 00:03:56 2020.
