 Gaussian 09, Revision D.01,
 Gaussian 09:  ES64L-G09RevD.01 24-Apr-2013

 --------------------
 #p B2PLYPD3/Def2QZVP
 --------------------

 --------
 methanol
 --------
 Symbolic Z-matrix:
 Charge =  0 Multiplicity = 1

                         Standard orientation:
 ---------------------------------------------------------------------
 Center     Atomic      Atomic             Coordinates (Angstroms)
 Number     Number       Type             X           Y           Z
 ---------------------------------------------------------------------
      1          6           0       -0.647352   -0.038008    0.001473
      2          8           0        0.740932    0.110997   -0.023265
      3          1           0       -0.989516   -0.346425    0.988971
      4          1           0       -1.038529   -0.722568   -0.796490
      5          1           0       -1.164683    1.023709   -0.135051
      6          1           0        1.149387   -0.614640    0.119852
 ---------------------------------------------------------------------

 SCF Done:  E(RB2PLYPD3) =  -115.531436187     A.U. after   10 cycles
 E2(B2PLYPD3) =    -0.1455003300D+00 E(B2PLYPD3) =    -0.11567693651666D+03

 The electronic state is 1-A.
 Alpha  occ. eigenvalues --  -19.71628 -10.67034  -1.19698  -0.79321  -0.60803
 Alpha  occ. eigenvalues --   -0.52412  -0.49753  -0.39813  -0.35827
 Alpha virt. eigenvalues --    0.05324   0.08537   0.12079   0.12338   0.14620
 Alpha virt. eigenvalues --    0.17359   0.18244   0.28858   0.33217   0.34153
 Alpha virt. eigenvalues --    0.35784   0.38319   0.39903   0.40882   0.43386

 Mulliken charges:
               1
     1  C    0.059056
     2  O   -0.386502
     3  H    0.052843
     4  H    0.051476
     5  H    0.059214
     6  H    0.163914
 Sum of Mulliken charges =   0.00000

 Dipole moment (field-independent basis, Debye):
    X=             -0.7229    Y=             -1.4046    Z=              0.3161  Tot=              1.6110
 Quadrupole moment (field-independent basis, Debye-Ang):
   XX=            -12.8424   YY=            -12.6727   ZZ=            -13.6823
   XY=             -2.1013   XZ=              0.3849   YZ=             -0.0878

 Normal termination of Gaussian 09 at Wed Aug 26 11:06:27 2020.
