 Gaussian 09, Revision D.01,
 Gaussian 09:  ES64L-G09RevD.01 24-Apr-2013

 --------------------
 #p B2PLYPD3/Def2QZVP
 --------------------

 --------
 methanol
 --------
 Symbolic Z-matrix:
 Charge =  0 Multiplicity = 1

                         Standard orientation:
 ---------------------------------------------------------------------
 Center     Atomic      Atomic             Coordinates (Angstroms)
 Number     Number       Type             X           Y           Z
 ---------------------------------------------------------------------
      1          6           0        0.685406   -0.011737   -0.015391
      2          8           0       -0.752031   -0.026480    0.083277
      3          1           0        0.921580    1.216541   -0.203659
      4          1           0        0.872294   -0.753287   -0.846816
      5          1           0        1.174031   -0.343004    0.892631
      6          1           0       -1.064092    0.162015   -0.416027
 ---------------------------------------------------------------------

 SCF Done:  E(RB2PLYPD3) =  -115.253958027     A.U. after   11 cycles
 E2(B2PLYPD3) =    -0.1434615227D+00 E(B2PLYPD3) =    -0.11539741954922D+03

 The electronic state is 1-A.
 Alpha  occ. eigenvalues --  -19.68158 -10.68936  -1.27138  -0.82673  -0.61103
 Alpha  occ. eigenvalues --   -0.52503  -0.51372  -0.40147  -0.35806
 Alpha virt. eigenvalues --    0.05154   0.09480   0.10892   0.12521   0.13221
 Alpha virt. eigenvalues --    0.17162   0.17459   0.27906   0.30495   0.32208
 Alpha virt. eigenvalues --    0.35276   0.37946   0.39582   0.41466   0.44535

 Mulliken charges:
               1
     1  C    0.059398
     2  O   -0.199988
     3  H    0.040445
     4  H    0.060064
     5  H    0.096304
     6  H   -0.056223
 Sum of Mulliken charges =   0.00000

 Dipole moment (field-independent basis, Debye):
    X=              1.0914    Y=              0.2435    Z=             -1.0023  Tot=              1.5017
 Quadrupole moment (field-independent basis, Debye-Ang):
   XX=            -13.2764   YY=            -13.0985   ZZ=            -12.7966
   XY=             -0.9006   XZ=              2.0690   YZ=             -0.1445

 Normal termination of Gaussian 09 at Wed Aug 26 22:34:37 2020.
