 Gaussian 09, Revision D.01,
 Gaussian 09:  ES64L-G09RevD.01 24-Apr-2013

 --------------------
 #p B2PLYPD3/Def2QZVP
 --------------------

 --------
 methanol
 --------
 Symbolic Z-matrix:
 Charge =  0 Multiplicity = 1

                         Standard orientation:
 ---------------------------------------------------------------------
 Center     Atomic      Atomic             Coordinates (Angstroms)
 Number     Number       Type             X           Y           Z
 ---------------------------------------------------------------------
      1          6           0        0.683484    0.028278   -0.008597
      2          8           0       -0.750263   -0.138222    0.001997
      3          1           0        0.989654    0.504601    0.918470
      4          1           0        1.064249    0.518666   -0.842225
      5          1           0        1.053311   -0.930397   -0.006374
      6          1           0       -1.206014    0.843238   -0.034263
 ---------------------------------------------------------------------

 SCF Done:  E(RB2PLYPD3) =  -115.534500999     A.U. after   11 cycles
 E2(B2PLYPD3) =    -0.1494870957D+00 E(B2PLYPD3) =    -0.11568398809460D+03

 The electronic state is 1-A.
 Alpha  occ. eigenvalues --  -19.73252 -10.64277  -1.13131  -0.79008  -0.56699
 Alpha  occ. eigenvalues --   -0.52158  -0.49345  -0.40851  -0.35254
 Alpha virt. eigenvalues --    0.04098   0.07843   0.12422   0.12719   0.14719
 Alpha virt. eigenvalues --    0.17076   0.18426   0.28909   0.31021   0.32794
 Alpha virt. eigenvalues --    0.33910   0.38926   0.40084   0.41787   0.44050

 Mulliken charges:
               1
     1  C    0.076443
     2  O   -0.497211
     3  H    0.050534
     4  H    0.053016
     5  H    0.070259
     6  H    0.246959
 Sum of Mulliken charges =   0.00000

 Dipole moment (field-independent basis, Debye):
    X=              0.9396    Y=              1.5652    Z=             -0.0942  Tot=              1.8280
 Quadrupole moment (field-independent basis, Debye-Ang):
   XX=            -12.8266   YY=            -12.1142   ZZ=            -13.7356
   XY=             -2.4250   XZ=             -0.0417   YZ=             -0.0880

 Normal termination of Gaussian 09 at Wed Aug 26 13:10:01 2020.
