 Gaussian 09, Revision D.01,
 Gaussian 09:  ES64L-G09RevD.01 24-Apr-2013

 --------------------
 #p B2PLYPD3/Def2QZVP
 --------------------

 --------
 methanol
 --------
 Symbolic Z-matrix:
 Charge =  0 Multiplicity = 1

                         Standard orientation:
 ---------------------------------------------------------------------
 Center     Atomic      Atomic             Coordinates (Angstroms)
 Number     Number       Type             X           Y           Z
 ---------------------------------------------------------------------
      1          6           0       -0.671739    0.018264   -0.008947
      2          8           0        0.745099   -0.145222    0.002088
      3          1           0       -1.042056    0.492422   -0.856388
      4          1           0       -0.984529    0.567646    0.869601
      5          1           0       -1.075649   -0.898978    0.050105
      6          1           0        1.171870    0.891107   -0.026341
 ---------------------------------------------------------------------

 SCF Done:  E(RB2PLYPD3) =  -115.525500419     A.U. after   11 cycles
 E2(B2PLYPD3) =    -0.1499208273D+00 E(B2PLYPD3) =    -0.11567542124653D+03

 The electronic state is 1-A.
 Alpha  occ. eigenvalues --  -19.73627 -10.63772  -1.13348  -0.78997  -0.56655
 Alpha  occ. eigenvalues --   -0.52026  -0.49939  -0.40966  -0.35062
 Alpha virt. eigenvalues --    0.03536   0.07854   0.12533   0.12782   0.14794
 Alpha virt. eigenvalues --    0.17410   0.18248   0.28561   0.29912   0.33228
 Alpha virt. eigenvalues --    0.33954   0.38941   0.40812   0.41800   0.43819

 Mulliken charges:
               1
     1  C    0.082646
     2  O   -0.492824
     3  H    0.047379
     4  H    0.041768
     5  H    0.069563
     6  H    0.251468
 Sum of Mulliken charges =   0.00000

 Dipole moment (field-independent basis, Debye):
    X=             -0.9449    Y=              1.5989    Z=             -0.0712  Tot=              1.8586
 Quadrupole moment (field-independent basis, Debye-Ang):
   XX=            -12.9787   YY=            -11.9379   ZZ=            -13.8233
   XY=              2.4587   XZ=              0.0210   YZ=             -0.0868

 Normal termination of Gaussian 09 at Thu Aug 27 00:13:09 2020.
