 Gaussian 09, Revision D.01,
 Gaussian 09:  ES64L-G09RevD.01 24-Apr-2013

 --------------------
 #p B2PLYPD3/Def2QZVP
 --------------------

 --------
 methanol
 --------
 Symbolic Z-matrix:
 Charge =  0 Multiplicity = 1

                         Standard orientation:
 ---------------------------------------------------------------------
 Center     Atomic      Atomic             Coordinates (Angstroms)
 Number     Number       Type             X           Y           Z
 ---------------------------------------------------------------------
      1          6           0        0.682749    0.024884   -0.014889
      2          8           0       -0.739682   -0.184252   -0.002105
      3          1           0        1.054425    0.384439    0.805100
      4          1           0        0.780840    0.709603   -0.720921
      5          1           0        1.126097   -0.833278   -0.093700
      6          1           0       -1.140406    1.063953    0.115698
 ---------------------------------------------------------------------

 SCF Done:  E(RB2PLYPD3) =  -115.449639964     A.U. after   11 cycles
 E2(B2PLYPD3) =    -0.1539312674D+00 E(B2PLYPD3) =    -0.11560357123141D+03

 The electronic state is 1-A.
 Alpha  occ. eigenvalues --  -19.74488 -10.61486  -1.11590  -0.80329  -0.56790
 Alpha  occ. eigenvalues --   -0.53478  -0.48147  -0.40434  -0.34765
 Alpha virt. eigenvalues --    0.00310   0.07726   0.12449   0.12891   0.14530
 Alpha virt. eigenvalues --    0.17321   0.18264   0.23829   0.29628   0.31904
 Alpha virt. eigenvalues --    0.33998   0.39543   0.40070   0.43881   0.44613

 Mulliken charges:
               1
     1  C    0.111995
     2  O   -0.495334
     3  H    0.035732
     4  H    0.045775
     5  H    0.063071
     6  H    0.238762
 Sum of Mulliken charges =   0.00000

 Dipole moment (field-independent basis, Debye):
    X=              1.1941    Y=              1.7418    Z=              0.1954  Tot=              2.1208
 Quadrupole moment (field-independent basis, Debye-Ang):
   XX=            -13.2735   YY=            -11.3203   ZZ=            -13.9363
   XY=             -2.5086   XZ=              0.0734   YZ=              0.0802

 Normal termination of Gaussian 09 at Wed Aug 26 23:44:37 2020.
