 Gaussian 09, Revision D.01,
 Gaussian 09:  ES64L-G09RevD.01 24-Apr-2013

 --------------------
 #p B2PLYPD3/Def2QZVP
 --------------------

 --------
 methanol
 --------
 Symbolic Z-matrix:
 Charge =  0 Multiplicity = 1

                         Standard orientation:
 ---------------------------------------------------------------------
 Center     Atomic      Atomic             Coordinates (Angstroms)
 Number     Number       Type             X           Y           Z
 ---------------------------------------------------------------------
      1          6           0       -0.665390    0.032447    0.022155
      2          8           0        0.741143   -0.145015   -0.020328
      3          1           0       -1.007853    0.674702   -0.794548
      4          1           0       -0.961132    0.388769    0.844300
      5          1           0       -1.104924   -0.960954   -0.108155
      6          1           0        1.137103    0.862922    0.088094
 ---------------------------------------------------------------------

 SCF Done:  E(RB2PLYPD3) =  -115.521087858     A.U. after   11 cycles
 E2(B2PLYPD3) =    -0.1492611403D+00 E(B2PLYPD3) =    -0.11567034899862D+03

 The electronic state is 1-A.
 Alpha  occ. eigenvalues --  -19.73434 -10.63756  -1.14166  -0.79209  -0.57597
 Alpha  occ. eigenvalues --   -0.52991  -0.49058  -0.40918  -0.35332
 Alpha virt. eigenvalues --    0.03889   0.07986   0.12378   0.12644   0.14974
 Alpha virt. eigenvalues --    0.17471   0.18115   0.28968   0.30387   0.33354
 Alpha virt. eigenvalues --    0.34219   0.38492   0.39458   0.42276   0.45002

 Mulliken charges:
               1
     1  C    0.082453
     2  O   -0.484847
     3  H    0.040460
     4  H    0.054728
     5  H    0.061290
     6  H    0.245916
 Sum of Mulliken charges =   0.00000

 Dipole moment (field-independent basis, Debye):
    X=             -0.9440    Y=              1.6498    Z=              0.2884  Tot=              1.9225
 Quadrupole moment (field-independent basis, Debye-Ang):
   XX=            -13.1366   YY=            -11.9333   ZZ=            -13.7743
   XY=              2.2932   XZ=              0.1279   YZ=              0.2015

 Normal termination of Gaussian 09 at Wed Aug 26 13:07:49 2020.
