 Gaussian 09, Revision D.01,
 Gaussian 09:  ES64L-G09RevD.01 24-Apr-2013

 --------------------
 #p B2PLYPD3/Def2QZVP
 --------------------

 --------
 methanol
 --------
 Symbolic Z-matrix:
 Charge =  0 Multiplicity = 1

                         Standard orientation:
 ---------------------------------------------------------------------
 Center     Atomic      Atomic             Coordinates (Angstroms)
 Number     Number       Type             X           Y           Z
 ---------------------------------------------------------------------
      1          6           0        0.681471    0.022915   -0.012258
      2          8           0       -0.744905   -0.155817    0.010633
      3          1           0        1.048523    0.532806    0.867233
      4          1           0        1.019183    0.505173   -0.822636
      5          1           0        1.045481   -0.877284   -0.011864
      6          1           0       -1.242777    0.948348   -0.044247
 ---------------------------------------------------------------------

 SCF Done:  E(RB2PLYPD3) =  -115.496269539     A.U. after   11 cycles
 E2(B2PLYPD3) =    -0.1517427368D+00 E(B2PLYPD3) =    -0.11564801227567D+03

 The electronic state is 1-A.
 Alpha  occ. eigenvalues --  -19.74126 -10.62965  -1.11980  -0.79562  -0.56063
 Alpha  occ. eigenvalues --   -0.51916  -0.49424  -0.40672  -0.35064
 Alpha virt. eigenvalues --    0.02315   0.07636   0.12687   0.12833   0.14854
 Alpha virt. eigenvalues --    0.17157   0.18405   0.26287   0.29451   0.33427
 Alpha virt. eigenvalues --    0.33725   0.38749   0.40611   0.41725   0.44362

 Mulliken charges:
               1
     1  C    0.086724
     2  O   -0.503313
     3  H    0.045207
     4  H    0.047590
     5  H    0.071697
     6  H    0.252095
 Sum of Mulliken charges =   0.00000

 Dipole moment (field-independent basis, Debye):
    X=              0.9520    Y=              1.6278    Z=             -0.1523  Tot=              1.8919
 Quadrupole moment (field-independent basis, Debye-Ang):
   XX=            -12.7298   YY=            -11.8411   ZZ=            -13.8637
   XY=             -2.5336   XZ=              0.0420   YZ=             -0.1084

 Normal termination of Gaussian 09 at Wed Aug 26 15:40:23 2020.
