 Gaussian 09, Revision D.01,
 Gaussian 09:  ES64L-G09RevD.01 24-Apr-2013

 --------------------
 #p B2PLYPD3/Def2QZVP
 --------------------

 --------
 methanol
 --------
 Symbolic Z-matrix:
 Charge =  0 Multiplicity = 1

                         Standard orientation:
 ---------------------------------------------------------------------
 Center     Atomic      Atomic             Coordinates (Angstroms)
 Number     Number       Type             X           Y           Z
 ---------------------------------------------------------------------
      1          6           0       -0.660771   -0.022474   -0.007863
      2          8           0        0.741269    0.101682   -0.002141
      3          1           0       -1.032037   -0.493521    0.954089
      4          1           0       -0.965163   -0.634080   -0.881036
      5          1           0       -1.097663    1.041972   -0.056446
      6          1           0        1.129334   -0.592985    0.047704
 ---------------------------------------------------------------------

 SCF Done:  E(RB2PLYPD3) =  -115.513972085     A.U. after   10 cycles
 E2(B2PLYPD3) =    -0.1447350958D+00 E(B2PLYPD3) =    -0.11565870718066D+03

 The electronic state is 1-A.
 Alpha  occ. eigenvalues --  -19.70720 -10.67195  -1.20607  -0.80033  -0.60863
 Alpha  occ. eigenvalues --   -0.52078  -0.50048  -0.40562  -0.35626
 Alpha virt. eigenvalues --    0.05395   0.08913   0.12104   0.12144   0.14658
 Alpha virt. eigenvalues --    0.17083   0.17787   0.28959   0.32906   0.33597
 Alpha virt. eigenvalues --    0.37169   0.38858   0.39769   0.40370   0.42982

 Mulliken charges:
               1
     1  C    0.062928
     2  O   -0.351035
     3  H    0.046083
     4  H    0.051783
     5  H    0.073046
     6  H    0.117194
 Sum of Mulliken charges =   0.00000

 Dipole moment (field-independent basis, Debye):
    X=             -0.8072    Y=             -1.3421    Z=              0.0745  Tot=              1.5679
 Quadrupole moment (field-independent basis, Debye-Ang):
   XX=            -13.0126   YY=            -12.4754   ZZ=            -13.6496
   XY=             -2.0961   XZ=              0.1046   YZ=             -0.0075

 Normal termination of Gaussian 09 at Wed Aug 26 23:58:40 2020.
