 Gaussian 09, Revision D.01,
 Gaussian 09:  ES64L-G09RevD.01 24-Apr-2013

 --------------------
 #p B2PLYPD3/Def2QZVP
 --------------------

 --------
 methanol
 --------
 Symbolic Z-matrix:
 Charge =  0 Multiplicity = 1

                         Standard orientation:
 ---------------------------------------------------------------------
 Center     Atomic      Atomic             Coordinates (Angstroms)
 Number     Number       Type             X           Y           Z
 ---------------------------------------------------------------------
      1          6           0        0.674841    0.024256    0.012283
      2          8           0       -0.769793   -0.120957   -0.032494
      3          1           0        1.024378    0.293480    1.017474
      4          1           0        1.129704    0.724414   -0.810086
      5          1           0        1.188914   -0.909613   -0.166364
      6          1           0       -1.233698    0.713839    0.145232
 ---------------------------------------------------------------------

 SCF Done:  E(RB2PLYPD3) =  -115.543521801     A.U. after   10 cycles
 E2(B2PLYPD3) =    -0.1483490914D+00 E(B2PLYPD3) =    -0.11569187089280D+03

 The electronic state is 1-A.
 Alpha  occ. eigenvalues --  -19.72960 -10.66855  -1.14826  -0.78577  -0.57666
 Alpha  occ. eigenvalues --   -0.50873  -0.49712  -0.39996  -0.35663
 Alpha virt. eigenvalues --    0.04988   0.07547   0.12020   0.12796   0.14232
 Alpha virt. eigenvalues --    0.17556   0.18692   0.28745   0.31856   0.33267
 Alpha virt. eigenvalues --    0.33991   0.37765   0.39832   0.40407   0.43773

 Mulliken charges:
               1
     1  C    0.063803
     2  O   -0.472559
     3  H    0.057388
     4  H    0.046868
     5  H    0.071508
     6  H    0.232991
 Sum of Mulliken charges =   0.00000

 Dipole moment (field-independent basis, Debye):
    X=              0.8571    Y=              1.3743    Z=              0.3711  Tot=              1.6616
 Quadrupole moment (field-independent basis, Debye-Ang):
   XX=            -12.4334   YY=            -12.7654   ZZ=            -13.7649
   XY=             -2.4774   XZ=             -0.5116   YZ=              0.1969

 Normal termination of Gaussian 09 at Wed Aug 26 23:28:13 2020.
