 Gaussian 09, Revision D.01,
 Gaussian 09:  ES64L-G09RevD.01 24-Apr-2013

 --------------------
 #p B2PLYPD3/Def2QZVP
 --------------------

 --------
 methanol
 --------
 Symbolic Z-matrix:
 Charge =  0 Multiplicity = 1

                         Standard orientation:
 ---------------------------------------------------------------------
 Center     Atomic      Atomic             Coordinates (Angstroms)
 Number     Number       Type             X           Y           Z
 ---------------------------------------------------------------------
      1          6           0        0.707828    0.032318   -0.013673
      2          8           0       -0.737601   -0.204235   -0.002001
      3          1           0        1.113256    0.318420    0.868332
      4          1           0        0.882028    0.699529   -0.709399
      5          1           0        1.043459   -0.712183   -0.156085
      6          1           0       -1.384901    1.134204    0.095196
 ---------------------------------------------------------------------

 SCF Done:  E(RB2PLYPD3) =  -115.359469482     A.U. after   12 cycles
 E2(B2PLYPD3) =    -0.1578760800D+00 E(B2PLYPD3) =    -0.11551734556227D+03

 The electronic state is 1-A.
 Alpha  occ. eigenvalues --  -19.75208 -10.60578  -1.09916  -0.82140  -0.56735
 Alpha  occ. eigenvalues --   -0.52735  -0.47967  -0.38931  -0.35101
 Alpha virt. eigenvalues --   -0.02841   0.07423   0.12731   0.13048   0.14309
 Alpha virt. eigenvalues --    0.17166   0.18434   0.21491   0.29124   0.31956
 Alpha virt. eigenvalues --    0.33537   0.38500   0.41235   0.42690   0.45171

 Mulliken charges:
               1
     1  C    0.018822
     2  O   -0.499434
     3  H    0.050568
     4  H    0.051894
     5  H    0.153468
     6  H    0.224681
 Sum of Mulliken charges =   0.00000

 Dipole moment (field-independent basis, Debye):
    X=              1.1144    Y=              1.6682    Z=              0.0676  Tot=              2.0073
 Quadrupole moment (field-independent basis, Debye-Ang):
   XX=            -12.3714   YY=            -11.4890   ZZ=            -13.8804
   XY=             -2.8239   XZ=             -0.0739   YZ=              0.0508

 Normal termination of Gaussian 09 at Wed Aug 26 23:13:02 2020.
