 Gaussian 09, Revision D.01,
 Gaussian 09:  ES64L-G09RevD.01 24-Apr-2013

 --------------------
 #p B2PLYPD3/Def2QZVP
 --------------------

 --------
 methanol
 --------
 Symbolic Z-matrix:
 Charge =  0 Multiplicity = 1

                         Standard orientation:
 ---------------------------------------------------------------------
 Center     Atomic      Atomic             Coordinates (Angstroms)
 Number     Number       Type             X           Y           Z
 ---------------------------------------------------------------------
      1          6           0       -0.664921   -0.029952   -0.003865
      2          8           0        0.749164    0.107667   -0.001975
      3          1           0       -0.979201   -0.546045    0.924182
      4          1           0       -1.008068   -0.564780   -0.893362
      5          1           0       -1.124109    1.050398    0.003694
      6          1           0        1.107596   -0.621201    0.004477
 ---------------------------------------------------------------------

 SCF Done:  E(RB2PLYPD3) =  -115.521249147     A.U. after   10 cycles
 E2(B2PLYPD3) =    -0.1451045443D+00 E(B2PLYPD3) =    -0.11566635369088D+03

 The electronic state is 1-A.
 Alpha  occ. eigenvalues --  -19.70965 -10.67004  -1.19967  -0.79625  -0.60589
 Alpha  occ. eigenvalues --   -0.52342  -0.49496  -0.40793  -0.35878
 Alpha virt. eigenvalues --    0.05357   0.08842   0.12009   0.12173   0.14610
 Alpha virt. eigenvalues --    0.17251   0.17816   0.28964   0.32937   0.33238
 Alpha virt. eigenvalues --    0.36558   0.38632   0.40132   0.40678   0.43251

 Mulliken charges:
               1
     1  C    0.065122
     2  O   -0.369765
     3  H    0.051920
     4  H    0.054972
     5  H    0.066865
     6  H    0.130887
 Sum of Mulliken charges =   0.00000

 Dipole moment (field-independent basis, Debye):
    X=             -0.9037    Y=             -1.4186    Z=              0.0033  Tot=              1.6820
 Quadrupole moment (field-independent basis, Debye-Ang):
   XX=            -13.1078   YY=            -12.4357   ZZ=            -13.6168
   XY=             -2.0713   XZ=              0.0562   YZ=              0.0222

 Normal termination of Gaussian 09 at Thu Aug 27 00:01:11 2020.
