 Gaussian 09, Revision D.01,
 Gaussian 09:  ES64L-G09RevD.01 24-Apr-2013

 --------------------
 #p B2PLYPD3/Def2QZVP
 --------------------

 --------
 methanol
 --------
 Symbolic Z-matrix:
 Charge =  0 Multiplicity = 1

                         Standard orientation:
 ---------------------------------------------------------------------
 Center     Atomic      Atomic             Coordinates (Angstroms)
 Number     Number       Type             X           Y           Z
 ---------------------------------------------------------------------
      1          6           0        0.660596   -0.019512    0.014941
      2          8           0       -0.753961    0.114971   -0.022884
      3          1           0        1.049279   -0.781799   -0.761256
      4          1           0        1.006566   -0.301474    0.958057
      5          1           0        1.134949    0.978719   -0.212120
      6          1           0       -1.122681   -0.698139    0.108741
 ---------------------------------------------------------------------

 SCF Done:  E(RB2PLYPD3) =  -115.545430286     A.U. after   11 cycles
 E2(B2PLYPD3) =    -0.1465153324D+00 E(B2PLYPD3) =    -0.11569194561849D+03

 The electronic state is 1-A.
 Alpha  occ. eigenvalues --  -19.72226 -10.66324  -1.17546  -0.78987  -0.59616
 Alpha  occ. eigenvalues --   -0.51724  -0.49801  -0.40972  -0.35647
 Alpha virt. eigenvalues --    0.05165   0.08353   0.12107   0.12477   0.14778
 Alpha virt. eigenvalues --    0.17432   0.18101   0.29069   0.33043   0.33273
 Alpha virt. eigenvalues --    0.36160   0.38337   0.38762   0.41514   0.44084

 Mulliken charges:
               1
     1  C    0.069316
     2  O   -0.432439
     3  H    0.037986
     4  H    0.057240
     5  H    0.067539
     6  H    0.200358
 Sum of Mulliken charges =   0.00000

 Dipole moment (field-independent basis, Debye):
    X=              0.8920    Y=             -1.4324    Z=              0.3340  Tot=              1.7202
 Quadrupole moment (field-independent basis, Debye-Ang):
   XX=            -13.0085   YY=            -12.3846   ZZ=            -13.7612
   XY=              2.2000   XZ=             -0.2664   YZ=             -0.2039

 Normal termination of Gaussian 09 at Wed Aug 26 13:48:21 2020.
