 Gaussian 09, Revision D.01,
 Gaussian 09:  ES64L-G09RevD.01 24-Apr-2013

 --------------------
 #p B2PLYPD3/Def2QZVP
 --------------------

 --------
 methanol
 --------
 Symbolic Z-matrix:
 Charge =  0 Multiplicity = 1

                         Standard orientation:
 ---------------------------------------------------------------------
 Center     Atomic      Atomic             Coordinates (Angstroms)
 Number     Number       Type             X           Y           Z
 ---------------------------------------------------------------------
      1          6           0        0.686616   -0.013744    0.002368
      2          8           0       -0.760998    0.093865   -0.019842
      3          1           0        1.010391   -0.745580   -0.845798
      4          1           0        1.071776   -0.331124    1.026950
      5          1           0        1.058064    0.993150   -0.188139
      6          1           0       -1.171945   -0.584899    0.151511
 ---------------------------------------------------------------------

 SCF Done:  E(RB2PLYPD3) =  -115.518210182     A.U. after   10 cycles
 E2(B2PLYPD3) =    -0.1455574364D+00 E(B2PLYPD3) =    -0.11566376761879D+03

 The electronic state is 1-A.
 Alpha  occ. eigenvalues --  -19.70729 -10.67660  -1.18679  -0.79914  -0.59557
 Alpha  occ. eigenvalues --   -0.51076  -0.50037  -0.40661  -0.35690
 Alpha virt. eigenvalues --    0.05404   0.08608   0.11824   0.12357   0.14309
 Alpha virt. eigenvalues --    0.16875   0.18051   0.28894   0.31608   0.33229
 Alpha virt. eigenvalues --    0.36733   0.38881   0.39555   0.40224   0.42528

 Mulliken charges:
               1
     1  C    0.063227
     2  O   -0.385260
     3  H    0.052713
     4  H    0.054359
     5  H    0.083929
     6  H    0.131030
 Sum of Mulliken charges =   0.00000

 Dipole moment (field-independent basis, Debye):
    X=              0.9349    Y=             -1.2321    Z=              0.3409  Tot=              1.5837
 Quadrupole moment (field-independent basis, Debye-Ang):
   XX=            -12.8647   YY=            -12.5985   ZZ=            -13.5465
   XY=              2.1412   XZ=             -0.4197   YZ=             -0.1980

 Normal termination of Gaussian 09 at Wed Aug 26 16:20:30 2020.
