 Gaussian 09, Revision D.01,
 Gaussian 09:  ES64L-G09RevD.01 24-Apr-2013

 --------------------
 #p B2PLYPD3/Def2QZVP
 --------------------

 --------
 methanol
 --------
 Symbolic Z-matrix:
 Charge =  0 Multiplicity = 1

                         Standard orientation:
 ---------------------------------------------------------------------
 Center     Atomic      Atomic             Coordinates (Angstroms)
 Number     Number       Type             X           Y           Z
 ---------------------------------------------------------------------
      1          6           0        0.648796   -0.015876    0.008042
      2          8           0       -0.746200    0.098154   -0.003565
      3          1           0        1.046522   -0.617239   -0.888510
      4          1           0        1.034650   -0.507856    0.925605
      5          1           0        1.081448    1.057382   -0.065578
      6          1           0       -1.085793   -0.622260    0.008747
 ---------------------------------------------------------------------

 SCF Done:  E(RB2PLYPD3) =  -115.512838441     A.U. after   10 cycles
 E2(B2PLYPD3) =    -0.1448900706D+00 E(B2PLYPD3) =    -0.11565772851199D+03

 The electronic state is 1-A.
 Alpha  occ. eigenvalues --  -19.71236 -10.67361  -1.21367  -0.79697  -0.61376
 Alpha  occ. eigenvalues --   -0.51591  -0.50146  -0.41064  -0.35703
 Alpha virt. eigenvalues --    0.05342   0.08859   0.11975   0.12199   0.14918
 Alpha virt. eigenvalues --    0.17177   0.17865   0.28882   0.33034   0.33882
 Alpha virt. eigenvalues --    0.36958   0.38526   0.39706   0.40319   0.42560

 Mulliken charges:
               1
     1  C    0.057600
     2  O   -0.337199
     3  H    0.040875
     4  H    0.050803
     5  H    0.069638
     6  H    0.118284
 Sum of Mulliken charges =   0.00000

 Dipole moment (field-independent basis, Debye):
    X=              0.8195    Y=             -1.3590    Z=              0.0600  Tot=              1.5881
 Quadrupole moment (field-independent basis, Debye-Ang):
   XX=            -13.1556   YY=            -12.4068   ZZ=            -13.7679
   XY=              1.9983   XZ=             -0.0058   YZ=             -0.0671

 Normal termination of Gaussian 09 at Thu Aug 27 00:05:29 2020.
