 Gaussian 09, Revision D.01,
 Gaussian 09:  ES64L-G09RevD.01 24-Apr-2013

 --------------------
 #p B2PLYPD3/Def2QZVP
 --------------------

 --------
 methanol
 --------
 Symbolic Z-matrix:
 Charge =  0 Multiplicity = 1

                         Standard orientation:
 ---------------------------------------------------------------------
 Center     Atomic      Atomic             Coordinates (Angstroms)
 Number     Number       Type             X           Y           Z
 ---------------------------------------------------------------------
      1          6           0       -0.670313   -0.022970    0.010612
      2          8           0        0.759156    0.100411   -0.021492
      3          1           0       -1.018562   -0.356636    0.972651
      4          1           0       -1.078584   -0.726390   -0.813457
      5          1           0       -1.093134    1.041415   -0.154359
      6          1           0        1.138911   -0.623862    0.103430
 ---------------------------------------------------------------------

 SCF Done:  E(RB2PLYPD3) =  -115.526106378     A.U. after   10 cycles
 E2(B2PLYPD3) =    -0.1456617467D+00 E(B2PLYPD3) =    -0.11567176812465D+03

 The electronic state is 1-A.
 Alpha  occ. eigenvalues --  -19.71319 -10.67317  -1.19044  -0.79500  -0.60328
 Alpha  occ. eigenvalues --   -0.51435  -0.49359  -0.40891  -0.35920
 Alpha virt. eigenvalues --    0.05352   0.08580   0.11945   0.12230   0.14727
 Alpha virt. eigenvalues --    0.17069   0.18067   0.28955   0.32545   0.33268
 Alpha virt. eigenvalues --    0.36772   0.38190   0.39258   0.40753   0.42743

 Mulliken charges:
               1
     1  C    0.062230
     2  O   -0.386283
     3  H    0.059639
     4  H    0.047984
     5  H    0.070430
     6  H    0.146000
 Sum of Mulliken charges =   0.00000

 Dipole moment (field-independent basis, Debye):
    X=             -0.9067    Y=             -1.3609    Z=              0.3149  Tot=              1.6653
 Quadrupole moment (field-independent basis, Debye-Ang):
   XX=            -12.9418   YY=            -12.4897   ZZ=            -13.6897
   XY=             -2.0539   XZ=              0.2960   YZ=             -0.1667

 Normal termination of Gaussian 09 at Thu Aug 27 00:13:49 2020.
