 Gaussian 09, Revision D.01,
 Gaussian 09:  ES64L-G09RevD.01 24-Apr-2013

 --------------------
 #p B2PLYPD3/Def2QZVP
 --------------------

 --------
 methanol
 --------
 Symbolic Z-matrix:
 Charge =  0 Multiplicity = 1

                         Standard orientation:
 ---------------------------------------------------------------------
 Center     Atomic      Atomic             Coordinates (Angstroms)
 Number     Number       Type             X           Y           Z
 ---------------------------------------------------------------------
      1          6           0        0.667038   -0.033515   -0.005605
      2          8           0       -0.747025    0.100237   -0.001507
      3          1           0        1.000884   -0.670316   -0.833961
      4          1           0        1.099588   -0.442131    0.931865
      5          1           0        1.074440    1.100779   -0.105149
      6          1           0       -1.200936   -0.589143    0.052930
 ---------------------------------------------------------------------

 SCF Done:  E(RB2PLYPD3) =  -115.521752849     A.U. after   10 cycles
 E2(B2PLYPD3) =    -0.1455507303D+00 E(B2PLYPD3) =    -0.11566730357959D+03

 The electronic state is 1-A.
 Alpha  occ. eigenvalues --  -19.71118 -10.67538  -1.19061  -0.79733  -0.60911
 Alpha  occ. eigenvalues --   -0.51736  -0.48828  -0.39999  -0.35781
 Alpha virt. eigenvalues --    0.05335   0.08553   0.11651   0.12410   0.14955
 Alpha virt. eigenvalues --    0.16828   0.18020   0.29047   0.32883   0.33576
 Alpha virt. eigenvalues --    0.35684   0.39106   0.39706   0.40246   0.41974

 Mulliken charges:
               1
     1  C    0.059099
     2  O   -0.383639
     3  H    0.056644
     4  H    0.055424
     5  H    0.066410
     6  H    0.146062
 Sum of Mulliken charges =   0.00000

 Dipole moment (field-independent basis, Debye):
    X=              0.7335    Y=             -1.4113    Z=              0.1033  Tot=              1.5939
 Quadrupole moment (field-independent basis, Debye-Ang):
   XX=            -12.6710   YY=            -12.5341   ZZ=            -13.8039
   XY=              1.9864   XZ=             -0.0727   YZ=             -0.0093

 Normal termination of Gaussian 09 at Wed Aug 26 11:18:25 2020.
