 Gaussian 09, Revision D.01,
 Gaussian 09:  ES64L-G09RevD.01 24-Apr-2013

 --------------------
 #p B2PLYPD3/Def2QZVP
 --------------------

 --------
 methanol
 --------
 Symbolic Z-matrix:
 Charge =  0 Multiplicity = 1

                         Standard orientation:
 ---------------------------------------------------------------------
 Center     Atomic      Atomic             Coordinates (Angstroms)
 Number     Number       Type             X           Y           Z
 ---------------------------------------------------------------------
      1          6           0       -0.669426   -0.023891    0.010955
      2          8           0        0.745728    0.100587   -0.006437
      3          1           0       -1.073889   -0.417854    0.925123
      4          1           0       -0.987438   -0.672621   -0.868233
      5          1           0       -1.022267    1.064510   -0.138753
      6          1           0        1.134327   -0.635382    0.067630
 ---------------------------------------------------------------------

 SCF Done:  E(RB2PLYPD3) =  -115.530033685     A.U. after   10 cycles
 E2(B2PLYPD3) =    -0.1454937734D+00 E(B2PLYPD3) =    -0.11567552745819D+03

 The electronic state is 1-A.
 Alpha  occ. eigenvalues --  -19.71166 -10.66867  -1.19065  -0.79554  -0.60500
 Alpha  occ. eigenvalues --   -0.51883  -0.49284  -0.40842  -0.35703
 Alpha virt. eigenvalues --    0.05330   0.08744   0.11927   0.12246   0.14869
 Alpha virt. eigenvalues --    0.16826   0.17984   0.29054   0.32743   0.33667
 Alpha virt. eigenvalues --    0.37206   0.38316   0.39790   0.41121   0.42437

 Mulliken charges:
               1
     1  C    0.060216
     2  O   -0.388401
     3  H    0.059298
     4  H    0.046887
     5  H    0.070375
     6  H    0.151625
 Sum of Mulliken charges =   0.00000

 Dipole moment (field-independent basis, Debye):
    X=             -0.8370    Y=             -1.3949    Z=              0.1930  Tot=              1.6381
 Quadrupole moment (field-independent basis, Debye-Ang):
   XX=            -13.0626   YY=            -12.3777   ZZ=            -13.6673
   XY=             -2.0102   XZ=              0.0466   YZ=             -0.1435

 Normal termination of Gaussian 09 at Wed Aug 26 12:22:12 2020.
