 Gaussian 09, Revision D.01,
 Gaussian 09:  ES64L-G09RevD.01 24-Apr-2013

 --------------------
 #p B2PLYPD3/Def2QZVP
 --------------------

 --------
 methanol
 --------
 Symbolic Z-matrix:
 Charge =  0 Multiplicity = 1

                         Standard orientation:
 ---------------------------------------------------------------------
 Center     Atomic      Atomic             Coordinates (Angstroms)
 Number     Number       Type             X           Y           Z
 ---------------------------------------------------------------------
      1          6           0        0.646708    0.033441    0.012086
      2          8           0       -0.735255   -0.166597   -0.009185
      3          1           0        0.993327    0.444027    0.846625
      4          1           0        1.059543    0.552622   -0.817814
      5          1           0        1.107279   -0.873640   -0.047512
      6          1           0       -1.158356    1.009118    0.019664
 ---------------------------------------------------------------------

 SCF Done:  E(RB2PLYPD3) =  -115.490066709     A.U. after   11 cycles
 E2(B2PLYPD3) =    -0.1522265634D+00 E(B2PLYPD3) =    -0.11564229327228D+03

 The electronic state is 1-A.
 Alpha  occ. eigenvalues --  -19.74788 -10.62794  -1.13487  -0.79093  -0.55715
 Alpha  occ. eigenvalues --   -0.52863  -0.49877  -0.39940  -0.35280
 Alpha virt. eigenvalues --    0.01445   0.07608   0.12719   0.12848   0.14870
 Alpha virt. eigenvalues --    0.17732   0.18619   0.24901   0.29372   0.33604
 Alpha virt. eigenvalues --    0.35238   0.38846   0.40431   0.42613   0.43907

 Mulliken charges:
               1
     1  C    0.088606
     2  O   -0.479204
     3  H    0.044896
     4  H    0.038599
     5  H    0.054450
     6  H    0.252653
 Sum of Mulliken charges =   0.00000

 Dipole moment (field-independent basis, Debye):
    X=              0.9376    Y=              1.6879    Z=              0.0935  Tot=              1.9331
 Quadrupole moment (field-independent basis, Debye-Ang):
   XX=            -13.0670   YY=            -11.7972   ZZ=            -13.8866
   XY=             -2.4451   XZ=             -0.0484   YZ=              0.0821

 Normal termination of Gaussian 09 at Wed Aug 26 18:30:20 2020.
