 Gaussian 09, Revision D.01,
 Gaussian 09:  ES64L-G09RevD.01 24-Apr-2013

 --------------------
 #p B2PLYPD3/Def2QZVP
 --------------------

 --------
 methanol
 --------
 Symbolic Z-matrix:
 Charge =  0 Multiplicity = 1

                         Standard orientation:
 ---------------------------------------------------------------------
 Center     Atomic      Atomic             Coordinates (Angstroms)
 Number     Number       Type             X           Y           Z
 ---------------------------------------------------------------------
      1          6           0        0.655886   -0.004944   -0.026326
      2          8           0       -0.770767   -0.057075    0.052148
      3          1           0        0.959365    1.253661    0.036506
      4          1           0        1.235284   -0.576638   -0.885677
      5          1           0        1.142891   -0.459634    0.949984
      6          1           0       -1.106718    0.268874   -0.360043
 ---------------------------------------------------------------------

 SCF Done:  E(RB2PLYPD3) =  -115.256475893     A.U. after   11 cycles
 E2(B2PLYPD3) =    -0.1446526013D+00 E(B2PLYPD3) =    -0.11540112849379D+03

 The electronic state is 1-A.
 Alpha  occ. eigenvalues --  -19.69780 -10.70788  -1.27859  -0.82078  -0.62169
 Alpha  occ. eigenvalues --   -0.50839  -0.50131  -0.39725  -0.36345
 Alpha virt. eigenvalues --    0.04933   0.08824   0.10926   0.11890   0.13941
 Alpha virt. eigenvalues --    0.17041   0.18477   0.28017   0.30591   0.32804
 Alpha virt. eigenvalues --    0.33684   0.36413   0.37108   0.40821   0.43324

 Mulliken charges:
               1
     1  C    0.038468
     2  O   -0.171983
     3  H    0.031187
     4  H    0.067664
     5  H    0.078867
     6  H   -0.044203
 Sum of Mulliken charges =   0.00000

 Dipole moment (field-independent basis, Debye):
    X=              0.9225    Y=              0.5462    Z=             -0.8432  Tot=              1.3639
 Quadrupole moment (field-independent basis, Debye-Ang):
   XX=            -12.8152   YY=            -13.3926   ZZ=            -13.2584
   XY=             -1.5302   XZ=              1.4042   YZ=             -0.2254

 Normal termination of Gaussian 09 at Wed Aug 26 21:13:31 2020.
