 Gaussian 09, Revision D.01,
 Gaussian 09:  ES64L-G09RevD.01 24-Apr-2013

 --------------------
 #p B2PLYPD3/Def2QZVP
 --------------------

 --------
 methanol
 --------
 Symbolic Z-matrix:
 Charge =  0 Multiplicity = 1

                         Standard orientation:
 ---------------------------------------------------------------------
 Center     Atomic      Atomic             Coordinates (Angstroms)
 Number     Number       Type             X           Y           Z
 ---------------------------------------------------------------------
      1          6           0        0.672965   -0.020526    0.003654
      2          8           0       -0.746660    0.120918   -0.005667
      3          1           0        0.997023   -0.565912   -0.903342
      4          1           0        0.954868   -0.526058    0.921852
      5          1           0        1.114205    0.958588   -0.010094
      6          1           0       -1.130608   -0.710804    0.014992
 ---------------------------------------------------------------------

 SCF Done:  E(RB2PLYPD3) =  -115.550860759     A.U. after   10 cycles
 E2(B2PLYPD3) =    -0.1464315324D+00 E(B2PLYPD3) =    -0.11569729229184D+03

 The electronic state is 1-A.
 Alpha  occ. eigenvalues --  -19.71801 -10.65687  -1.16742  -0.79132  -0.58726
 Alpha  occ. eigenvalues --   -0.52260  -0.50356  -0.40902  -0.35369
 Alpha virt. eigenvalues --    0.05174   0.08489   0.12168   0.12584   0.14488
 Alpha virt. eigenvalues --    0.17411   0.17891   0.29128   0.32927   0.33153
 Alpha virt. eigenvalues --    0.36027   0.39494   0.40252   0.40869   0.44382

 Mulliken charges:
               1
     1  C    0.073539
     2  O   -0.450728
     3  H    0.047651
     4  H    0.050118
     5  H    0.073863
     6  H    0.205556
 Sum of Mulliken charges =   0.00000

 Dipole moment (field-independent basis, Debye):
    X=              0.9293    Y=             -1.4480    Z=              0.0570  Tot=              1.7215
 Quadrupole moment (field-independent basis, Debye-Ang):
   XX=            -13.0691   YY=            -12.3160   ZZ=            -13.6190
   XY=              2.3233   XZ=             -0.0683   YZ=             -0.0348

 Normal termination of Gaussian 09 at Thu Aug 27 00:01:41 2020.
