 Gaussian 09, Revision D.01,
 Gaussian 09:  ES64L-G09RevD.01 24-Apr-2013

 --------------------
 #p B2PLYPD3/Def2QZVP
 --------------------

 --------
 methanol
 --------
 Symbolic Z-matrix:
 Charge =  0 Multiplicity = 1

                         Standard orientation:
 ---------------------------------------------------------------------
 Center     Atomic      Atomic             Coordinates (Angstroms)
 Number     Number       Type             X           Y           Z
 ---------------------------------------------------------------------
      1          6           0        0.661165   -0.011326    0.009623
      2          8           0       -0.759597    0.097864   -0.018143
      3          1           0        0.970419   -0.815216   -0.812204
      4          1           0        1.132327   -0.296015    0.988659
      5          1           0        1.123904    0.985600   -0.258477
      6          1           0       -1.116860   -0.589328    0.169430
 ---------------------------------------------------------------------

 SCF Done:  E(RB2PLYPD3) =  -115.509050490     A.U. after   11 cycles
 E2(B2PLYPD3) =    -0.1453819767D+00 E(B2PLYPD3) =    -0.11565443246688D+03

 The electronic state is 1-A.
 Alpha  occ. eigenvalues --  -19.71270 -10.67944  -1.20530  -0.79638  -0.60760
 Alpha  occ. eigenvalues --   -0.51148  -0.49978  -0.40991  -0.35678
 Alpha virt. eigenvalues --    0.05326   0.08611   0.11887   0.12221   0.14543
 Alpha virt. eigenvalues --    0.17296   0.18055   0.28837   0.31976   0.33659
 Alpha virt. eigenvalues --    0.36343   0.38155   0.39212   0.40064   0.42692

 Mulliken charges:
               1
     1  C    0.055770
     2  O   -0.346197
     3  H    0.039811
     4  H    0.053981
     5  H    0.076404
     6  H    0.120230
 Sum of Mulliken charges =   0.00000

 Dipole moment (field-independent basis, Debye):
    X=              0.8877    Y=             -1.2365    Z=              0.4083  Tot=              1.5760
 Quadrupole moment (field-independent basis, Debye-Ang):
   XX=            -12.9675   YY=            -12.6410   ZZ=            -13.6972
   XY=              2.1334   XZ=             -0.3246   YZ=             -0.2812

 Normal termination of Gaussian 09 at Wed Aug 26 12:08:08 2020.
