 Gaussian 09, Revision D.01,
 Gaussian 09:  ES64L-G09RevD.01 24-Apr-2013

 --------------------
 #p B2PLYPD3/Def2QZVP
 --------------------

 --------
 methanol
 --------
 Symbolic Z-matrix:
 Charge =  0 Multiplicity = 1

                         Standard orientation:
 ---------------------------------------------------------------------
 Center     Atomic      Atomic             Coordinates (Angstroms)
 Number     Number       Type             X           Y           Z
 ---------------------------------------------------------------------
      1          6           0       -0.664481   -0.044056    0.022128
      2          8           0        0.732316    0.067103   -0.033105
      3          1           0       -0.913958   -0.267596    1.037273
      4          1           0       -0.978265   -0.772395   -0.833004
      5          1           0       -1.010953    1.155777   -0.239792
      6          1           0        1.031533   -0.388274    0.167591
 ---------------------------------------------------------------------

 SCF Done:  E(RB2PLYPD3) =  -115.143592811     A.U. after   11 cycles
 E2(B2PLYPD3) =    -0.1428648506D+00 E(B2PLYPD3) =    -0.11528645766119D+03

 The electronic state is 1-A.
 Alpha  occ. eigenvalues --  -19.68054 -10.68672  -1.30124  -0.83565  -0.62564
 Alpha  occ. eigenvalues --   -0.53732  -0.49218  -0.39972  -0.36623
 Alpha virt. eigenvalues --    0.05047   0.09949   0.11101   0.11651   0.14147
 Alpha virt. eigenvalues --    0.16569   0.17612   0.28394   0.31969   0.32868
 Alpha virt. eigenvalues --    0.34303   0.38020   0.41310   0.41761   0.42946

 Mulliken charges:
               1
     1  C    0.047102
     2  O   -0.131033
     3  H    0.065369
     4  H    0.061123
     5  H    0.059751
     6  H   -0.102312
 Sum of Mulliken charges =   0.00000

 Dipole moment (field-independent basis, Debye):
    X=             -0.8777    Y=             -1.1229    Z=              0.5651  Tot=              1.5332
 Quadrupole moment (field-independent basis, Debye-Ang):
   XX=            -13.5093   YY=            -12.6456   ZZ=            -12.9925
   XY=             -1.4706   XZ=              0.5833   YZ=             -0.1823

 Normal termination of Gaussian 09 at Wed Aug 26 22:49:52 2020.
