 Gaussian 09, Revision D.01,
 Gaussian 09:  ES64L-G09RevD.01 24-Apr-2013

 --------------------
 #p B2PLYPD3/Def2QZVP
 --------------------

 --------
 methanol
 --------
 Symbolic Z-matrix:
 Charge =  0 Multiplicity = 1

                         Standard orientation:
 ---------------------------------------------------------------------
 Center     Atomic      Atomic             Coordinates (Angstroms)
 Number     Number       Type             X           Y           Z
 ---------------------------------------------------------------------
      1          6           0       -0.643327   -0.022835   -0.001561
      2          8           0        0.739959    0.106522   -0.005314
      3          1           0       -1.031403   -0.493793    0.938318
      4          1           0       -0.977300   -0.675024   -0.859956
      5          1           0       -1.181174    1.038539   -0.079049
      6          1           0        1.130168   -0.584889    0.052568
 ---------------------------------------------------------------------

 SCF Done:  E(RB2PLYPD3) =  -115.509342432     A.U. after   10 cycles
 E2(B2PLYPD3) =    -0.1447852600D+00 E(B2PLYPD3) =    -0.11565412769171D+03

 The electronic state is 1-A.
 Alpha  occ. eigenvalues --  -19.71141 -10.67582  -1.21445  -0.79894  -0.61637
 Alpha  occ. eigenvalues --   -0.51895  -0.50208  -0.40234  -0.35566
 Alpha virt. eigenvalues --    0.05330   0.08758   0.12050   0.12250   0.14728
 Alpha virt. eigenvalues --    0.17441   0.17783   0.28902   0.32837   0.34310
 Alpha virt. eigenvalues --    0.35743   0.38652   0.39916   0.40200   0.42942

 Mulliken charges:
               1
     1  C    0.060028
     2  O   -0.336836
     3  H    0.045311
     4  H    0.044336
     5  H    0.067376
     6  H    0.119785
 Sum of Mulliken charges =   0.00000

 Dipole moment (field-independent basis, Debye):
    X=             -0.7210    Y=             -1.3641    Z=              0.1250  Tot=              1.5479
 Quadrupole moment (field-independent basis, Debye-Ang):
   XX=            -12.8918   YY=            -12.5844   ZZ=            -13.8019
   XY=             -2.1149   XZ=              0.1056   YZ=             -0.0513

 Normal termination of Gaussian 09 at Wed Aug 26 13:03:42 2020.
