 Gaussian 09, Revision D.01,
 Gaussian 09:  ES64L-G09RevD.01 24-Apr-2013

 --------------------
 #p B2PLYPD3/Def2QZVP
 --------------------

 --------
 methanol
 --------
 Symbolic Z-matrix:
 Charge =  0 Multiplicity = 1

                         Standard orientation:
 ---------------------------------------------------------------------
 Center     Atomic      Atomic             Coordinates (Angstroms)
 Number     Number       Type             X           Y           Z
 ---------------------------------------------------------------------
      1          6           0        0.670932   -0.019345    0.004425
      2          8           0       -0.756015    0.114270   -0.003576
      3          1           0        1.073125   -0.577775   -0.877139
      4          1           0        1.029702   -0.514130    0.911994
      5          1           0        1.086730    1.003347   -0.033507
      6          1           0       -1.167032   -0.709538    0.000710
 ---------------------------------------------------------------------

 SCF Done:  E(RB2PLYPD3) =  -115.550883426     A.U. after   10 cycles
 E2(B2PLYPD3) =    -0.1468829574D+00 E(B2PLYPD3) =    -0.11569776638330D+03

 The electronic state is 1-A.
 Alpha  occ. eigenvalues --  -19.72232 -10.66333  -1.16490  -0.78887  -0.59081
 Alpha  occ. eigenvalues --   -0.51293  -0.49652  -0.41000  -0.35535
 Alpha virt. eigenvalues --    0.05170   0.08216   0.12296   0.12364   0.14835
 Alpha virt. eigenvalues --    0.17174   0.18124   0.29086   0.32922   0.33459
 Alpha virt. eigenvalues --    0.36163   0.38577   0.39548   0.40392   0.43218

 Mulliken charges:
               1
     1  C    0.067784
     2  O   -0.449551
     3  H    0.047474
     4  H    0.052495
     5  H    0.072890
     6  H    0.208907
 Sum of Mulliken charges =   0.00000

 Dipole moment (field-independent basis, Debye):
    X=              0.8767    Y=             -1.4579    Z=              0.0280  Tot=              1.7015
 Quadrupole moment (field-independent basis, Debye-Ang):
   XX=            -12.8489   YY=            -12.3444   ZZ=            -13.8155
   XY=              2.2318   XZ=             -0.0289   YZ=             -0.0296

 Normal termination of Gaussian 09 at Wed Aug 26 14:03:33 2020.
