 Gaussian 09, Revision D.01,
 Gaussian 09:  ES64L-G09RevD.01 24-Apr-2013

 --------------------
 #p B2PLYPD3/Def2QZVP
 --------------------

 --------
 methanol
 --------
 Symbolic Z-matrix:
 Charge =  0 Multiplicity = 1

                         Standard orientation:
 ---------------------------------------------------------------------
 Center     Atomic      Atomic             Coordinates (Angstroms)
 Number     Number       Type             X           Y           Z
 ---------------------------------------------------------------------
      1          6           0        0.667582   -0.024574    0.012030
      2          8           0       -0.748786    0.125100   -0.005343
      3          1           0        1.013788   -0.592170   -0.868004
      4          1           0        1.011156   -0.507659    0.868588
      5          1           0        1.097793    1.002781   -0.050389
      6          1           0       -1.137937   -0.756304    0.020372
 ---------------------------------------------------------------------

 SCF Done:  E(RB2PLYPD3) =  -115.550630929     A.U. after   10 cycles
 E2(B2PLYPD3) =    -0.1473354515D+00 E(B2PLYPD3) =    -0.11569796637999D+03

 The electronic state is 1-A.
 Alpha  occ. eigenvalues --  -19.72525 -10.65490  -1.15929  -0.78742  -0.58807
 Alpha  occ. eigenvalues --   -0.52040  -0.49389  -0.41131  -0.35421
 Alpha virt. eigenvalues --    0.04917   0.08248   0.12270   0.12464   0.14902
 Alpha virt. eigenvalues --    0.17322   0.17983   0.29190   0.33240   0.33331
 Alpha virt. eigenvalues --    0.35131   0.38309   0.39681   0.41515   0.44208

 Mulliken charges:
               1
     1  C    0.074356
     2  O   -0.462457
     3  H    0.044068
     4  H    0.053085
     5  H    0.067545
     6  H    0.223403
 Sum of Mulliken charges =   0.00000

 Dipole moment (field-independent basis, Debye):
    X=              0.9019    Y=             -1.5484    Z=              0.0923  Tot=              1.7943
 Quadrupole moment (field-independent basis, Debye-Ang):
   XX=            -13.0499   YY=            -12.1672   ZZ=            -13.8017
   XY=              2.2254   XZ=             -0.0066   YZ=             -0.0944

 Normal termination of Gaussian 09 at Wed Aug 26 10:17:19 2020.
