 Gaussian 09, Revision D.01,
 Gaussian 09:  ES64L-G09RevD.01 24-Apr-2013

 --------------------
 #p B2PLYPD3/Def2QZVP
 --------------------

 --------
 methanol
 --------
 Symbolic Z-matrix:
 Charge =  0 Multiplicity = 1

                         Standard orientation:
 ---------------------------------------------------------------------
 Center     Atomic      Atomic             Coordinates (Angstroms)
 Number     Number       Type             X           Y           Z
 ---------------------------------------------------------------------
      1          6           0       -0.664596   -0.011231    0.001404
      2          8           0        0.754895    0.098325   -0.011830
      3          1           0       -1.022924   -0.489732    0.968205
      4          1           0       -1.016913   -0.639969   -0.908331
      5          1           0       -1.122656    1.005720   -0.051257
      6          1           0        1.110912   -0.595240    0.077602
 ---------------------------------------------------------------------

 SCF Done:  E(RB2PLYPD3) =  -115.505990317     A.U. after   10 cycles
 E2(B2PLYPD3) =    -0.1448858631D+00 E(B2PLYPD3) =    -0.11565087618008D+03

 The electronic state is 1-A.
 Alpha  occ. eigenvalues --  -19.70816 -10.67621  -1.20796  -0.79981  -0.60634
 Alpha  occ. eigenvalues --   -0.51296  -0.50534  -0.40969  -0.35710
 Alpha virt. eigenvalues --    0.05389   0.08835   0.11908   0.12307   0.14468
 Alpha virt. eigenvalues --    0.17296   0.17826   0.28864   0.32644   0.33063
 Alpha virt. eigenvalues --    0.36895   0.38852   0.39421   0.39977   0.43071

 Mulliken charges:
               1
     1  C    0.061872
     2  O   -0.341100
     3  H    0.047217
     4  H    0.046489
     5  H    0.079525
     6  H    0.105997
 Sum of Mulliken charges =   0.00000

 Dipole moment (field-independent basis, Debye):
    X=             -0.9139    Y=             -1.2753    Z=              0.1978  Tot=              1.5814
 Quadrupole moment (field-independent basis, Debye-Ang):
   XX=            -13.0368   YY=            -12.5284   ZZ=            -13.6470
   XY=             -2.1460   XZ=              0.2032   YZ=             -0.1075

 Normal termination of Gaussian 09 at Thu Aug 27 00:10:17 2020.
