 Gaussian 09, Revision D.01,
 Gaussian 09:  ES64L-G09RevD.01 24-Apr-2013

 --------------------
 #p B2PLYPD3/Def2QZVP
 --------------------

 --------
 methanol
 --------
 Symbolic Z-matrix:
 Charge =  0 Multiplicity = 1

                         Standard orientation:
 ---------------------------------------------------------------------
 Center     Atomic      Atomic             Coordinates (Angstroms)
 Number     Number       Type             X           Y           Z
 ---------------------------------------------------------------------
      1          6           0       -0.665997   -0.041302    0.025895
      2          8           0        0.733049    0.070331   -0.023417
      3          1           0       -0.905669   -0.386146    1.002983
      4          1           0       -1.107034   -0.746490   -0.835651
      5          1           0       -1.073167    1.200211   -0.169769
      6          1           0        1.217460   -0.382410    0.034404
 ---------------------------------------------------------------------

 SCF Done:  E(RB2PLYPD3) =  -115.337933365     A.U. after   11 cycles
 E2(B2PLYPD3) =    -0.1441740738D+00 E(B2PLYPD3) =    -0.11548210743881D+03

 The electronic state is 1-A.
 Alpha  occ. eigenvalues --  -19.68702 -10.69785  -1.24708  -0.83422  -0.62162
 Alpha  occ. eigenvalues --   -0.52483  -0.48677  -0.37815  -0.36201
 Alpha virt. eigenvalues --    0.04933   0.09251   0.10762   0.12060   0.14484
 Alpha virt. eigenvalues --    0.16511   0.17691   0.28810   0.32262   0.32450
 Alpha virt. eigenvalues --    0.33266   0.36901   0.39909   0.41722   0.42623

 Mulliken charges:
               1
     1  C    0.047439
     2  O   -0.209008
     3  H    0.073573
     4  H    0.052687
     5  H    0.063976
     6  H   -0.028667
 Sum of Mulliken charges =   0.00000

 Dipole moment (field-independent basis, Debye):
    X=             -0.5943    Y=             -1.1686    Z=              0.2715  Tot=              1.3388
 Quadrupole moment (field-independent basis, Debye-Ang):
   XX=            -12.6272   YY=            -12.8980   ZZ=            -13.4863
   XY=             -1.5442   XZ=              0.2463   YZ=             -0.1042

 Normal termination of Gaussian 09 at Wed Aug 26 23:15:42 2020.
