 Gaussian 09, Revision D.01,
 Gaussian 09:  ES64L-G09RevD.01 24-Apr-2013

 --------------------
 #p B2PLYPD3/Def2QZVP
 --------------------

 --------
 methanol
 --------
 Symbolic Z-matrix:
 Charge =  0 Multiplicity = 1

                         Standard orientation:
 ---------------------------------------------------------------------
 Center     Atomic      Atomic             Coordinates (Angstroms)
 Number     Number       Type             X           Y           Z
 ---------------------------------------------------------------------
      1          6           0        0.665432    0.018862   -0.001429
      2          8           0       -0.742510   -0.146206   -0.002488
      3          1           0        1.067506    0.471300    0.886837
      4          1           0        1.017002    0.591829   -0.841781
      5          1           0        1.086601   -0.890360   -0.051931
      6          1           0       -1.223623    0.883709    0.035350
 ---------------------------------------------------------------------

 SCF Done:  E(RB2PLYPD3) =  -115.523327686     A.U. after   11 cycles
 E2(B2PLYPD3) =    -0.1501819067D+00 E(B2PLYPD3) =    -0.11567350959256D+03

 The electronic state is 1-A.
 Alpha  occ. eigenvalues --  -19.73864 -10.64029  -1.13394  -0.78785  -0.56444
 Alpha  occ. eigenvalues --   -0.51555  -0.50261  -0.40579  -0.34997
 Alpha virt. eigenvalues --    0.03303   0.07683   0.12610   0.12853   0.14902
 Alpha virt. eigenvalues --    0.17384   0.18408   0.28141   0.29671   0.33427
 Alpha virt. eigenvalues --    0.34205   0.38838   0.40641   0.41450   0.43417

 Mulliken charges:
               1
     1  C    0.077678
     2  O   -0.491514
     3  H    0.044245
     4  H    0.043059
     5  H    0.070437
     6  H    0.256095
 Sum of Mulliken charges =   0.00000

 Dipole moment (field-independent basis, Debye):
    X=              0.8283    Y=              1.5838    Z=              0.0548  Tot=              1.7881
 Quadrupole moment (field-independent basis, Debye-Ang):
   XX=            -12.6980   YY=            -12.0552   ZZ=            -13.9240
   XY=             -2.5506   XZ=             -0.0541   YZ=              0.0374

 Normal termination of Gaussian 09 at Wed Aug 26 10:36:56 2020.
