 Gaussian 09, Revision D.01,
 Gaussian 09:  ES64L-G09RevD.01 24-Apr-2013

 --------------------
 #p B2PLYPD3/Def2QZVP
 --------------------

 --------
 methanol
 --------
 Symbolic Z-matrix:
 Charge =  0 Multiplicity = 1

                         Standard orientation:
 ---------------------------------------------------------------------
 Center     Atomic      Atomic             Coordinates (Angstroms)
 Number     Number       Type             X           Y           Z
 ---------------------------------------------------------------------
      1          6           0       -0.640728    0.016195    0.005138
      2          8           0        0.732706   -0.160808   -0.015969
      3          1           0       -1.091642    0.631515   -0.749098
      4          1           0       -0.971313    0.443503    0.826796
      5          1           0       -1.089701   -0.896724   -0.034542
      6          1           0        1.135375    1.011001    0.053771
 ---------------------------------------------------------------------

 SCF Done:  E(RB2PLYPD3) =  -115.489348139     A.U. after   11 cycles
 E2(B2PLYPD3) =    -0.1519123830D+00 E(B2PLYPD3) =    -0.11564126052188D+03

 The electronic state is 1-A.
 Alpha  occ. eigenvalues --  -19.74781 -10.62719  -1.14041  -0.79101  -0.56774
 Alpha  occ. eigenvalues --   -0.51957  -0.50161  -0.40594  -0.34837
 Alpha virt. eigenvalues --    0.01469   0.07655   0.12588   0.13038   0.15172
 Alpha virt. eigenvalues --    0.17696   0.18316   0.25093   0.29685   0.33360
 Alpha virt. eigenvalues --    0.35658   0.38932   0.39858   0.42030   0.44513

 Mulliken charges:
               1
     1  C    0.093340
     2  O   -0.473981
     3  H    0.029651
     4  H    0.038409
     5  H    0.059385
     6  H    0.253196
 Sum of Mulliken charges =   0.00000

 Dipole moment (field-independent basis, Debye):
    X=             -0.9099    Y=              1.7122    Z=              0.1974  Tot=              1.9490
 Quadrupole moment (field-independent basis, Debye-Ang):
   XX=            -13.1476   YY=            -11.5676   ZZ=            -14.0893
   XY=              2.3495   XZ=              0.0913   YZ=              0.1227

 Normal termination of Gaussian 09 at Wed Aug 26 12:53:00 2020.
