 Gaussian 09, Revision D.01,
 Gaussian 09:  ES64L-G09RevD.01 24-Apr-2013

 --------------------
 #p B2PLYPD3/Def2QZVP
 --------------------

 --------
 methanol
 --------
 Symbolic Z-matrix:
 Charge =  0 Multiplicity = 1

                         Standard orientation:
 ---------------------------------------------------------------------
 Center     Atomic      Atomic             Coordinates (Angstroms)
 Number     Number       Type             X           Y           Z
 ---------------------------------------------------------------------
      1          6           0       -0.670808   -0.011399    0.004457
      2          8           0        0.761837    0.082057   -0.016818
      3          1           0       -1.090566   -0.393157    0.972551
      4          1           0       -1.011602   -0.759269   -0.843707
      5          1           0       -1.075683    1.084473   -0.160686
      6          1           0        1.108006   -0.520111    0.139644
 ---------------------------------------------------------------------

 SCF Done:  E(RB2PLYPD3) =  -115.434544964     A.U. after   11 cycles
 E2(B2PLYPD3) =    -0.1443877333D+00 E(B2PLYPD3) =    -0.11557893269760D+03

 The electronic state is 1-A.
 Alpha  occ. eigenvalues --  -19.69958 -10.68631  -1.23227  -0.80757  -0.61580
 Alpha  occ. eigenvalues --   -0.51005  -0.49512  -0.41175  -0.35992
 Alpha virt. eigenvalues --    0.05297   0.09029   0.11697   0.11914   0.14689
 Alpha virt. eigenvalues --    0.16897   0.17685   0.28863   0.31771   0.33265
 Alpha virt. eigenvalues --    0.36373   0.37570   0.39190   0.40452   0.41944

 Mulliken charges:
               1
     1  C    0.055403
     2  O   -0.267513
     3  H    0.055125
     4  H    0.048368
     5  H    0.079184
     6  H    0.029435
 Sum of Mulliken charges =   0.00000

 Dipole moment (field-independent basis, Debye):
    X=             -0.9557    Y=             -1.2080    Z=              0.3815  Tot=              1.5869
 Quadrupole moment (field-independent basis, Debye-Ang):
   XX=            -13.0446   YY=            -12.4876   ZZ=            -13.6582
   XY=             -1.8851   XZ=              0.2990   YZ=             -0.2162

 Normal termination of Gaussian 09 at Wed Aug 26 11:36:45 2020.
