 Gaussian 09, Revision D.01,
 Gaussian 09:  ES64L-G09RevD.01 24-Apr-2013

 --------------------
 #p B2PLYPD3/Def2QZVP
 --------------------

 --------
 methanol
 --------
 Symbolic Z-matrix:
 Charge =  0 Multiplicity = 1

                         Standard orientation:
 ---------------------------------------------------------------------
 Center     Atomic      Atomic             Coordinates (Angstroms)
 Number     Number       Type             X           Y           Z
 ---------------------------------------------------------------------
      1          6           0        0.670235    0.021446   -0.010307
      2          8           0       -0.746182   -0.138898    0.007281
      3          1           0        0.993065    0.571775    0.873338
      4          1           0        1.027891    0.496569   -0.846744
      5          1           0        1.074827   -0.941314    0.027711
      6          1           0       -1.147737    0.855478   -0.050713
 ---------------------------------------------------------------------

 SCF Done:  E(RB2PLYPD3) =  -115.536983519     A.U. after   11 cycles
 E2(B2PLYPD3) =    -0.1491241831D+00 E(B2PLYPD3) =    -0.11568610770242D+03

 The electronic state is 1-A.
 Alpha  occ. eigenvalues --  -19.73338 -10.64220  -1.14029  -0.78811  -0.57348
 Alpha  occ. eigenvalues --   -0.52120  -0.49577  -0.41189  -0.35168
 Alpha virt. eigenvalues --    0.04070   0.07981   0.12511   0.12598   0.14868
 Alpha virt. eigenvalues --    0.17363   0.18148   0.29060   0.31016   0.33213
 Alpha virt. eigenvalues --    0.34013   0.39158   0.40040   0.41728   0.44387

 Mulliken charges:
               1
     1  C    0.080431
     2  O   -0.486115
     3  H    0.043374
     4  H    0.048070
     5  H    0.068375
     6  H    0.245865
 Sum of Mulliken charges =   0.00000

 Dipole moment (field-independent basis, Debye):
    X=              0.9478    Y=              1.5961    Z=             -0.1455  Tot=              1.8620
 Quadrupole moment (field-independent basis, Debye-Ang):
   XX=            -13.0780   YY=            -11.9706   ZZ=            -13.8113
   XY=             -2.3490   XZ=              0.0239   YZ=             -0.1193

 Normal termination of Gaussian 09 at Wed Aug 26 12:31:55 2020.
