 Gaussian 09, Revision D.01,
 Gaussian 09:  ES64L-G09RevD.01 24-Apr-2013

 --------------------
 #p B2PLYPD3/Def2QZVP
 --------------------

 --------
 methanol
 --------
 Symbolic Z-matrix:
 Charge =  0 Multiplicity = 1

                         Standard orientation:
 ---------------------------------------------------------------------
 Center     Atomic      Atomic             Coordinates (Angstroms)
 Number     Number       Type             X           Y           Z
 ---------------------------------------------------------------------
      1          6           0       -0.677398   -0.010974    0.001193
      2          8           0        0.738507   -0.033793   -0.060581
      3          1           0       -1.044902    1.183412   -0.081594
      4          1           0       -1.026728   -0.528240    0.978498
      5          1           0       -0.939878   -0.579659   -0.840702
      6          1           0        1.167843    0.260677    0.421291
 ---------------------------------------------------------------------

 SCF Done:  E(RB2PLYPD3) =  -115.421595699     A.U. after   11 cycles
 E2(B2PLYPD3) =    -0.1440372997D+00 E(B2PLYPD3) =    -0.11556563299890D+03

 The electronic state is 1-A.
 Alpha  occ. eigenvalues --  -19.69233 -10.68382  -1.22863  -0.82561  -0.60538
 Alpha  occ. eigenvalues --   -0.51908  -0.50657  -0.40085  -0.35364
 Alpha virt. eigenvalues --    0.05335   0.09184   0.11380   0.12433   0.14181
 Alpha virt. eigenvalues --    0.16434   0.17872   0.28858   0.31750   0.32752
 Alpha virt. eigenvalues --    0.35441   0.38277   0.40068   0.41453   0.43299

 Mulliken charges:
               1
     1  C    0.051768
     2  O   -0.257157
     3  H    0.038782
     4  H    0.052031
     5  H    0.098328
     6  H    0.016249
 Sum of Mulliken charges =   0.00000

 Dipole moment (field-independent basis, Debye):
    X=             -0.7485    Y=              0.4542    Z=              0.9516  Tot=              1.2931
 Quadrupole moment (field-independent basis, Debye-Ang):
   XX=            -12.9560   YY=            -13.2079   ZZ=            -12.8821
   XY=              1.1524   XZ=              1.6262   YZ=              0.3919

 Normal termination of Gaussian 09 at Wed Aug 26 23:47:33 2020.
