 Gaussian 09, Revision D.01,
 Gaussian 09:  ES64L-G09RevD.01 24-Apr-2013

 --------------------
 #p B2PLYPD3/Def2QZVP
 --------------------

 --------
 methanol
 --------
 Symbolic Z-matrix:
 Charge =  0 Multiplicity = 1

                         Standard orientation:
 ---------------------------------------------------------------------
 Center     Atomic      Atomic             Coordinates (Angstroms)
 Number     Number       Type             X           Y           Z
 ---------------------------------------------------------------------
      1          6           0        0.675125    0.024477    0.010133
      2          8           0       -0.736208   -0.151516   -0.019489
      3          1           0        0.970384    0.354744    0.903448
      4          1           0        1.039240    0.697268   -0.763944
      5          1           0        1.068760   -0.885514   -0.127204
      6          1           0       -1.239471    0.898764    0.082813
 ---------------------------------------------------------------------

 SCF Done:  E(RB2PLYPD3) =  -115.510812326     A.U. after   11 cycles
 E2(B2PLYPD3) =    -0.1505846832D+00 E(B2PLYPD3) =    -0.11566139700890D+03

 The electronic state is 1-A.
 Alpha  occ. eigenvalues --  -19.73695 -10.63224  -1.12781  -0.79143  -0.56284
 Alpha  occ. eigenvalues --   -0.52385  -0.49805  -0.40408  -0.34979
 Alpha virt. eigenvalues --    0.02938   0.07765   0.12597   0.12878   0.14877
 Alpha virt. eigenvalues --    0.17209   0.18284   0.27470   0.29580   0.33406
 Alpha virt. eigenvalues --    0.34075   0.38851   0.40611   0.42099   0.44227

 Mulliken charges:
               1
     1  C    0.086805
     2  O   -0.500926
     3  H    0.050615
     4  H    0.040728
     5  H    0.069240
     6  H    0.253538
 Sum of Mulliken charges =   0.00000

 Dipole moment (field-independent basis, Debye):
    X=              0.8719    Y=              1.6038    Z=              0.2280  Tot=              1.8397
 Quadrupole moment (field-independent basis, Debye-Ang):
   XX=            -12.7227   YY=            -11.9486   ZZ=            -13.8209
   XY=             -2.5400   XZ=             -0.2084   YZ=              0.1447

 Normal termination of Gaussian 09 at Wed Aug 26 11:25:56 2020.
