 Gaussian 09, Revision D.01,
 Gaussian 09:  ES64L-G09RevD.01 24-Apr-2013

 --------------------
 #p B2PLYPD3/Def2QZVP
 --------------------

 --------
 methanol
 --------
 Symbolic Z-matrix:
 Charge =  0 Multiplicity = 1

                         Standard orientation:
 ---------------------------------------------------------------------
 Center     Atomic      Atomic             Coordinates (Angstroms)
 Number     Number       Type             X           Y           Z
 ---------------------------------------------------------------------
      1          6           0        0.674497   -0.035892    0.015175
      2          8           0       -0.757573   -0.036333   -0.063078
      3          1           0        1.055928   -0.322593    1.053320
      4          1           0        1.086543    1.207502   -0.225288
      5          1           0        1.111166   -0.644841   -0.776235
      6          1           0       -1.240039    0.265948    0.361780
 ---------------------------------------------------------------------

 SCF Done:  E(RB2PLYPD3) =  -115.409375421     A.U. after   11 cycles
 E2(B2PLYPD3) =    -0.1449623709D+00 E(B2PLYPD3) =    -0.11555433779183D+03

 The electronic state is 1-A.
 Alpha  occ. eigenvalues --  -19.69717 -10.70058  -1.22405  -0.82207  -0.61542
 Alpha  occ. eigenvalues --   -0.52090  -0.48952  -0.39759  -0.34818
 Alpha virt. eigenvalues --    0.05093   0.08799   0.10986   0.12235   0.14171
 Alpha virt. eigenvalues --    0.16938   0.17854   0.28854   0.30238   0.32058
 Alpha virt. eigenvalues --    0.34691   0.38122   0.38489   0.41392   0.41783

 Mulliken charges:
               1
     1  C    0.060453
     2  O   -0.267306
     3  H    0.059913
     4  H    0.020828
     5  H    0.103027
     6  H    0.023086
 Sum of Mulliken charges =   0.00000

 Dipole moment (field-independent basis, Debye):
    X=              0.7285    Y=              0.3432    Z=              0.9396  Tot=              1.2374
 Quadrupole moment (field-independent basis, Debye-Ang):
   XX=            -12.4290   YY=            -13.6783   ZZ=            -13.0450
   XY=             -1.4980   XZ=             -1.5494   YZ=              0.4146

 Normal termination of Gaussian 09 at Wed Aug 26 22:38:13 2020.
