 Gaussian 09, Revision D.01,
 Gaussian 09:  ES64L-G09RevD.01 24-Apr-2013

 --------------------
 #p B2PLYPD3/Def2QZVP
 --------------------

 --------
 methanol
 --------
 Symbolic Z-matrix:
 Charge =  0 Multiplicity = 1

                         Standard orientation:
 ---------------------------------------------------------------------
 Center     Atomic      Atomic             Coordinates (Angstroms)
 Number     Number       Type             X           Y           Z
 ---------------------------------------------------------------------
      1          6           0       -0.666299   -0.022318    0.011551
      2          8           0        0.754619    0.112439   -0.010027
      3          1           0       -1.024132   -0.472412    0.909696
      4          1           0       -1.055335   -0.627609   -0.864921
      5          1           0       -1.098834    1.025530   -0.073351
      6          1           0        1.139143   -0.691112    0.039487
 ---------------------------------------------------------------------

 SCF Done:  E(RB2PLYPD3) =  -115.546020553     A.U. after   10 cycles
 E2(B2PLYPD3) =    -0.1464237429D+00 E(B2PLYPD3) =    -0.11569244429543D+03

 The electronic state is 1-A.
 Alpha  occ. eigenvalues --  -19.72023 -10.66522  -1.17490  -0.78982  -0.59711
 Alpha  occ. eigenvalues --   -0.51560  -0.49466  -0.41047  -0.35653
 Alpha virt. eigenvalues --    0.05222   0.08386   0.12142   0.12338   0.14857
 Alpha virt. eigenvalues --    0.17234   0.18035   0.29077   0.33066   0.33319
 Alpha virt. eigenvalues --    0.36725   0.38072   0.39289   0.40919   0.43196

 Mulliken charges:
               1
     1  C    0.067192
     2  O   -0.430682
     3  H    0.056032
     4  H    0.044856
     5  H    0.069011
     6  H    0.193591
 Sum of Mulliken charges =   0.00000

 Dipole moment (field-independent basis, Debye):
    X=             -0.8843    Y=             -1.4603    Z=              0.1503  Tot=              1.7138
 Quadrupole moment (field-independent basis, Debye-Ang):
   XX=            -12.9703   YY=            -12.3489   ZZ=            -13.7865
   XY=             -2.1534   XZ=              0.0815   YZ=             -0.1147

 Normal termination of Gaussian 09 at Wed Aug 26 23:58:38 2020.
