 Gaussian 09, Revision D.01,
 Gaussian 09:  ES64L-G09RevD.01 24-Apr-2013

 --------------------
 #p B2PLYPD3/Def2QZVP
 --------------------

 --------
 methanol
 --------
 Symbolic Z-matrix:
 Charge =  0 Multiplicity = 1

                         Standard orientation:
 ---------------------------------------------------------------------
 Center     Atomic      Atomic             Coordinates (Angstroms)
 Number     Number       Type             X           Y           Z
 ---------------------------------------------------------------------
      1          6           0       -0.671345   -0.017476   -0.003295
      2          8           0        0.757375    0.114099   -0.000528
      3          1           0       -1.076457   -0.500523    0.921412
      4          1           0       -1.022778   -0.603282   -0.876195
      5          1           0       -1.105099    0.993947   -0.048513
      6          1           0        1.173403   -0.698076    0.027288
 ---------------------------------------------------------------------

 SCF Done:  E(RB2PLYPD3) =  -115.549874877     A.U. after   10 cycles
 E2(B2PLYPD3) =    -0.1467955389D+00 E(B2PLYPD3) =    -0.11569667041637D+03

 The electronic state is 1-A.
 Alpha  occ. eigenvalues --  -19.72162 -10.66523  -1.16599  -0.78924  -0.59104
 Alpha  occ. eigenvalues --   -0.51149  -0.49824  -0.40935  -0.35499
 Alpha virt. eigenvalues --    0.05198   0.08202   0.12286   0.12375   0.14764
 Alpha virt. eigenvalues --    0.17242   0.18096   0.29090   0.32808   0.33371
 Alpha virt. eigenvalues --    0.36123   0.38841   0.39536   0.40082   0.43171

 Mulliken charges:
               1
     1  C    0.068530
     2  O   -0.447364
     3  H    0.048548
     4  H    0.049573
     5  H    0.074604
     6  H    0.206108
 Sum of Mulliken charges =   0.00000

 Dipole moment (field-independent basis, Debye):
    X=             -0.8743    Y=             -1.4392    Z=              0.0370  Tot=              1.6844
 Quadrupole moment (field-independent basis, Debye-Ang):
   XX=            -12.7987   YY=            -12.3846   ZZ=            -13.8288
   XY=             -2.2675   XZ=              0.0450   YZ=             -0.0153

 Normal termination of Gaussian 09 at Thu Aug 27 00:02:31 2020.
