 Gaussian 09, Revision D.01,
 Gaussian 09:  ES64L-G09RevD.01 24-Apr-2013

 --------------------
 #p B2PLYPD3/Def2QZVP
 --------------------

 --------
 methanol
 --------
 Symbolic Z-matrix:
 Charge =  0 Multiplicity = 1

                         Standard orientation:
 ---------------------------------------------------------------------
 Center     Atomic      Atomic             Coordinates (Angstroms)
 Number     Number       Type             X           Y           Z
 ---------------------------------------------------------------------
      1          6           0       -0.665967   -0.021690    0.002195
      2          8           0        0.752060    0.109324   -0.009241
      3          1           0       -1.021951   -0.456875    0.960801
      4          1           0       -1.064612   -0.614260   -0.875081
      5          1           0       -1.088498    0.999780   -0.063959
      6          1           0        1.154381   -0.673094    0.038997
 ---------------------------------------------------------------------

 SCF Done:  E(RB2PLYPD3) =  -115.545447898     A.U. after   10 cycles
 E2(B2PLYPD3) =    -0.1462036127D+00 E(B2PLYPD3) =    -0.11569165151097D+03

 The electronic state is 1-A.
 Alpha  occ. eigenvalues --  -19.71850 -10.66679  -1.17754  -0.79111  -0.59550
 Alpha  occ. eigenvalues --   -0.51486  -0.49963  -0.40742  -0.35630
 Alpha virt. eigenvalues --    0.05299   0.08405   0.12159   0.12405   0.14671
 Alpha virt. eigenvalues --    0.17164   0.18203   0.28981   0.33113   0.33397
 Alpha virt. eigenvalues --    0.36698   0.38834   0.39592   0.40194   0.43184

 Mulliken charges:
               1
     1  C    0.063435
     2  O   -0.424996
     3  H    0.051740
     4  H    0.048856
     5  H    0.072591
     6  H    0.188374
 Sum of Mulliken charges =   0.00000

 Dipole moment (field-independent basis, Debye):
    X=             -0.8470    Y=             -1.3946    Z=              0.1058  Tot=              1.6351
 Quadrupole moment (field-independent basis, Debye-Ang):
   XX=            -12.8913   YY=            -12.4768   ZZ=            -13.7119
   XY=             -2.2123   XZ=              0.1496   YZ=             -0.0539

 Normal termination of Gaussian 09 at Wed Aug 26 10:20:41 2020.
