 Gaussian 09, Revision D.01,
 Gaussian 09:  ES64L-G09RevD.01 24-Apr-2013

 --------------------
 #p B2PLYPD3/Def2QZVP
 --------------------

 --------
 methanol
 --------
 Symbolic Z-matrix:
 Charge =  0 Multiplicity = 1

                         Standard orientation:
 ---------------------------------------------------------------------
 Center     Atomic      Atomic             Coordinates (Angstroms)
 Number     Number       Type             X           Y           Z
 ---------------------------------------------------------------------
      1          6           0        0.676932    0.026124   -0.008657
      2          8           0       -0.765163   -0.158208    0.014964
      3          1           0        1.085125    0.644873    0.777728
      4          1           0        1.127039    0.474327   -0.771233
      5          1           0        1.131984   -0.960969    0.023444
      6          1           0       -1.284437    0.950685   -0.097711
 ---------------------------------------------------------------------

 SCF Done:  E(RB2PLYPD3) =  -115.492996949     A.U. after   11 cycles
 E2(B2PLYPD3) =    -0.1530567005D+00 E(B2PLYPD3) =    -0.11564605364951D+03

 The electronic state is 1-A.
 Alpha  occ. eigenvalues --  -19.74967 -10.64410  -1.11499  -0.79233  -0.55681
 Alpha  occ. eigenvalues --   -0.50436  -0.48294  -0.40777  -0.35174
 Alpha virt. eigenvalues --    0.01885   0.07134   0.12181   0.13108   0.15009
 Alpha virt. eigenvalues --    0.17436   0.18405   0.25490   0.29335   0.32802
 Alpha virt. eigenvalues --    0.34150   0.37621   0.38803   0.40908   0.44275

 Mulliken charges:
               1
     1  C    0.083702
     2  O   -0.494542
     3  H    0.041660
     4  H    0.050578
     5  H    0.063250
     6  H    0.255352
 Sum of Mulliken charges =   0.00000

 Dipole moment (field-independent basis, Debye):
    X=              0.9030    Y=              1.7327    Z=             -0.2643  Tot=              1.9717
 Quadrupole moment (field-independent basis, Debye-Ang):
   XX=            -12.4143   YY=            -11.8433   ZZ=            -14.3398
   XY=             -2.4477   XZ=              0.0827   YZ=             -0.1523

 Normal termination of Gaussian 09 at Wed Aug 26 21:38:06 2020.
