 Gaussian 09, Revision D.01,
 Gaussian 09:  ES64L-G09RevD.01 24-Apr-2013

 --------------------
 #p B2PLYPD3/Def2QZVP
 --------------------

 --------
 methanol
 --------
 Symbolic Z-matrix:
 Charge =  0 Multiplicity = 1

                         Standard orientation:
 ---------------------------------------------------------------------
 Center     Atomic      Atomic             Coordinates (Angstroms)
 Number     Number       Type             X           Y           Z
 ---------------------------------------------------------------------
      1          6           0       -0.690364   -0.023630   -0.000437
      2          8           0        0.751104    0.110823   -0.008425
      3          1           0       -1.016993   -0.423533    0.938843
      4          1           0       -0.955960   -0.707837   -0.818238
      5          1           0       -1.082462    1.026198   -0.123960
      6          1           0        1.188765   -0.639632    0.073377
 ---------------------------------------------------------------------

 SCF Done:  E(RB2PLYPD3) =  -115.541661653     A.U. after   10 cycles
 E2(B2PLYPD3) =    -0.1460041280D+00 E(B2PLYPD3) =    -0.11568766578082D+03

 The electronic state is 1-A.
 Alpha  occ. eigenvalues --  -19.71006 -10.66382  -1.16798  -0.79592  -0.59281
 Alpha  occ. eigenvalues --   -0.52003  -0.49470  -0.40648  -0.35436
 Alpha virt. eigenvalues --    0.05336   0.08548   0.12070   0.12342   0.14680
 Alpha virt. eigenvalues --    0.16917   0.17671   0.29212   0.32037   0.33279
 Alpha virt. eigenvalues --    0.37594   0.38442   0.39672   0.40956   0.43324

 Mulliken charges:
               1
     1  C    0.077987
     2  O   -0.443279
     3  H    0.055931
     4  H    0.052578
     5  H    0.077541
     6  H    0.179243
 Sum of Mulliken charges =   0.00000

 Dipole moment (field-independent basis, Debye):
    X=             -0.9228    Y=             -1.4257    Z=              0.1788  Tot=              1.7076
 Quadrupole moment (field-independent basis, Debye-Ang):
   XX=            -12.8357   YY=            -12.3052   ZZ=            -13.6836
   XY=             -2.2011   XZ=              0.1424   YZ=             -0.0848

 Normal termination of Gaussian 09 at Wed Aug 26 13:51:54 2020.
