 Gaussian 09, Revision D.01,
 Gaussian 09:  ES64L-G09RevD.01 24-Apr-2013

 --------------------
 #p B2PLYPD3/Def2QZVP
 --------------------

 --------
 methanol
 --------
 Symbolic Z-matrix:
 Charge =  0 Multiplicity = 1

                         Standard orientation:
 ---------------------------------------------------------------------
 Center     Atomic      Atomic             Coordinates (Angstroms)
 Number     Number       Type             X           Y           Z
 ---------------------------------------------------------------------
      1          6           0        0.660347    0.029614   -0.001937
      2          8           0       -0.750167   -0.147485   -0.000643
      3          1           0        1.046244    0.478715    0.877674
      4          1           0        0.971872    0.611694   -0.824925
      5          1           0        1.205840   -0.921249   -0.064988
      6          1           0       -1.184704    0.833034    0.029004
 ---------------------------------------------------------------------

 SCF Done:  E(RB2PLYPD3) =  -115.537958825     A.U. after   11 cycles
 E2(B2PLYPD3) =    -0.1491799906D+00 E(B2PLYPD3) =    -0.11568713881591D+03

 The electronic state is 1-A.
 Alpha  occ. eigenvalues --  -19.73588 -10.64818  -1.14202  -0.78516  -0.57054
 Alpha  occ. eigenvalues --   -0.52143  -0.49690  -0.40438  -0.35310
 Alpha virt. eigenvalues --    0.04046   0.07677   0.12573   0.12700   0.14669
 Alpha virt. eigenvalues --    0.17947   0.18243   0.29071   0.30614   0.33278
 Alpha virt. eigenvalues --    0.33687   0.39131   0.40062   0.41646   0.43440

 Mulliken charges:
               1
     1  C    0.078782
     2  O   -0.484318
     3  H    0.046675
     4  H    0.045592
     5  H    0.062175
     6  H    0.251094
 Sum of Mulliken charges =   0.00000

 Dipole moment (field-independent basis, Debye):
    X=              0.8712    Y=              1.6425    Z=              0.0439  Tot=              1.8598
 Quadrupole moment (field-independent basis, Debye-Ang):
   XX=            -12.7541   YY=            -12.2158   ZZ=            -13.9135
   XY=             -2.4717   XZ=             -0.0221   YZ=              0.0113

 Normal termination of Gaussian 09 at Wed Aug 26 14:26:53 2020.
