 Gaussian 09, Revision D.01,
 Gaussian 09:  ES64L-G09RevD.01 24-Apr-2013

 --------------------
 #p B2PLYPD3/Def2QZVP
 --------------------

 --------
 methanol
 --------
 Symbolic Z-matrix:
 Charge =  0 Multiplicity = 1

                         Standard orientation:
 ---------------------------------------------------------------------
 Center     Atomic      Atomic             Coordinates (Angstroms)
 Number     Number       Type             X           Y           Z
 ---------------------------------------------------------------------
      1          6           0       -0.647346    0.010183    0.016650
      2          8           0        0.731126   -0.153280   -0.015336
      3          1           0       -1.046433    0.611987   -0.836298
      4          1           0       -0.987508    0.488111    0.837708
      5          1           0       -1.114207   -0.862507   -0.035339
      6          1           0        1.183218    0.927548    0.056714
 ---------------------------------------------------------------------

 SCF Done:  E(RB2PLYPD3) =  -115.507957735     A.U. after   11 cycles
 E2(B2PLYPD3) =    -0.1504289947D+00 E(B2PLYPD3) =    -0.11565838672923D+03

 The electronic state is 1-A.
 Alpha  occ. eigenvalues --  -19.74180 -10.63304  -1.14224  -0.78941  -0.56974
 Alpha  occ. eigenvalues --   -0.51620  -0.50960  -0.40616  -0.34632
 Alpha virt. eigenvalues --    0.02596   0.07737   0.12744   0.12898   0.15024
 Alpha virt. eigenvalues --    0.17849   0.18211   0.26938   0.29650   0.33117
 Alpha virt. eigenvalues --    0.35199   0.38859   0.41101   0.41420   0.44119

 Mulliken charges:
               1
     1  C    0.086692
     2  O   -0.480434
     3  H    0.027940
     4  H    0.039837
     5  H    0.066926
     6  H    0.259039
 Sum of Mulliken charges =   0.00000

 Dipole moment (field-independent basis, Debye):
    X=             -0.7936    Y=              1.6173    Z=              0.2171  Tot=              1.8146
 Quadrupole moment (field-independent basis, Debye-Ang):
   XX=            -12.8717   YY=            -11.8819   ZZ=            -13.9970
   XY=              2.5650   XZ=              0.0644   YZ=              0.1797

 Normal termination of Gaussian 09 at Wed Aug 26 14:15:20 2020.
