 Gaussian 09, Revision D.01,
 Gaussian 09:  ES64L-G09RevD.01 24-Apr-2013

 --------------------
 #p B2PLYPD3/Def2QZVP
 --------------------

 --------
 methanol
 --------
 Symbolic Z-matrix:
 Charge =  0 Multiplicity = 1

                         Standard orientation:
 ---------------------------------------------------------------------
 Center     Atomic      Atomic             Coordinates (Angstroms)
 Number     Number       Type             X           Y           Z
 ---------------------------------------------------------------------
      1          6           0        0.659399   -0.022145   -0.016538
      2          8           0       -0.754025    0.102160    0.000094
      3          1           0        1.031442   -0.665677   -0.828597
      4          1           0        1.158027   -0.378921    0.981252
      5          1           0        1.026830    1.033564   -0.128017
      6          1           0       -1.140495   -0.673371    0.073840
 ---------------------------------------------------------------------

 SCF Done:  E(RB2PLYPD3) =  -115.539080371     A.U. after   10 cycles
 E2(B2PLYPD3) =    -0.1463577045D+00 E(B2PLYPD3) =    -0.11568543807528D+03

 The electronic state is 1-A.
 Alpha  occ. eigenvalues --  -19.72093 -10.67120  -1.18465  -0.78981  -0.60138
 Alpha  occ. eigenvalues --   -0.51266  -0.49411  -0.41029  -0.35602
 Alpha virt. eigenvalues --    0.05287   0.08307   0.12087   0.12245   0.14976
 Alpha virt. eigenvalues --    0.16887   0.18393   0.28864   0.32993   0.33599
 Alpha virt. eigenvalues --    0.36681   0.38344   0.39439   0.39915   0.42503

 Mulliken charges:
               1
     1  C    0.055337
     2  O   -0.405593
     3  H    0.054970
     4  H    0.043052
     5  H    0.071307
     6  H    0.180928
 Sum of Mulliken charges =   0.00000

 Dipole moment (field-independent basis, Debye):
    X=              0.8001    Y=             -1.3891    Z=              0.0561  Tot=              1.6041
 Quadrupole moment (field-independent basis, Debye-Ang):
   XX=            -12.9602   YY=            -12.4214   ZZ=            -13.8556
   XY=              2.0812   XZ=             -0.1841   YZ=              0.0093

 Normal termination of Gaussian 09 at Wed Aug 26 14:51:31 2020.
