 Gaussian 09, Revision D.01,
 Gaussian 09:  ES64L-G09RevD.01 24-Apr-2013

 --------------------
 #p B2PLYPD3/Def2QZVP
 --------------------

 --------
 methanol
 --------
 Symbolic Z-matrix:
 Charge =  0 Multiplicity = 1

                         Standard orientation:
 ---------------------------------------------------------------------
 Center     Atomic      Atomic             Coordinates (Angstroms)
 Number     Number       Type             X           Y           Z
 ---------------------------------------------------------------------
      1          6           0        0.618662   -0.003761   -0.000911
      2          8           0       -0.742116   -0.027873   -0.076361
      3          1           0        1.077584   -0.640085    0.900192
      4          1           0        1.031341    1.195151    0.049228
      5          1           0        1.103898   -0.478133   -0.860421
      6          1           0       -0.987863    0.168619    0.527352
 ---------------------------------------------------------------------

 SCF Done:  E(RB2PLYPD3) =  -115.382050843     A.U. after   11 cycles
 E2(B2PLYPD3) =    -0.1438302193D+00 E(B2PLYPD3) =    -0.11552588106231D+03

 The electronic state is 1-A.
 Alpha  occ. eigenvalues --  -19.70790 -10.68735  -1.27879  -0.81487  -0.62608
 Alpha  occ. eigenvalues --   -0.52779  -0.51342  -0.41008  -0.35516
 Alpha virt. eigenvalues --    0.05239   0.09137   0.11291   0.12389   0.14400
 Alpha virt. eigenvalues --    0.17502   0.18053   0.27840   0.31783   0.34203
 Alpha virt. eigenvalues --    0.35326   0.37340   0.40298   0.41152   0.43712

 Mulliken charges:
               1
     1  C    0.036405
     2  O   -0.198017
     3  H    0.034940
     4  H    0.025260
     5  H    0.082750
     6  H    0.018663
 Sum of Mulliken charges =   0.00000

 Dipole moment (field-independent basis, Debye):
    X=              0.7697    Y=              0.1914    Z=              1.0546  Tot=              1.3195
 Quadrupole moment (field-independent basis, Debye-Ang):
   XX=            -13.4384   YY=            -13.5225   ZZ=            -12.8610
   XY=             -0.8914   XZ=             -1.8226   YZ=              0.3117

 Normal termination of Gaussian 09 at Wed Aug 26 23:07:31 2020.
