 Gaussian 09, Revision D.01,
 Gaussian 09:  ES64L-G09RevD.01 24-Apr-2013

 --------------------
 #p B2PLYPD3/Def2QZVP
 --------------------

 --------
 methanol
 --------
 Symbolic Z-matrix:
 Charge =  0 Multiplicity = 1

                         Standard orientation:
 ---------------------------------------------------------------------
 Center     Atomic      Atomic             Coordinates (Angstroms)
 Number     Number       Type             X           Y           Z
 ---------------------------------------------------------------------
      1          6           0       -0.665506   -0.019895    0.005023
      2          8           0        0.746015    0.100606   -0.008298
      3          1           0       -1.023492   -0.488321    0.936649
      4          1           0       -1.024592   -0.643352   -0.877721
      5          1           0       -1.089311    1.047003   -0.068970
      6          1           0        1.162309   -0.600810    0.046284
 ---------------------------------------------------------------------

 SCF Done:  E(RB2PLYPD3) =  -115.523692270     A.U. after   10 cycles
 E2(B2PLYPD3) =    -0.1451469393D+00 E(B2PLYPD3) =    -0.11566883920953D+03

 The electronic state is 1-A.
 Alpha  occ. eigenvalues --  -19.70963 -10.67253  -1.19564  -0.79848  -0.60667
 Alpha  occ. eigenvalues --   -0.51514  -0.49925  -0.40528  -0.35603
 Alpha virt. eigenvalues --    0.05387   0.08732   0.12069   0.12227   0.14772
 Alpha virt. eigenvalues --    0.17028   0.17835   0.29060   0.33048   0.33334
 Alpha virt. eigenvalues --    0.37157   0.38724   0.39640   0.40234   0.42559

 Mulliken charges:
               1
     1  C    0.064043
     2  O   -0.375923
     3  H    0.052801
     4  H    0.047030
     5  H    0.074324
     6  H    0.137725
 Sum of Mulliken charges =   0.00000

 Dipole moment (field-independent basis, Debye):
    X=             -0.7984    Y=             -1.3499    Z=              0.1411  Tot=              1.5747
 Quadrupole moment (field-independent basis, Debye-Ang):
   XX=            -12.8504   YY=            -12.4851   ZZ=            -13.7217
   XY=             -2.1013   XZ=              0.1122   YZ=             -0.0861

 Normal termination of Gaussian 09 at Wed Aug 26 10:27:26 2020.
