 Gaussian 09, Revision D.01,
 Gaussian 09:  ES64L-G09RevD.01 24-Apr-2013

 --------------------
 #p B2PLYPD3/Def2QZVP
 --------------------

 --------
 methanol
 --------
 Symbolic Z-matrix:
 Charge =  0 Multiplicity = 1

                         Standard orientation:
 ---------------------------------------------------------------------
 Center     Atomic      Atomic             Coordinates (Angstroms)
 Number     Number       Type             X           Y           Z
 ---------------------------------------------------------------------
      1          6           0        0.656253    0.034636    0.016454
      2          8           0       -0.738714   -0.144416   -0.010761
      3          1           0        0.984665    0.474468    0.880308
      4          1           0        1.081770    0.551256   -0.867534
      5          1           0        1.120273   -0.920149   -0.037513
      6          1           0       -1.214511    0.841940    0.012098
 ---------------------------------------------------------------------

 SCF Done:  E(RB2PLYPD3) =  -115.532673128     A.U. after   11 cycles
 E2(B2PLYPD3) =    -0.1493751941D+00 E(B2PLYPD3) =    -0.11568204832226D+03

 The electronic state is 1-A.
 Alpha  occ. eigenvalues --  -19.73668 -10.64411  -1.14316  -0.78526  -0.57057
 Alpha  occ. eigenvalues --   -0.52395  -0.49828  -0.40077  -0.35268
 Alpha virt. eigenvalues --    0.03851   0.07716   0.12539   0.12787   0.14837
 Alpha virt. eigenvalues --    0.17445   0.18599   0.28735   0.30218   0.33499
 Alpha virt. eigenvalues --    0.34532   0.38733   0.40106   0.41827   0.43868

 Mulliken charges:
               1
     1  C    0.072295
     2  O   -0.482695
     3  H    0.052607
     4  H    0.042096
     5  H    0.062249
     6  H    0.253449
 Sum of Mulliken charges =   0.00000

 Dipole moment (field-independent basis, Debye):
    X=              0.7717    Y=              1.5815    Z=              0.1074  Tot=              1.7630
 Quadrupole moment (field-independent basis, Debye-Ang):
   XX=            -12.6866   YY=            -12.2798   ZZ=            -13.8207
   XY=             -2.4987   XZ=             -0.0537   YZ=              0.1028

 Normal termination of Gaussian 09 at Wed Aug 26 15:47:23 2020.
