 Gaussian 09, Revision D.01,
 Gaussian 09:  ES64L-G09RevD.01 24-Apr-2013

 --------------------
 #p B2PLYPD3/Def2QZVP
 --------------------

 --------
 methanol
 --------
 Symbolic Z-matrix:
 Charge =  0 Multiplicity = 1

                         Standard orientation:
 ---------------------------------------------------------------------
 Center     Atomic      Atomic             Coordinates (Angstroms)
 Number     Number       Type             X           Y           Z
 ---------------------------------------------------------------------
      1          6           0        0.652822    0.019480   -0.012700
      2          8           0       -0.739319   -0.136829    0.007921
      3          1           0        1.062097    0.565170    0.870499
      4          1           0        1.004316    0.523459   -0.862917
      5          1           0        1.111333   -0.934954    0.019588
      6          1           0       -1.180130    0.824079   -0.014331
 ---------------------------------------------------------------------

 SCF Done:  E(RB2PLYPD3) =  -115.541400053     A.U. after   11 cycles
 E2(B2PLYPD3) =    -0.1486423427D+00 E(B2PLYPD3) =    -0.11569004239585D+03

 The electronic state is 1-A.
 Alpha  occ. eigenvalues --  -19.73463 -10.64769  -1.15095  -0.78418  -0.57906
 Alpha  occ. eigenvalues --   -0.51690  -0.50273  -0.40670  -0.35027
 Alpha virt. eigenvalues --    0.04176   0.07869   0.12580   0.12674   0.14983
 Alpha virt. eigenvalues --    0.17523   0.18259   0.29092   0.31310   0.33310
 Alpha virt. eigenvalues --    0.34641   0.39004   0.40037   0.41232   0.43992

 Mulliken charges:
               1
     1  C    0.073458
     2  O   -0.473898
     3  H    0.036685
     4  H    0.046411
     5  H    0.068018
     6  H    0.249324
 Sum of Mulliken charges =   0.00000

 Dipole moment (field-independent basis, Debye):
    X=              0.7716    Y=              1.5636    Z=             -0.0995  Tot=              1.7465
 Quadrupole moment (field-independent basis, Debye-Ang):
   XX=            -12.8319   YY=            -12.1647   ZZ=            -13.9303
   XY=             -2.4330   XZ=              0.0217   YZ=             -0.0961

 Normal termination of Gaussian 09 at Wed Aug 26 10:36:05 2020.
