 Gaussian 09, Revision D.01,
 Gaussian 09:  ES64L-G09RevD.01 24-Apr-2013

 --------------------
 #p B2PLYPD3/Def2QZVP
 --------------------

 --------
 methanol
 --------
 Symbolic Z-matrix:
 Charge =  0 Multiplicity = 1

                         Standard orientation:
 ---------------------------------------------------------------------
 Center     Atomic      Atomic             Coordinates (Angstroms)
 Number     Number       Type             X           Y           Z
 ---------------------------------------------------------------------
      1          6           0        0.654926   -0.025002   -0.024932
      2          8           0       -0.731417   -0.026405    0.048971
      3          1           0        0.963547    1.292589    0.024637
      4          1           0        1.009617   -0.569518   -0.920498
      5          1           0        1.030414   -0.529375    0.945589
      6          1           0       -1.081797    0.167555   -0.291905
 ---------------------------------------------------------------------

 SCF Done:  E(RB2PLYPD3) =  -114.903642771     A.U. after   11 cycles
 E2(B2PLYPD3) =    -0.1430205436D+00 E(B2PLYPD3) =    -0.11504666331457D+03

 The electronic state is 1-A.
 Alpha  occ. eigenvalues --  -19.68363 -10.70338  -1.32521  -0.86439  -0.62798
 Alpha  occ. eigenvalues --   -0.52264  -0.51146  -0.39846  -0.35433
 Alpha virt. eigenvalues --    0.04806   0.09907   0.10476   0.11957   0.13925
 Alpha virt. eigenvalues --    0.16557   0.17676   0.27915   0.30106   0.33288
 Alpha virt. eigenvalues --    0.34784   0.37225   0.39740   0.41498   0.42580

 Mulliken charges:
               1
     1  C    0.047488
     2  O   -0.049694
     3  H    0.020957
     4  H    0.069029
     5  H    0.092024
     6  H   -0.179806
 Sum of Mulliken charges =   0.00000

 Dipole moment (field-independent basis, Debye):
    X=              0.7434    Y=              0.1603    Z=             -0.8707  Tot=              1.1561
 Quadrupole moment (field-independent basis, Debye-Ang):
   XX=            -13.1341   YY=            -13.2562   ZZ=            -12.8001
   XY=             -1.2688   XZ=              1.3868   YZ=             -0.1408

 Normal termination of Gaussian 09 at Wed Aug 26 21:22:00 2020.
