 Gaussian 09, Revision D.01,
 Gaussian 09:  ES64L-G09RevD.01 24-Apr-2013

 --------------------
 #p B2PLYPD3/Def2QZVP
 --------------------

 --------
 methanol
 --------
 Symbolic Z-matrix:
 Charge =  0 Multiplicity = 1

                         Standard orientation:
 ---------------------------------------------------------------------
 Center     Atomic      Atomic             Coordinates (Angstroms)
 Number     Number       Type             X           Y           Z
 ---------------------------------------------------------------------
      1          6           0        0.680443   -0.007911    0.012978
      2          8           0       -0.759505    0.091214   -0.023512
      3          1           0        1.074868   -0.805123   -0.779383
      4          1           0        1.001614   -0.334827    0.986260
      5          1           0        1.066633    1.043834   -0.206229
      6          1           0       -1.149733   -0.586135    0.109584
 ---------------------------------------------------------------------

 SCF Done:  E(RB2PLYPD3) =  -115.506713304     A.U. after   10 cycles
 E2(B2PLYPD3) =    -0.1452391069D+00 E(B2PLYPD3) =    -0.11565195241049D+03

 The electronic state is 1-A.
 Alpha  occ. eigenvalues --  -19.70628 -10.67734  -1.19655  -0.80043  -0.60507
 Alpha  occ. eigenvalues --   -0.50882  -0.49751  -0.41043  -0.35675
 Alpha virt. eigenvalues --    0.05348   0.08744   0.11815   0.12153   0.14727
 Alpha virt. eigenvalues --    0.16869   0.17721   0.29028   0.32032   0.32882
 Alpha virt. eigenvalues --    0.36932   0.37883   0.39665   0.40601   0.42367

 Mulliken charges:
               1
     1  C    0.065877
     2  O   -0.361108
     3  H    0.041567
     4  H    0.060420
     5  H    0.081427
     6  H    0.111818
 Sum of Mulliken charges =   0.00000

 Dipole moment (field-independent basis, Debye):
    X=              0.9296    Y=             -1.2739    Z=              0.3644  Tot=              1.6185
 Quadrupole moment (field-independent basis, Debye-Ang):
   XX=            -12.9544   YY=            -12.4077   ZZ=            -13.7102
   XY=              2.0425   XZ=             -0.3146   YZ=             -0.2395

 Normal termination of Gaussian 09 at Wed Aug 26 15:34:23 2020.
