 Gaussian 09, Revision D.01,
 Gaussian 09:  ES64L-G09RevD.01 24-Apr-2013

 --------------------
 #p B2PLYPD3/Def2QZVP
 --------------------

 --------
 methanol
 --------
 Symbolic Z-matrix:
 Charge =  0 Multiplicity = 1

                         Standard orientation:
 ---------------------------------------------------------------------
 Center     Atomic      Atomic             Coordinates (Angstroms)
 Number     Number       Type             X           Y           Z
 ---------------------------------------------------------------------
      1          6           0        0.662782    0.023930    0.000255
      2          8           0       -0.740241   -0.143320   -0.004302
      3          1           0        1.048134    0.450431    0.868632
      4          1           0        0.974957    0.614436   -0.823127
      5          1           0        1.077724   -0.934294   -0.066720
      6          1           0       -1.155582    0.872410    0.054097
 ---------------------------------------------------------------------

 SCF Done:  E(RB2PLYPD3) =  -115.533035163     A.U. after   11 cycles
 E2(B2PLYPD3) =    -0.1493854024D+00 E(B2PLYPD3) =    -0.11568242056575D+03

 The electronic state is 1-A.
 Alpha  occ. eigenvalues --  -19.73548 -10.63921  -1.14134  -0.78709  -0.57252
 Alpha  occ. eigenvalues --   -0.52380  -0.49634  -0.40951  -0.35130
 Alpha virt. eigenvalues --    0.03772   0.07934   0.12568   0.12680   0.14968
 Alpha virt. eigenvalues --    0.17381   0.18207   0.28886   0.30277   0.33313
 Alpha virt. eigenvalues --    0.34453   0.39272   0.39931   0.42171   0.44143

 Mulliken charges:
               1
     1  C    0.081166
     2  O   -0.484285
     3  H    0.045095
     4  H    0.042824
     5  H    0.066196
     6  H    0.249003
 Sum of Mulliken charges =   0.00000

 Dipole moment (field-independent basis, Debye):
    X=              0.9034    Y=              1.6207    Z=              0.1081  Tot=              1.8586
 Quadrupole moment (field-independent basis, Debye-Ang):
   XX=            -13.0341   YY=            -11.9387   ZZ=            -13.8540
   XY=             -2.3665   XZ=             -0.0462   YZ=              0.0652

 Normal termination of Gaussian 09 at Wed Aug 26 23:00:04 2020.
