 Gaussian 09, Revision D.01,
 Gaussian 09:  ES64L-G09RevD.01 24-Apr-2013

 --------------------
 #p B2PLYPD3/Def2QZVP
 --------------------

 --------
 methanol
 --------
 Symbolic Z-matrix:
 Charge =  0 Multiplicity = 1

                         Standard orientation:
 ---------------------------------------------------------------------
 Center     Atomic      Atomic             Coordinates (Angstroms)
 Number     Number       Type             X           Y           Z
 ---------------------------------------------------------------------
      1          6           0        0.642658    0.017131    0.000036
      2          8           0       -0.766366   -0.155175    0.002160
      3          1           0        0.993837    0.589076    0.819211
      4          1           0        1.176076    0.416603   -0.811774
      5          1           0        1.130341   -0.907645    0.059421
      6          1           0       -1.025272    1.040581   -0.084355
 ---------------------------------------------------------------------

 SCF Done:  E(RB2PLYPD3) =  -115.494916367     A.U. after   11 cycles
 E2(B2PLYPD3) =    -0.1531062276D+00 E(B2PLYPD3) =    -0.11564802259488D+03

 The electronic state is 1-A.
 Alpha  occ. eigenvalues --  -19.75428 -10.64100  -1.13386  -0.78851  -0.55607
 Alpha  occ. eigenvalues --   -0.51873  -0.49303  -0.40630  -0.35424
 Alpha virt. eigenvalues --    0.01681   0.07365   0.12494   0.12673   0.14753
 Alpha virt. eigenvalues --    0.18038   0.18729   0.25115   0.29370   0.32898
 Alpha virt. eigenvalues --    0.34627   0.37947   0.39786   0.41478   0.43322

 Mulliken charges:
               1
     1  C    0.083166
     2  O   -0.469314
     3  H    0.037854
     4  H    0.039009
     5  H    0.052986
     6  H    0.256300
 Sum of Mulliken charges =   0.00000

 Dipole moment (field-independent basis, Debye):
    X=              1.1306    Y=              1.7047    Z=             -0.1323  Tot=              2.0499
 Quadrupole moment (field-independent basis, Debye-Ang):
   XX=            -13.4945   YY=            -11.6505   ZZ=            -14.1446
   XY=             -2.1671   XZ=             -0.0050   YZ=             -0.0762

 Normal termination of Gaussian 09 at Wed Aug 26 22:10:46 2020.
