 Gaussian 09, Revision D.01,
 Gaussian 09:  ES64L-G09RevD.01 24-Apr-2013

 --------------------
 #p B2PLYPD3/Def2QZVP
 --------------------

 --------
 methanol
 --------
 Symbolic Z-matrix:
 Charge =  0 Multiplicity = 1

                         Standard orientation:
 ---------------------------------------------------------------------
 Center     Atomic      Atomic             Coordinates (Angstroms)
 Number     Number       Type             X           Y           Z
 ---------------------------------------------------------------------
      1          6           0       -0.685773    0.005622    0.006478
      2          8           0        0.755440   -0.152311   -0.013560
      3          1           0       -1.087564    0.542033   -0.841672
      4          1           0       -0.992049    0.481883    0.847643
      5          1           0       -0.988847   -0.858795    0.018037
      6          1           0        1.139582    1.019637    0.045604
 ---------------------------------------------------------------------

 SCF Done:  E(RB2PLYPD3) =  -115.476235640     A.U. after   11 cycles
 E2(B2PLYPD3) =    -0.1526556167D+00 E(B2PLYPD3) =    -0.11562889125713D+03

 The electronic state is 1-A.
 Alpha  occ. eigenvalues --  -19.74391 -10.62574  -1.11712  -0.80068  -0.56562
 Alpha  occ. eigenvalues --   -0.51779  -0.48803  -0.41391  -0.35123
 Alpha virt. eigenvalues --    0.01918   0.07664   0.12589   0.12802   0.14728
 Alpha virt. eigenvalues --    0.17144   0.18318   0.25634   0.29453   0.33029
 Alpha virt. eigenvalues --    0.33559   0.38304   0.40991   0.41576   0.44092

 Mulliken charges:
               1
     1  C    0.075730
     2  O   -0.500798
     3  H    0.045505
     4  H    0.045169
     5  H    0.086850
     6  H    0.247545
 Sum of Mulliken charges =   0.00000

 Dipole moment (field-independent basis, Debye):
    X=             -1.1525    Y=              1.6307    Z=              0.1536  Tot=              2.0028
 Quadrupole moment (field-independent basis, Debye-Ang):
   XX=            -13.2576   YY=            -11.5094   ZZ=            -13.8521
   XY=              2.3446   XZ=              0.0964   YZ=              0.0822

 Normal termination of Gaussian 09 at Wed Aug 26 12:23:37 2020.
