 Gaussian 09, Revision D.01,
 Gaussian 09:  ES64L-G09RevD.01 24-Apr-2013

 --------------------
 #p B2PLYPD3/Def2QZVP
 --------------------

 --------
 methanol
 --------
 Symbolic Z-matrix:
 Charge =  0 Multiplicity = 1

                         Standard orientation:
 ---------------------------------------------------------------------
 Center     Atomic      Atomic             Coordinates (Angstroms)
 Number     Number       Type             X           Y           Z
 ---------------------------------------------------------------------
      1          6           0       -0.668645    0.006467    0.005689
      2          8           0        0.739634   -0.140778   -0.018763
      3          1           0       -0.996612    0.703139   -0.801382
      4          1           0       -0.984499    0.402653    0.907021
      5          1           0       -1.084018   -0.881224   -0.096329
      6          1           0        1.159925    0.862854    0.106657
 ---------------------------------------------------------------------

 SCF Done:  E(RB2PLYPD3) =  -115.526998831     A.U. after   11 cycles
 E2(B2PLYPD3) =    -0.1492222085D+00 E(B2PLYPD3) =    -0.11567622103987D+03

 The electronic state is 1-A.
 Alpha  occ. eigenvalues --  -19.73334 -10.63832  -1.13968  -0.79072  -0.57146
 Alpha  occ. eigenvalues --   -0.51727  -0.50769  -0.41051  -0.34777
 Alpha virt. eigenvalues --    0.03757   0.07992   0.12458   0.12835   0.14830
 Alpha virt. eigenvalues --    0.17472   0.18054   0.29053   0.30352   0.33105
 Alpha virt. eigenvalues --    0.33987   0.38779   0.41162   0.41689   0.43907

 Mulliken charges:
               1
     1  C    0.084986
     2  O   -0.488979
     3  H    0.035677
     4  H    0.043754
     5  H    0.073478
     6  H    0.251083
 Sum of Mulliken charges =   0.00000

 Dipole moment (field-independent basis, Debye):
    X=             -0.9050    Y=              1.5507    Z=              0.2722  Tot=              1.8160
 Quadrupole moment (field-independent basis, Debye-Ang):
   XX=            -13.0275   YY=            -11.9254   ZZ=            -13.8367
   XY=              2.4909   XZ=              0.2038   YZ=              0.1910

 Normal termination of Gaussian 09 at Wed Aug 26 12:14:27 2020.
