 Gaussian 09, Revision D.01,
 Gaussian 09:  ES64L-G09RevD.01 24-Apr-2013

 --------------------
 #p B2PLYPD3/Def2QZVP
 --------------------

 --------
 methanol
 --------
 Symbolic Z-matrix:
 Charge =  0 Multiplicity = 1

                         Standard orientation:
 ---------------------------------------------------------------------
 Center     Atomic      Atomic             Coordinates (Angstroms)
 Number     Number       Type             X           Y           Z
 ---------------------------------------------------------------------
      1          6           0        0.654136    0.024984   -0.009200
      2          8           0       -0.738641   -0.149024    0.003459
      3          1           0        1.042859    0.540920    0.843201
      4          1           0        0.995977    0.552373   -0.821617
      5          1           0        1.127733   -0.932131    0.001102
      6          1           0       -1.182259    0.881125    0.004841
 ---------------------------------------------------------------------

 SCF Done:  E(RB2PLYPD3) =  -115.528228633     A.U. after   11 cycles
 E2(B2PLYPD3) =    -0.1497337168D+00 E(B2PLYPD3) =    -0.11567796235013D+03

 The electronic state is 1-A.
 Alpha  occ. eigenvalues --  -19.73865 -10.64024  -1.14196  -0.78554  -0.57202
 Alpha  occ. eigenvalues --   -0.52032  -0.49853  -0.40655  -0.35036
 Alpha virt. eigenvalues --    0.03439   0.07757   0.12602   0.12787   0.15027
 Alpha virt. eigenvalues --    0.17640   0.18198   0.28442   0.29834   0.33418
 Alpha virt. eigenvalues --    0.34703   0.39233   0.39744   0.41940   0.44080

 Mulliken charges:
               1
     1  C    0.082654
     2  O   -0.482904
     3  H    0.039007
     4  H    0.043873
     5  H    0.063603
     6  H    0.253767
 Sum of Mulliken charges =   0.00000

 Dipole moment (field-independent basis, Debye):
    X=              0.8298    Y=              1.6612    Z=             -0.0313  Tot=              1.8572
 Quadrupole moment (field-independent basis, Debye-Ang):
   XX=            -12.8624   YY=            -11.9757   ZZ=            -13.9781
   XY=             -2.4251   XZ=             -0.0061   YZ=             -0.0492

 Normal termination of Gaussian 09 at Thu Aug 27 00:08:53 2020.
