 Gaussian 09, Revision D.01,
 Gaussian 09:  ES64L-G09RevD.01 24-Apr-2013

 --------------------
 #p B2PLYPD3/Def2QZVP
 --------------------

 --------
 methanol
 --------
 Symbolic Z-matrix:
 Charge =  0 Multiplicity = 1

                         Standard orientation:
 ---------------------------------------------------------------------
 Center     Atomic      Atomic             Coordinates (Angstroms)
 Number     Number       Type             X           Y           Z
 ---------------------------------------------------------------------
      1          6           0        0.651641   -0.019510    0.004476
      2          8           0       -0.744356    0.131474   -0.009400
      3          1           0        1.059534   -0.605914   -0.835735
      4          1           0        1.021146   -0.465833    0.892229
      5          1           0        1.091589    0.960546   -0.048792
      6          1           0       -1.127267   -0.823529    0.040649
 ---------------------------------------------------------------------

 SCF Done:  E(RB2PLYPD3) =  -115.546173688     A.U. after   10 cycles
 E2(B2PLYPD3) =    -0.1483448644D+00 E(B2PLYPD3) =    -0.11569451855260D+03

 The electronic state is 1-A.
 Alpha  occ. eigenvalues --  -19.73400 -10.64972  -1.15604  -0.78379  -0.58255
 Alpha  occ. eigenvalues --   -0.51733  -0.50012  -0.41039  -0.35246
 Alpha virt. eigenvalues --    0.04412   0.08001   0.12470   0.12595   0.15016
 Alpha virt. eigenvalues --    0.17482   0.18248   0.29087   0.32122   0.33420
 Alpha virt. eigenvalues --    0.34702   0.38779   0.39896   0.41207   0.44116

 Mulliken charges:
               1
     1  C    0.070885
     2  O   -0.465042
     3  H    0.040072
     4  H    0.046002
     5  H    0.065567
     6  H    0.242516
 Sum of Mulliken charges =   0.00000

 Dipole moment (field-independent basis, Debye):
    X=              0.8503    Y=             -1.5656    Z=              0.1246  Tot=              1.7860
 Quadrupole moment (field-independent basis, Debye-Ang):
   XX=            -13.0724   YY=            -12.1013   ZZ=            -13.9024
   XY=              2.2876   XZ=             -0.0930   YZ=             -0.0798

 Normal termination of Gaussian 09 at Wed Aug 26 19:07:30 2020.
