 Gaussian 09, Revision D.01,
 Gaussian 09:  ES64L-G09RevD.01 24-Apr-2013

 --------------------
 #p B2PLYPD3/Def2QZVP
 --------------------

 --------
 methanol
 --------
 Symbolic Z-matrix:
 Charge =  0 Multiplicity = 1

                         Standard orientation:
 ---------------------------------------------------------------------
 Center     Atomic      Atomic             Coordinates (Angstroms)
 Number     Number       Type             X           Y           Z
 ---------------------------------------------------------------------
      1          6           0       -0.661934   -0.028103    0.005155
      2          8           0        0.743656    0.137574   -0.003227
      3          1           0       -1.016535   -0.512654    0.849634
      4          1           0       -1.030000   -0.559068   -0.841990
      5          1           0       -1.080849    0.980783   -0.022762
      6          1           0        1.149743   -0.841030    0.010006
 ---------------------------------------------------------------------

 SCF Done:  E(RB2PLYPD3) =  -115.540801402     A.U. after   11 cycles
 E2(B2PLYPD3) =    -0.1488441636D+00 E(B2PLYPD3) =    -0.11568964556563D+03

 The electronic state is 1-A.
 Alpha  occ. eigenvalues --  -19.73384 -10.64513  -1.14633  -0.78549  -0.57815
 Alpha  occ. eigenvalues --   -0.52250  -0.49270  -0.40979  -0.35312
 Alpha virt. eigenvalues --    0.04193   0.07972   0.12379   0.12663   0.15048
 Alpha virt. eigenvalues --    0.17339   0.18162   0.29095   0.31382   0.33539
 Alpha virt. eigenvalues --    0.34322   0.38522   0.39810   0.42011   0.44474

 Mulliken charges:
               1
     1  C    0.077302
     2  O   -0.478167
     3  H    0.048293
     4  H    0.044674
     5  H    0.063747
     6  H    0.244151
 Sum of Mulliken charges =   0.00000

 Dipole moment (field-independent basis, Debye):
    X=             -0.8878    Y=             -1.6312    Z=              0.0449  Tot=              1.8577
 Quadrupole moment (field-independent basis, Debye-Ang):
   XX=            -13.0445   YY=            -12.0032   ZZ=            -13.8766
   XY=             -2.2662   XZ=              0.0121   YZ=             -0.0405

 Normal termination of Gaussian 09 at Wed Aug 26 13:11:18 2020.
