 Gaussian 09, Revision D.01,
 Gaussian 09:  ES64L-G09RevD.01 24-Apr-2013

 --------------------
 #p B2PLYPD3/Def2QZVP
 --------------------

 --------
 methanol
 --------
 Symbolic Z-matrix:
 Charge =  0 Multiplicity = 1

                         Standard orientation:
 ---------------------------------------------------------------------
 Center     Atomic      Atomic             Coordinates (Angstroms)
 Number     Number       Type             X           Y           Z
 ---------------------------------------------------------------------
      1          6           0        0.668448    0.010526   -0.041719
      2          8           0       -0.740742   -0.181816    0.028729
      3          1           0        1.130230    0.574340    0.792751
      4          1           0        0.858311    0.442478   -0.743944
      5          1           0        1.014401   -0.828300    0.023454
      6          1           0       -1.087690    1.202860   -0.051778
 ---------------------------------------------------------------------

 SCF Done:  E(RB2PLYPD3) =  -115.368791497     A.U. after   12 cycles
 E2(B2PLYPD3) =    -0.1566248180D+00 E(B2PLYPD3) =    -0.11552541631457D+03

 The electronic state is 1-A.
 Alpha  occ. eigenvalues --  -19.75496 -10.60706  -1.12015  -0.81468  -0.58976
 Alpha  occ. eigenvalues --   -0.51846  -0.48449  -0.40039  -0.35094
 Alpha virt. eigenvalues --   -0.01996   0.07506   0.12532   0.12878   0.14704
 Alpha virt. eigenvalues --    0.17561   0.18179   0.22037   0.29502   0.32248
 Alpha virt. eigenvalues --    0.34300   0.37937   0.40609   0.41425   0.47017

 Mulliken charges:
               1
     1  C    0.026759
     2  O   -0.476381
     3  H    0.035728
     4  H    0.107423
     5  H    0.081022
     6  H    0.225448
 Sum of Mulliken charges =   0.00000

 Dipole moment (field-independent basis, Debye):
    X=              1.2690    Y=              1.6767    Z=             -0.2757  Tot=              2.1208
 Quadrupole moment (field-independent basis, Debye-Ang):
   XX=            -13.6186   YY=            -11.0187   ZZ=            -13.9271
   XY=             -2.2430   XZ=              0.0924   YZ=             -0.2660

 Normal termination of Gaussian 09 at Wed Aug 26 22:05:54 2020.
