 Gaussian 09, Revision D.01,
 Gaussian 09:  ES64L-G09RevD.01 24-Apr-2013

 --------------------
 #p B2PLYPD3/Def2QZVP
 --------------------

 --------
 methanol
 --------
 Symbolic Z-matrix:
 Charge =  0 Multiplicity = 1

                         Standard orientation:
 ---------------------------------------------------------------------
 Center     Atomic      Atomic             Coordinates (Angstroms)
 Number     Number       Type             X           Y           Z
 ---------------------------------------------------------------------
      1          6           0       -0.668184   -0.002108   -0.005356
      2          8           0        0.754183   -0.148016   -0.009766
      3          1           0       -1.104029    0.563054   -0.824696
      4          1           0       -1.050272    0.516522    0.847633
      5          1           0       -1.032098   -0.871653    0.038408
      6          1           0        1.162038    0.988850    0.048919
 ---------------------------------------------------------------------

 SCF Done:  E(RB2PLYPD3) =  -115.493577060     A.U. after   11 cycles
 E2(B2PLYPD3) =    -0.1520451846D+00 E(B2PLYPD3) =    -0.11564562224491D+03

 The electronic state is 1-A.
 Alpha  occ. eigenvalues --  -19.74597 -10.63471  -1.12593  -0.79397  -0.56442
 Alpha  occ. eigenvalues --   -0.50715  -0.49835  -0.41383  -0.34875
 Alpha virt. eigenvalues --    0.02163   0.07557   0.12639   0.12813   0.14990
 Alpha virt. eigenvalues --    0.17395   0.18337   0.26097   0.29609   0.33432
 Alpha virt. eigenvalues --    0.33923   0.38088   0.40566   0.40796   0.43475

 Mulliken charges:
               1
     1  C    0.079732
     2  O   -0.490113
     3  H    0.041450
     4  H    0.036081
     5  H    0.077849
     6  H    0.255001
 Sum of Mulliken charges =   0.00000

 Dipole moment (field-independent basis, Debye):
    X=             -0.9937    Y=              1.6278    Z=              0.1251  Tot=              1.9113
 Quadrupole moment (field-independent basis, Debye-Ang):
   XX=            -13.0490   YY=            -11.6202   ZZ=            -14.0945
   XY=              2.4140   XZ=              0.0992   YZ=              0.0295

 Normal termination of Gaussian 09 at Wed Aug 26 15:19:40 2020.
