 Gaussian 09, Revision D.01,
 Gaussian 09:  ES64L-G09RevD.01 24-Apr-2013

 --------------------
 #p B2PLYPD3/Def2QZVP
 --------------------

 --------
 methanol
 --------
 Symbolic Z-matrix:
 Charge =  0 Multiplicity = 1

                         Standard orientation:
 ---------------------------------------------------------------------
 Center     Atomic      Atomic             Coordinates (Angstroms)
 Number     Number       Type             X           Y           Z
 ---------------------------------------------------------------------
      1          6           0        0.678722   -0.024352    0.010259
      2          8           0       -0.757043    0.078653   -0.019706
      3          1           0        0.988297   -0.819806   -0.802707
      4          1           0        1.061629   -0.246711    1.053771
      5          1           0        1.066471    1.049769   -0.301071
      6          1           0       -1.132384   -0.466359    0.146098
 ---------------------------------------------------------------------

 SCF Done:  E(RB2PLYPD3) =  -115.391638530     A.U. after   11 cycles
 E2(B2PLYPD3) =    -0.1440716824D+00 E(B2PLYPD3) =    -0.11553571021219D+03

 The electronic state is 1-A.
 Alpha  occ. eigenvalues --  -19.69189 -10.68935  -1.23990  -0.81466  -0.61177
 Alpha  occ. eigenvalues --   -0.51615  -0.49530  -0.40210  -0.36253
 Alpha virt. eigenvalues --    0.05308   0.09201   0.11671   0.11827   0.14163
 Alpha virt. eigenvalues --    0.16735   0.17898   0.28718   0.31593   0.33164
 Alpha virt. eigenvalues --    0.35979   0.37590   0.39216   0.40594   0.42359

 Mulliken charges:
               1
     1  C    0.052400
     2  O   -0.245107
     3  H    0.054980
     4  H    0.062317
     5  H    0.078841
     6  H   -0.003430
 Sum of Mulliken charges =   0.00000

 Dipole moment (field-independent basis, Debye):
    X=              0.9444    Y=             -1.1337    Z=              0.3864  Tot=              1.5253
 Quadrupole moment (field-independent basis, Debye-Ang):
   XX=            -12.9780   YY=            -12.7218   ZZ=            -13.3643
   XY=              1.8742   XZ=             -0.4254   YZ=             -0.1883

 Normal termination of Gaussian 09 at Wed Aug 26 13:37:30 2020.
