 Gaussian 09, Revision D.01,
 Gaussian 09:  ES64L-G09RevD.01 24-Apr-2013

 --------------------
 #p B2PLYPD3/Def2QZVP
 --------------------

 --------
 methanol
 --------
 Symbolic Z-matrix:
 Charge =  0 Multiplicity = 1

                         Standard orientation:
 ---------------------------------------------------------------------
 Center     Atomic      Atomic             Coordinates (Angstroms)
 Number     Number       Type             X           Y           Z
 ---------------------------------------------------------------------
      1          6           0        0.660065   -0.017875    0.006635
      2          8           0       -0.751559    0.100984   -0.004785
      3          1           0        0.994788   -0.666665   -0.886524
      4          1           0        1.075764   -0.414182    0.974071
      5          1           0        1.084279    1.008677   -0.145971
      6          1           0       -1.102749   -0.628449    0.056896
 ---------------------------------------------------------------------

 SCF Done:  E(RB2PLYPD3) =  -115.521769739     A.U. after   10 cycles
 E2(B2PLYPD3) =    -0.1452312211D+00 E(B2PLYPD3) =    -0.11566700095980D+03

 The electronic state is 1-A.
 Alpha  occ. eigenvalues --  -19.71236 -10.67274  -1.20217  -0.79594  -0.60469
 Alpha  occ. eigenvalues --   -0.51581  -0.50219  -0.40947  -0.35777
 Alpha virt. eigenvalues --    0.05374   0.08743   0.11991   0.12286   0.14565
 Alpha virt. eigenvalues --    0.17185   0.18085   0.28831   0.32872   0.33431
 Alpha virt. eigenvalues --    0.36854   0.39053   0.39705   0.39901   0.43047

 Mulliken charges:
               1
     1  C    0.058108
     2  O   -0.362190
     3  H    0.044471
     4  H    0.053125
     5  H    0.073389
     6  H    0.133096
 Sum of Mulliken charges =   0.00000

 Dipole moment (field-independent basis, Debye):
    X=              0.8787    Y=             -1.3228    Z=              0.1313  Tot=              1.5935
 Quadrupole moment (field-independent basis, Debye-Ang):
   XX=            -13.1005   YY=            -12.5156   ZZ=            -13.6338
   XY=              2.1154   XZ=             -0.0848   YZ=             -0.1153

 Normal termination of Gaussian 09 at Wed Aug 26 21:23:36 2020.
