 Gaussian 09, Revision D.01,
 Gaussian 09:  ES64L-G09RevD.01 24-Apr-2013

 --------------------
 #p B2PLYPD3/Def2QZVP
 --------------------

 --------
 methanol
 --------
 Symbolic Z-matrix:
 Charge =  0 Multiplicity = 1

                         Standard orientation:
 ---------------------------------------------------------------------
 Center     Atomic      Atomic             Coordinates (Angstroms)
 Number     Number       Type             X           Y           Z
 ---------------------------------------------------------------------
      1          6           0        0.666949    0.020065    0.017027
      2          8           0       -0.750662   -0.140258   -0.013067
      3          1           0        1.009944    0.449458    0.871441
      4          1           0        1.078886    0.595838   -0.844395
      5          1           0        1.076621   -0.924756   -0.064494
      6          1           0       -1.161851    0.881132    0.039828
 ---------------------------------------------------------------------

 SCF Done:  E(RB2PLYPD3) =  -115.529411565     A.U. after   11 cycles
 E2(B2PLYPD3) =    -0.1498124415D+00 E(B2PLYPD3) =    -0.11567922400614D+03

 The electronic state is 1-A.
 Alpha  occ. eigenvalues --  -19.73779 -10.64231  -1.13687  -0.78870  -0.56988
 Alpha  occ. eigenvalues --   -0.51783  -0.49601  -0.41062  -0.35260
 Alpha virt. eigenvalues --    0.03760   0.07776   0.12551   0.12654   0.14910
 Alpha virt. eigenvalues --    0.17384   0.18377   0.28699   0.30197   0.33522
 Alpha virt. eigenvalues --    0.33821   0.38508   0.40177   0.41529   0.44192

 Mulliken charges:
               1
     1  C    0.078953
     2  O   -0.486737
     3  H    0.050924
     4  H    0.038822
     5  H    0.067426
     6  H    0.250612
 Sum of Mulliken charges =   0.00000

 Dipole moment (field-independent basis, Debye):
    X=              0.9345    Y=              1.5895    Z=              0.1648  Tot=              1.8512
 Quadrupole moment (field-independent basis, Debye-Ang):
   XX=            -12.9815   YY=            -11.9991   ZZ=            -13.8699
   XY=             -2.3905   XZ=             -0.0723   YZ=              0.1461

 Normal termination of Gaussian 09 at Thu Aug 27 00:13:51 2020.
