 Gaussian 09, Revision D.01,
 Gaussian 09:  ES64L-G09RevD.01 24-Apr-2013

 --------------------
 #p B2PLYPD3/Def2QZVP
 --------------------

 --------
 methanol
 --------
 Symbolic Z-matrix:
 Charge =  0 Multiplicity = 1

                         Standard orientation:
 ---------------------------------------------------------------------
 Center     Atomic      Atomic             Coordinates (Angstroms)
 Number     Number       Type             X           Y           Z
 ---------------------------------------------------------------------
      1          6           0        0.658977    0.044130   -0.002349
      2          8           0       -0.741014   -0.160572   -0.010321
      3          1           0        0.991511    0.382431    0.887683
      4          1           0        0.975994    0.643146   -0.766952
      5          1           0        1.180988   -0.908638   -0.089915
      6          1           0       -1.174246    0.902854    0.065845
 ---------------------------------------------------------------------

 SCF Done:  E(RB2PLYPD3) =  -115.516760898     A.U. after   11 cycles
 E2(B2PLYPD3) =    -0.1503533018D+00 E(B2PLYPD3) =    -0.11566711420007D+03

 The electronic state is 1-A.
 Alpha  occ. eigenvalues --  -19.73954 -10.63548  -1.13514  -0.78906  -0.56094
 Alpha  occ. eigenvalues --   -0.53497  -0.49321  -0.40146  -0.35382
 Alpha virt. eigenvalues --    0.03116   0.07690   0.12530   0.12842   0.14681
 Alpha virt. eigenvalues --    0.17799   0.18455   0.27598   0.29493   0.33492
 Alpha virt. eigenvalues --    0.34149   0.38927   0.40373   0.43228   0.43365

 Mulliken charges:
               1
     1  C    0.088715
     2  O   -0.490300
     3  H    0.048638
     4  H    0.045945
     5  H    0.053811
     6  H    0.253190
 Sum of Mulliken charges =   0.00000

 Dipole moment (field-independent basis, Debye):
    X=              0.9226    Y=              1.7115    Z=              0.1433  Tot=              1.9496
 Quadrupole moment (field-independent basis, Debye-Ang):
   XX=            -12.9178   YY=            -12.0285   ZZ=            -13.8106
   XY=             -2.4398   XZ=             -0.1289   YZ=              0.0212

 Normal termination of Gaussian 09 at Wed Aug 26 15:24:47 2020.
