 Gaussian 09, Revision D.01,
 Gaussian 09:  ES64L-G09RevD.01 24-Apr-2013

 --------------------
 #p B2PLYPD3/Def2QZVP
 --------------------

 --------
 methanol
 --------
 Symbolic Z-matrix:
 Charge =  0 Multiplicity = 1

                         Standard orientation:
 ---------------------------------------------------------------------
 Center     Atomic      Atomic             Coordinates (Angstroms)
 Number     Number       Type             X           Y           Z
 ---------------------------------------------------------------------
      1          6           0        0.644316    0.016846    0.000388
      2          8           0       -0.766992   -0.060802   -0.032071
      3          1           0        1.112960    0.004408    1.084450
      4          1           0        0.923732    1.045679   -0.585673
      5          1           0        1.160390   -0.970228   -0.522618
      6          1           0       -0.927038    0.305479    0.278079
 ---------------------------------------------------------------------

 SCF Done:  E(RB2PLYPD3) =  -114.807238983     A.U. after   12 cycles
 E2(B2PLYPD3) =    -0.1432819639D+00 E(B2PLYPD3) =    -0.11495052094695D+03

 The electronic state is 1-A.
 Alpha  occ. eigenvalues --  -19.69513 -10.70235  -1.35664  -0.82450  -0.63251
 Alpha  occ. eigenvalues --   -0.52254  -0.50351  -0.41767  -0.36882
 Alpha virt. eigenvalues --    0.04970   0.09519   0.11260   0.11394   0.14293
 Alpha virt. eigenvalues --    0.17246   0.17581   0.27195   0.31531   0.33258
 Alpha virt. eigenvalues --    0.34123   0.36075   0.36947   0.41065   0.44970

 Mulliken charges:
               1
     1  C    0.049906
     2  O   -0.038351
     3  H    0.049964
     4  H    0.050007
     5  H    0.071624
     6  H   -0.183150
 Sum of Mulliken charges =   0.00000

 Dipole moment (field-independent basis, Debye):
    X=              1.1924    Y=              0.7865    Z=              0.7421  Tot=              1.6097
 Quadrupole moment (field-independent basis, Debye-Ang):
   XX=            -13.5325   YY=            -12.7490   ZZ=            -13.1215
   XY=             -1.4827   XZ=             -0.7993   YZ=              0.3501

 Normal termination of Gaussian 09 at Wed Aug 26 22:42:36 2020.
