 Gaussian 09, Revision D.01,
 Gaussian 09:  ES64L-G09RevD.01 24-Apr-2013

 --------------------
 #p B2PLYPD3/Def2QZVP
 --------------------

 --------
 methanol
 --------
 Symbolic Z-matrix:
 Charge =  0 Multiplicity = 1

                         Standard orientation:
 ---------------------------------------------------------------------
 Center     Atomic      Atomic             Coordinates (Angstroms)
 Number     Number       Type             X           Y           Z
 ---------------------------------------------------------------------
      1          6           0        0.675266    0.028827   -0.006219
      2          8           0       -0.736774   -0.145779   -0.004011
      3          1           0        0.973498    0.458978    0.931224
      4          1           0        1.055479    0.554686   -0.827463
      5          1           0        1.032521   -0.903062   -0.032644
      6          1           0       -1.218905    0.882667   -0.001711
 ---------------------------------------------------------------------

 SCF Done:  E(RB2PLYPD3) =  -115.521516313     A.U. after   11 cycles
 E2(B2PLYPD3) =    -0.1501253226D+00 E(B2PLYPD3) =    -0.11567164163609D+03

 The electronic state is 1-A.
 Alpha  occ. eigenvalues --  -19.73526 -10.63619  -1.13165  -0.78886  -0.56451
 Alpha  occ. eigenvalues --   -0.52446  -0.49667  -0.40520  -0.35042
 Alpha virt. eigenvalues --    0.03438   0.07841   0.12466   0.12868   0.14771
 Alpha virt. eigenvalues --    0.17040   0.18483   0.28340   0.29764   0.33262
 Alpha virt. eigenvalues --    0.34258   0.38804   0.40517   0.42130   0.43818

 Mulliken charges:
               1
     1  C    0.075779
     2  O   -0.495115
     3  H    0.048685
     4  H    0.049562
     5  H    0.069958
     6  H    0.251132
 Sum of Mulliken charges =   0.00000

 Dipole moment (field-independent basis, Debye):
    X=              0.8717    Y=              1.5763    Z=             -0.0184  Tot=              1.8013
 Quadrupole moment (field-independent basis, Debye-Ang):
   XX=            -12.8396   YY=            -12.0394   ZZ=            -13.7366
   XY=             -2.4875   XZ=             -0.1201   YZ=             -0.0441

 Normal termination of Gaussian 09 at Wed Aug 26 11:02:21 2020.
