 Gaussian 09, Revision D.01,
 Gaussian 09:  ES64L-G09RevD.01 24-Apr-2013

 --------------------
 #p B2PLYPD3/Def2QZVP
 --------------------

 --------
 methanol
 --------
 Symbolic Z-matrix:
 Charge =  0 Multiplicity = 1

                         Standard orientation:
 ---------------------------------------------------------------------
 Center     Atomic      Atomic             Coordinates (Angstroms)
 Number     Number       Type             X           Y           Z
 ---------------------------------------------------------------------
      1          6           0       -0.680867   -0.014909    0.009058
      2          8           0        0.749127    0.000467    0.039364
      3          1           0       -1.096757   -0.900908   -0.701747
      4          1           0       -1.045173    1.160447   -0.369389
      5          1           0       -0.841384   -0.181562    1.100482
      6          1           0        1.075497    0.007740   -0.398604
 ---------------------------------------------------------------------

 SCF Done:  E(RB2PLYPD3) =  -115.002001814     A.U. after   11 cycles
 E2(B2PLYPD3) =    -0.1435648363D+00 E(B2PLYPD3) =    -0.11514556665042D+03

 The electronic state is 1-A.
 Alpha  occ. eigenvalues --  -19.68002 -10.70399  -1.30730  -0.84651  -0.61092
 Alpha  occ. eigenvalues --   -0.51097  -0.50327  -0.40727  -0.35916
 Alpha virt. eigenvalues --    0.04931   0.09544   0.10850   0.11875   0.13897
 Alpha virt. eigenvalues --    0.16081   0.17765   0.28449   0.30857   0.32278
 Alpha virt. eigenvalues --    0.33578   0.36544   0.39497   0.41140   0.42386

 Mulliken charges:
               1
     1  C    0.037151
     2  O   -0.084615
     3  H    0.056071
     4  H    0.045112
     5  H    0.104603
     6  H   -0.158321
 Sum of Mulliken charges =   0.00000

 Dipole moment (field-independent basis, Debye):
    X=             -0.9143    Y=             -0.1064    Z=             -0.9383  Tot=              1.3144
 Quadrupole moment (field-independent basis, Debye-Ang):
   XX=            -13.3563   YY=            -13.2905   ZZ=            -12.4767
   XY=              0.2282   XZ=             -1.5488   YZ=              0.0223

 Normal termination of Gaussian 09 at Wed Aug 26 23:31:23 2020.
