 Gaussian 09, Revision D.01,
 Gaussian 09:  ES64L-G09RevD.01 24-Apr-2013

 --------------------
 #p B2PLYPD3/Def2QZVP
 --------------------

 --------
 methanol
 --------
 Symbolic Z-matrix:
 Charge =  0 Multiplicity = 1

                         Standard orientation:
 ---------------------------------------------------------------------
 Center     Atomic      Atomic             Coordinates (Angstroms)
 Number     Number       Type             X           Y           Z
 ---------------------------------------------------------------------
      1          6           0       -0.661652    0.034371    0.012644
      2          8           0        0.731415   -0.149276   -0.017663
      3          1           0       -1.036550    0.589657   -0.822959
      4          1           0       -0.957508    0.479960    0.823563
      5          1           0       -1.080385   -0.958061   -0.005157
      6          1           0        1.193034    0.876427    0.069994
 ---------------------------------------------------------------------

 SCF Done:  E(RB2PLYPD3) =  -115.519946031     A.U. after   11 cycles
 E2(B2PLYPD3) =    -0.1497095563D+00 E(B2PLYPD3) =    -0.11566965558765D+03

 The electronic state is 1-A.
 Alpha  occ. eigenvalues --  -19.73611 -10.63465  -1.13961  -0.78883  -0.57381
 Alpha  occ. eigenvalues --   -0.52772  -0.49307  -0.40566  -0.35116
 Alpha virt. eigenvalues --    0.03443   0.07872   0.12477   0.12792   0.15128
 Alpha virt. eigenvalues --    0.17294   0.18155   0.28458   0.29819   0.33400
 Alpha virt. eigenvalues --    0.34744   0.38804   0.39720   0.42215   0.45039

 Mulliken charges:
               1
     1  C    0.083996
     2  O   -0.486938
     3  H    0.042842
     4  H    0.047642
     5  H    0.062875
     6  H    0.249583
 Sum of Mulliken charges =   0.00000

 Dipole moment (field-independent basis, Debye):
    X=             -0.8387    Y=              1.6667    Z=              0.2294  Tot=              1.8799
 Quadrupole moment (field-independent basis, Debye-Ang):
   XX=            -12.9150   YY=            -11.9286   ZZ=            -13.8481
   XY=              2.3562   XZ=              0.1341   YZ=              0.1441

 Normal termination of Gaussian 09 at Wed Aug 26 14:21:53 2020.
