 Gaussian 09, Revision D.01,
 Gaussian 09:  ES64L-G09RevD.01 24-Apr-2013

 --------------------
 #p B2PLYPD3/Def2QZVP
 --------------------

 --------
 methanol
 --------
 Symbolic Z-matrix:
 Charge =  0 Multiplicity = 1

                         Standard orientation:
 ---------------------------------------------------------------------
 Center     Atomic      Atomic             Coordinates (Angstroms)
 Number     Number       Type             X           Y           Z
 ---------------------------------------------------------------------
      1          6           0       -0.675787   -0.006010    0.025835
      2          8           0        0.743069    0.066680   -0.046479
      3          1           0       -0.932136   -0.127958    1.065112
      4          1           0       -1.098212   -0.900835   -0.706161
      5          1           0       -0.974779    1.015285   -0.362132
      6          1           0        1.115296   -0.483869    0.220001
 ---------------------------------------------------------------------

 SCF Done:  E(RB2PLYPD3) =  -115.436890156     A.U. after   11 cycles
 E2(B2PLYPD3) =    -0.1440901860D+00 E(B2PLYPD3) =    -0.11558098034187D+03

 The electronic state is 1-A.
 Alpha  occ. eigenvalues --  -19.69470 -10.67963  -1.22987  -0.81503  -0.61088
 Alpha  occ. eigenvalues --   -0.51653  -0.50113  -0.40692  -0.35787
 Alpha virt. eigenvalues --    0.05372   0.09184   0.11648   0.12028   0.14436
 Alpha virt. eigenvalues --    0.16527   0.17820   0.28844   0.32374   0.32585
 Alpha virt. eigenvalues --    0.36039   0.38236   0.40489   0.40870   0.43114

 Mulliken charges:
               1
     1  C    0.052418
     2  O   -0.266476
     3  H    0.061972
     4  H    0.042147
     5  H    0.083561
     6  H    0.026378
 Sum of Mulliken charges =   0.00000

 Dipole moment (field-independent basis, Debye):
    X=             -0.8502    Y=             -1.0191    Z=              0.6686  Tot=              1.4860
 Quadrupole moment (field-independent basis, Debye-Ang):
   XX=            -13.1964   YY=            -12.6621   ZZ=            -13.2653
   XY=             -1.7486   XZ=              0.7873   YZ=             -0.3635

 Normal termination of Gaussian 09 at Wed Aug 26 12:18:58 2020.
