 Gaussian 09, Revision D.01,
 Gaussian 09:  ES64L-G09RevD.01 24-Apr-2013

 --------------------
 #p B2PLYPD3/Def2QZVP
 --------------------

 --------
 methanol
 --------
 Symbolic Z-matrix:
 Charge =  0 Multiplicity = 1

                         Standard orientation:
 ---------------------------------------------------------------------
 Center     Atomic      Atomic             Coordinates (Angstroms)
 Number     Number       Type             X           Y           Z
 ---------------------------------------------------------------------
      1          6           0        0.640851   -0.028974    0.026659
      2          8           0       -0.761190    0.079332   -0.007226
      3          1           0        1.002363   -0.786753   -0.847866
      4          1           0        1.081143   -0.367099    0.962668
      5          1           0        1.177350    1.132487   -0.254325
      6          1           0       -1.016442   -0.439442    0.037380
 ---------------------------------------------------------------------

 SCF Done:  E(RB2PLYPD3) =  -115.136509898     A.U. after   11 cycles
 E2(B2PLYPD3) =    -0.1435320081D+00 E(B2PLYPD3) =    -0.11528004190605D+03

 The electronic state is 1-A.
 Alpha  occ. eigenvalues --  -19.69489 -10.69839  -1.31266  -0.82510  -0.63766
 Alpha  occ. eigenvalues --   -0.52178  -0.49777  -0.40314  -0.36923
 Alpha virt. eigenvalues --    0.04886   0.09454   0.10783   0.11887   0.14599
 Alpha virt. eigenvalues --    0.17224   0.17744   0.28005   0.31549   0.32667
 Alpha virt. eigenvalues --    0.33515   0.36698   0.39782   0.41051   0.43264

 Mulliken charges:
               1
     1  C    0.045289
     2  O   -0.127522
     3  H    0.039257
     4  H    0.070916
     5  H    0.057641
     6  H   -0.085581
 Sum of Mulliken charges =   0.00000

 Dipole moment (field-independent basis, Debye):
    X=              0.9678    Y=             -1.2261    Z=              0.2302  Tot=              1.5789
 Quadrupole moment (field-independent basis, Debye-Ang):
   XX=            -13.2094   YY=            -12.6775   ZZ=            -13.5398
   XY=              1.6802   XZ=              0.0436   YZ=             -0.1553

 Normal termination of Gaussian 09 at Wed Aug 26 21:01:43 2020.
