 Gaussian 09, Revision D.01,
 Gaussian 09:  ES64L-G09RevD.01 24-Apr-2013

 --------------------
 #p B2PLYPD3/Def2QZVP
 --------------------

 --------
 methanol
 --------
 Symbolic Z-matrix:
 Charge =  0 Multiplicity = 1

                         Standard orientation:
 ---------------------------------------------------------------------
 Center     Atomic      Atomic             Coordinates (Angstroms)
 Number     Number       Type             X           Y           Z
 ---------------------------------------------------------------------
      1          6           0        0.658417    0.017777    0.002680
      2          8           0       -0.736223   -0.144386   -0.002180
      3          1           0        1.006300    0.507627    0.873746
      4          1           0        0.991412    0.575885   -0.852993
      5          1           0        1.108690   -0.897854   -0.034996
      6          1           0       -1.167121    0.862765    0.015605
 ---------------------------------------------------------------------

 SCF Done:  E(RB2PLYPD3) =  -115.533354102     A.U. after   11 cycles
 E2(B2PLYPD3) =    -0.1491033395D+00 E(B2PLYPD3) =    -0.11568245744184D+03

 The electronic state is 1-A.
 Alpha  occ. eigenvalues --  -19.73472 -10.63926  -1.14415  -0.78711  -0.57174
 Alpha  occ. eigenvalues --   -0.52120  -0.50551  -0.40731  -0.34940
 Alpha virt. eigenvalues --    0.03768   0.07939   0.12569   0.12824   0.14862
 Alpha virt. eigenvalues --    0.17637   0.18141   0.28957   0.30247   0.33253
 Alpha virt. eigenvalues --    0.34509   0.39363   0.40966   0.41719   0.43670

 Mulliken charges:
               1
     1  C    0.080601
     2  O   -0.483424
     3  H    0.042661
     4  H    0.039673
     5  H    0.068335
     6  H    0.252155
 Sum of Mulliken charges =   0.00000

 Dipole moment (field-independent basis, Debye):
    X=              0.8498    Y=              1.5910    Z=              0.0391  Tot=              1.8042
 Quadrupole moment (field-independent basis, Debye-Ang):
   XX=            -12.9411   YY=            -12.0190   ZZ=            -13.8473
   XY=             -2.4831   XZ=             -0.0187   YZ=              0.0377

 Normal termination of Gaussian 09 at Thu Aug 27 00:09:17 2020.
