 Gaussian 09, Revision D.01,
 Gaussian 09:  ES64L-G09RevD.01 24-Apr-2013

 --------------------
 #p B2PLYPD3/Def2QZVP
 --------------------

 --------
 methanol
 --------
 Symbolic Z-matrix:
 Charge =  0 Multiplicity = 1

                         Standard orientation:
 ---------------------------------------------------------------------
 Center     Atomic      Atomic             Coordinates (Angstroms)
 Number     Number       Type             X           Y           Z
 ---------------------------------------------------------------------
      1          6           0       -0.629922    0.007386    0.003100
      2          8           0        0.742471   -0.064738   -0.048853
      3          1           0       -1.000072    1.172492   -0.226858
      4          1           0       -1.110169   -0.439581    0.986402
      5          1           0       -1.032021   -0.671124   -0.769815
      6          1           0        0.982031    0.411799    0.382498
 ---------------------------------------------------------------------

 SCF Done:  E(RB2PLYPD3) =  -115.393709983     A.U. after   11 cycles
 E2(B2PLYPD3) =    -0.1438683582D+00 E(B2PLYPD3) =    -0.11553757834132D+03

 The electronic state is 1-A.
 Alpha  occ. eigenvalues --  -19.70501 -10.68450  -1.27161  -0.81163  -0.61950
 Alpha  occ. eigenvalues --   -0.52343  -0.51292  -0.41250  -0.35793
 Alpha virt. eigenvalues --    0.05267   0.09139   0.11345   0.12373   0.14389
 Alpha virt. eigenvalues --    0.17045   0.18291   0.27933   0.32087   0.34134
 Alpha virt. eigenvalues --    0.34784   0.38139   0.40110   0.41479   0.43408

 Mulliken charges:
               1
     1  C    0.036676
     2  O   -0.208905
     3  H    0.030472
     4  H    0.044502
     5  H    0.078471
     6  H    0.018784
 Sum of Mulliken charges =   0.00000

 Dipole moment (field-independent basis, Debye):
    X=             -0.8314    Y=              0.7916    Z=              0.7561  Tot=              1.3746
 Quadrupole moment (field-independent basis, Debye-Ang):
   XX=            -13.5470   YY=            -12.8753   ZZ=            -13.2855
   XY=              1.5291   XZ=              1.2162   YZ=              0.4788

 Normal termination of Gaussian 09 at Wed Aug 26 18:40:27 2020.
