 Gaussian 09, Revision D.01,
 Gaussian 09:  ES64L-G09RevD.01 24-Apr-2013

 --------------------
 #p B2PLYPD3/Def2QZVP
 --------------------

 --------
 methanol
 --------
 Symbolic Z-matrix:
 Charge =  0 Multiplicity = 1

                         Standard orientation:
 ---------------------------------------------------------------------
 Center     Atomic      Atomic             Coordinates (Angstroms)
 Number     Number       Type             X           Y           Z
 ---------------------------------------------------------------------
      1          6           0       -0.673733   -0.011155    0.009510
      2          8           0        0.758366    0.095888   -0.015039
      3          1           0       -1.016394   -0.464882    0.959959
      4          1           0       -1.075843   -0.634964   -0.895180
      5          1           0       -1.045843    1.031548   -0.066688
      6          1           0        1.113555   -0.631872    0.065162
 ---------------------------------------------------------------------

 SCF Done:  E(RB2PLYPD3) =  -115.522078439     A.U. after   10 cycles
 E2(B2PLYPD3) =    -0.1454338183D+00 E(B2PLYPD3) =    -0.11566751225733D+03

 The electronic state is 1-A.
 Alpha  occ. eigenvalues --  -19.71073 -10.67315  -1.19459  -0.79650  -0.60151
 Alpha  occ. eigenvalues --   -0.51117  -0.49947  -0.41368  -0.35732
 Alpha virt. eigenvalues --    0.05370   0.08702   0.11982   0.12189   0.14662
 Alpha virt. eigenvalues --    0.16974   0.17939   0.28934   0.32442   0.33100
 Alpha virt. eigenvalues --    0.37053   0.39034   0.39507   0.40042   0.42707

 Mulliken charges:
               1
     1  C    0.061730
     2  O   -0.374262
     3  H    0.054673
     4  H    0.045864
     5  H    0.078964
     6  H    0.133030
 Sum of Mulliken charges =   0.00000

 Dipole moment (field-independent basis, Debye):
    X=             -0.9432    Y=             -1.3191    Z=              0.2123  Tot=              1.6355
 Quadrupole moment (field-independent basis, Debye-Ang):
   XX=            -13.1175   YY=            -12.3932   ZZ=            -13.6613
   XY=             -2.0671   XZ=              0.1880   YZ=             -0.1421

 Normal termination of Gaussian 09 at Thu Aug 27 00:12:42 2020.
