 Gaussian 09, Revision D.01,
 Gaussian 09:  ES64L-G09RevD.01 24-Apr-2013

 --------------------
 #p B2PLYPD3/Def2QZVP
 --------------------

 --------
 methanol
 --------
 Symbolic Z-matrix:
 Charge =  0 Multiplicity = 1

                         Standard orientation:
 ---------------------------------------------------------------------
 Center     Atomic      Atomic             Coordinates (Angstroms)
 Number     Number       Type             X           Y           Z
 ---------------------------------------------------------------------
      1          6           0       -0.668059   -0.020018   -0.010015
      2          8           0        0.748640    0.117606    0.001460
      3          1           0       -0.974186   -0.573060    0.916302
      4          1           0       -1.049956   -0.522201   -0.879407
      5          1           0       -1.086041    0.993563    0.041790
      6          1           0        1.129421   -0.719042   -0.030277
 ---------------------------------------------------------------------

 SCF Done:  E(RB2PLYPD3) =  -115.550829140     A.U. after   10 cycles
 E2(B2PLYPD3) =    -0.1466436566D+00 E(B2PLYPD3) =    -0.11569747279707D+03

 The electronic state is 1-A.
 Alpha  occ. eigenvalues --  -19.72091 -10.65943  -1.16888  -0.78904  -0.59163
 Alpha  occ. eigenvalues --   -0.51818  -0.49878  -0.41145  -0.35397
 Alpha virt. eigenvalues --    0.05130   0.08417   0.12253   0.12395   0.14742
 Alpha virt. eigenvalues --    0.17255   0.18019   0.29131   0.32842   0.33638
 Alpha virt. eigenvalues --    0.36187   0.38844   0.39678   0.40965   0.43703

 Mulliken charges:
               1
     1  C    0.069243
     2  O   -0.445034
     3  H    0.044677
     4  H    0.052418
     5  H    0.071521
     6  H    0.207174
 Sum of Mulliken charges =   0.00000

 Dipole moment (field-independent basis, Debye):
    X=             -0.8963    Y=             -1.4668    Z=             -0.0931  Tot=              1.7215
 Quadrupole moment (field-independent basis, Debye-Ang):
   XX=            -13.0708   YY=            -12.2737   ZZ=            -13.7308
   XY=             -2.2299   XZ=              0.0399   YZ=              0.1024

 Normal termination of Gaussian 09 at Wed Aug 26 10:09:02 2020.
