 Gaussian 09, Revision D.01,
 Gaussian 09:  ES64L-G09RevD.01 24-Apr-2013

 --------------------
 #p B2PLYPD3/Def2QZVP
 --------------------

 --------
 methanol
 --------
 Symbolic Z-matrix:
 Charge =  0 Multiplicity = 1

                         Standard orientation:
 ---------------------------------------------------------------------
 Center     Atomic      Atomic             Coordinates (Angstroms)
 Number     Number       Type             X           Y           Z
 ---------------------------------------------------------------------
      1          6           0       -0.664020   -0.010578    0.012643
      2          8           0        0.745632    0.098099   -0.013047
      3          1           0       -0.994537   -0.505637    0.942125
      4          1           0       -1.030689   -0.609337   -0.928677
      5          1           0       -1.058638    1.014259   -0.042272
      6          1           0        1.102933   -0.620609    0.057345
 ---------------------------------------------------------------------

 SCF Done:  E(RB2PLYPD3) =  -115.518785179     A.U. after   10 cycles
 E2(B2PLYPD3) =    -0.1449240422D+00 E(B2PLYPD3) =    -0.11566370922108D+03

 The electronic state is 1-A.
 Alpha  occ. eigenvalues --  -19.70896 -10.67027  -1.20310  -0.79940  -0.60513
 Alpha  occ. eigenvalues --   -0.51539  -0.50601  -0.41180  -0.35504
 Alpha virt. eigenvalues --    0.05382   0.08894   0.11966   0.12310   0.14626
 Alpha virt. eigenvalues --    0.17071   0.17830   0.28925   0.32820   0.33335
 Alpha virt. eigenvalues --    0.37136   0.39426   0.39764   0.40235   0.43176

 Mulliken charges:
               1
     1  C    0.062552
     2  O   -0.359602
     3  H    0.051380
     4  H    0.040773
     5  H    0.078984
     6  H    0.125913
 Sum of Mulliken charges =   0.00000

 Dipole moment (field-independent basis, Debye):
    X=             -0.8679    Y=             -1.2984    Z=              0.2055  Tot=              1.5752
 Quadrupole moment (field-independent basis, Debye-Ang):
   XX=            -13.1665   YY=            -12.4129   ZZ=            -13.6193
   XY=             -2.1162   XZ=              0.1266   YZ=             -0.1536

 Normal termination of Gaussian 09 at Thu Aug 27 00:13:46 2020.
