 Gaussian 09, Revision D.01,
 Gaussian 09:  ES64L-G09RevD.01 24-Apr-2013

 --------------------
 #p B2PLYPD3/Def2QZVP
 --------------------

 --------
 methanol
 --------
 Symbolic Z-matrix:
 Charge =  0 Multiplicity = 1

                         Standard orientation:
 ---------------------------------------------------------------------
 Center     Atomic      Atomic             Coordinates (Angstroms)
 Number     Number       Type             X           Y           Z
 ---------------------------------------------------------------------
      1          6           0        0.664494    0.022436    0.009454
      2          8           0       -0.744617   -0.142159   -0.003606
      3          1           0        1.089394    0.456212    0.852021
      4          1           0        0.989313    0.613233   -0.844218
      5          1           0        1.079692   -0.934399   -0.085786
      6          1           0       -1.188427    0.867615    0.050101
 ---------------------------------------------------------------------

 SCF Done:  E(RB2PLYPD3) =  -115.531867274     A.U. after   11 cycles
 E2(B2PLYPD3) =    -0.1496929224D+00 E(B2PLYPD3) =    -0.11568156019675D+03

 The electronic state is 1-A.
 Alpha  occ. eigenvalues --  -19.73723 -10.64288  -1.13843  -0.78645  -0.57117
 Alpha  occ. eigenvalues --   -0.51762  -0.49658  -0.40853  -0.35121
 Alpha virt. eigenvalues --    0.03717   0.07781   0.12603   0.12651   0.14981
 Alpha virt. eigenvalues --    0.17327   0.18338   0.28781   0.30175   0.33224
 Alpha virt. eigenvalues --    0.34394   0.38936   0.39652   0.41754   0.44130

 Mulliken charges:
               1
     1  C    0.077209
     2  O   -0.484849
     3  H    0.048567
     4  H    0.040553
     5  H    0.067186
     6  H    0.251334
 Sum of Mulliken charges =   0.00000

 Dipole moment (field-independent basis, Debye):
    X=              0.8643    Y=              1.6058    Z=              0.1186  Tot=              1.8275
 Quadrupole moment (field-independent basis, Debye-Ang):
   XX=            -12.8580   YY=            -12.0228   ZZ=            -13.9253
   XY=             -2.4117   XZ=              0.0026   YZ=              0.1128

 Normal termination of Gaussian 09 at Wed Aug 26 10:27:03 2020.
