 Gaussian 09, Revision D.01,
 Gaussian 09:  ES64L-G09RevD.01 24-Apr-2013

 --------------------
 #p B2PLYPD3/Def2QZVP
 --------------------

 --------
 methanol
 --------
 Symbolic Z-matrix:
 Charge =  0 Multiplicity = 1

                         Standard orientation:
 ---------------------------------------------------------------------
 Center     Atomic      Atomic             Coordinates (Angstroms)
 Number     Number       Type             X           Y           Z
 ---------------------------------------------------------------------
      1          6           0        0.651283    0.003954    0.008421
      2          8           0       -0.743248   -0.067999   -0.054668
      3          1           0        1.022163   -0.069723    1.087640
      4          1           0        0.988875    1.037759   -0.533651
      5          1           0        1.083054   -0.863764   -0.522937
      6          1           0       -1.055807    0.416000    0.355771
 ---------------------------------------------------------------------

 SCF Done:  E(RB2PLYPD3) =  -115.430855797     A.U. after   11 cycles
 E2(B2PLYPD3) =    -0.1437737519D+00 E(B2PLYPD3) =    -0.11557462954908D+03

 The electronic state is 1-A.
 Alpha  occ. eigenvalues --  -19.70025 -10.68027  -1.24690  -0.81253  -0.61598
 Alpha  occ. eigenvalues --   -0.51811  -0.51146  -0.41053  -0.35695
 Alpha virt. eigenvalues --    0.05366   0.09255   0.11567   0.12348   0.14317
 Alpha virt. eigenvalues --    0.17156   0.17819   0.28468   0.32285   0.33811
 Alpha virt. eigenvalues --    0.36212   0.38373   0.39959   0.40879   0.43235

 Mulliken charges:
               1
     1  C    0.051072
     2  O   -0.247936
     3  H    0.045910
     4  H    0.039177
     5  H    0.082527
     6  H    0.029249
 Sum of Mulliken charges =   0.00000

 Dipole moment (field-independent basis, Debye):
    X=              0.8614    Y=              0.8276    Z=              0.8352  Tot=              1.4576
 Quadrupole moment (field-independent basis, Debye-Ang):
   XX=            -13.2834   YY=            -12.9292   ZZ=            -13.1565
   XY=             -1.6957   XZ=             -1.1572   YZ=              0.4396

 Normal termination of Gaussian 09 at Wed Aug 26 15:35:07 2020.
