 Gaussian 09, Revision D.01,
 Gaussian 09:  ES64L-G09RevD.01 24-Apr-2013

 --------------------
 #p B2PLYPD3/Def2QZVP
 --------------------

 --------
 methanol
 --------
 Symbolic Z-matrix:
 Charge =  0 Multiplicity = 1

                         Standard orientation:
 ---------------------------------------------------------------------
 Center     Atomic      Atomic             Coordinates (Angstroms)
 Number     Number       Type             X           Y           Z
 ---------------------------------------------------------------------
      1          6           0       -0.666012   -0.010264    0.005546
      2          8           0        0.757659    0.097601   -0.013677
      3          1           0       -1.045755   -0.443051    0.961970
      4          1           0       -1.048565   -0.657653   -0.882351
      5          1           0       -1.066688    1.018983   -0.087703
      6          1           0        1.095807   -0.637505    0.084221
 ---------------------------------------------------------------------

 SCF Done:  E(RB2PLYPD3) =  -115.523442088     A.U. after   10 cycles
 E2(B2PLYPD3) =    -0.1453800323D+00 E(B2PLYPD3) =    -0.11566882212067D+03

 The electronic state is 1-A.
 Alpha  occ. eigenvalues --  -19.71266 -10.67240  -1.19825  -0.79570  -0.60349
 Alpha  occ. eigenvalues --   -0.51137  -0.50168  -0.41461  -0.35729
 Alpha virt. eigenvalues --    0.05361   0.08713   0.12000   0.12241   0.14701
 Alpha virt. eigenvalues --    0.17131   0.17960   0.28912   0.32696   0.33191
 Alpha virt. eigenvalues --    0.37059   0.38952   0.39565   0.39988   0.42865

 Mulliken charges:
               1
     1  C    0.061269
     2  O   -0.369735
     3  H    0.051139
     4  H    0.044706
     5  H    0.077258
     6  H    0.135363
 Sum of Mulliken charges =   0.00000

 Dipole moment (field-independent basis, Debye):
    X=             -0.9381    Y=             -1.3191    Z=              0.2283  Tot=              1.6347
 Quadrupole moment (field-independent basis, Debye-Ang):
   XX=            -13.1469   YY=            -12.4003   ZZ=            -13.6874
   XY=             -2.0742   XZ=              0.1981   YZ=             -0.1488

 Normal termination of Gaussian 09 at Wed Aug 26 10:08:18 2020.
