 Gaussian 09, Revision D.01,
 Gaussian 09:  ES64L-G09RevD.01 24-Apr-2013

 --------------------
 #p B2PLYPD3/Def2QZVP
 --------------------

 --------
 methanol
 --------
 Symbolic Z-matrix:
 Charge =  0 Multiplicity = 1

                         Standard orientation:
 ---------------------------------------------------------------------
 Center     Atomic      Atomic             Coordinates (Angstroms)
 Number     Number       Type             X           Y           Z
 ---------------------------------------------------------------------
      1          6           0        0.670913   -0.008095    0.013940
      2          8           0       -0.753387    0.092764   -0.012840
      3          1           0        1.053892   -0.699227   -0.832702
      4          1           0        0.955390   -0.448896    0.943345
      5          1           0        1.037590    1.071907   -0.121417
      6          1           0       -1.045257   -0.617326    0.029856
 ---------------------------------------------------------------------

 SCF Done:  E(RB2PLYPD3) =  -115.493798041     A.U. after   10 cycles
 E2(B2PLYPD3) =    -0.1446324672D+00 E(B2PLYPD3) =    -0.11563843050785D+03

 The electronic state is 1-A.
 Alpha  occ. eigenvalues --  -19.70428 -10.67104  -1.21474  -0.80059  -0.61107
 Alpha  occ. eigenvalues --   -0.51830  -0.49562  -0.41978  -0.35785
 Alpha virt. eigenvalues --    0.05340   0.09089   0.11758   0.12159   0.14904
 Alpha virt. eigenvalues --    0.16938   0.17471   0.28986   0.32366   0.33027
 Alpha virt. eigenvalues --    0.37371   0.38138   0.40055   0.41022   0.43020

 Mulliken charges:
               1
     1  C    0.066209
     2  O   -0.325728
     3  H    0.040121
     4  H    0.057313
     5  H    0.076891
     6  H    0.085195
 Sum of Mulliken charges =   0.00000

 Dipole moment (field-independent basis, Debye):
    X=              1.0154    Y=             -1.3491    Z=              0.1617  Tot=              1.6963
 Quadrupole moment (field-independent basis, Debye-Ang):
   XX=            -13.4391   YY=            -12.1455   ZZ=            -13.6608
   XY=              1.9048   XZ=             -0.1112   YZ=             -0.1412

 Normal termination of Gaussian 09 at Wed Aug 26 14:21:41 2020.
