 Gaussian 09, Revision D.01,
 Gaussian 09:  ES64L-G09RevD.01 24-Apr-2013

 --------------------
 #p B2PLYPD3/Def2QZVP
 --------------------

 --------
 methanol
 --------
 Symbolic Z-matrix:
 Charge =  0 Multiplicity = 1

                         Standard orientation:
 ---------------------------------------------------------------------
 Center     Atomic      Atomic             Coordinates (Angstroms)
 Number     Number       Type             X           Y           Z
 ---------------------------------------------------------------------
      1          6           0        0.656546    0.050397    0.027257
      2          8           0       -0.729908   -0.194346   -0.014374
      3          1           0        0.909762    0.412941    0.809986
      4          1           0        1.064904    0.510084   -0.809844
      5          1           0        1.125138   -0.798754   -0.053429
      6          1           0       -1.199812    1.128116    0.004738
 ---------------------------------------------------------------------

 SCF Done:  E(RB2PLYPD3) =  -115.417313381     A.U. after   11 cycles
 E2(B2PLYPD3) =    -0.1554095816D+00 E(B2PLYPD3) =    -0.11557272296237D+03

 The electronic state is 1-A.
 Alpha  occ. eigenvalues --  -19.75318 -10.60965  -1.12257  -0.80870  -0.56334
 Alpha  occ. eigenvalues --   -0.52993  -0.49355  -0.38814  -0.35556
 Alpha virt. eigenvalues --   -0.01375   0.07500   0.12671   0.12960   0.14575
 Alpha virt. eigenvalues --    0.17842   0.18856   0.22245   0.29252   0.33349
 Alpha virt. eigenvalues --    0.34875   0.38849   0.40770   0.42864   0.45135

 Mulliken charges:
               1
     1  C    0.090457
     2  O   -0.478507
     3  H    0.061253
     4  H    0.044560
     5  H    0.047342
     6  H    0.234895
 Sum of Mulliken charges =   0.00000

 Dipole moment (field-independent basis, Debye):
    X=              1.1104    Y=              1.6974    Z=              0.0929  Tot=              2.0305
 Quadrupole moment (field-independent basis, Debye-Ang):
   XX=            -13.0114   YY=            -11.6304   ZZ=            -13.7220
   XY=             -2.5369   XZ=             -0.0890   YZ=              0.1189

 Normal termination of Gaussian 09 at Wed Aug 26 23:44:59 2020.
