 Gaussian 09, Revision D.01,
 Gaussian 09:  ES64L-G09RevD.01 24-Apr-2013

 --------------------
 #p B2PLYPD3/Def2QZVP
 --------------------

 --------
 methanol
 --------
 Symbolic Z-matrix:
 Charge =  0 Multiplicity = 1

                         Standard orientation:
 ---------------------------------------------------------------------
 Center     Atomic      Atomic             Coordinates (Angstroms)
 Number     Number       Type             X           Y           Z
 ---------------------------------------------------------------------
      1          6           0       -0.657536   -0.022296    0.011439
      2          8           0        0.746927    0.123966   -0.009312
      3          1           0       -1.034904   -0.458526    0.893940
      4          1           0       -1.068871   -0.612247   -0.849162
      5          1           0       -1.075416    0.990008   -0.073271
      6          1           0        1.148989   -0.777190    0.034353
 ---------------------------------------------------------------------

 SCF Done:  E(RB2PLYPD3) =  -115.549943093     A.U. after   10 cycles
 E2(B2PLYPD3) =    -0.1477598234D+00 E(B2PLYPD3) =    -0.11569770291692D+03

 The electronic state is 1-A.
 Alpha  occ. eigenvalues --  -19.73012 -10.65504  -1.15955  -0.78498  -0.58761
 Alpha  occ. eigenvalues --   -0.51624  -0.49686  -0.40959  -0.35389
 Alpha virt. eigenvalues --    0.04774   0.08070   0.12358   0.12515   0.15036
 Alpha virt. eigenvalues --    0.17264   0.18261   0.29084   0.33232   0.33704
 Alpha virt. eigenvalues --    0.34653   0.38286   0.39535   0.41175   0.43990

 Mulliken charges:
               1
     1  C    0.067582
     2  O   -0.459773
     3  H    0.052150
     4  H    0.040831
     5  H    0.066591
     6  H    0.232619
 Sum of Mulliken charges =   0.00000

 Dipole moment (field-independent basis, Debye):
    X=             -0.8256    Y=             -1.5301    Z=              0.1338  Tot=              1.7437
 Quadrupole moment (field-independent basis, Debye-Ang):
   XX=            -12.9678   YY=            -12.2187   ZZ=            -13.8717
   XY=             -2.2444   XZ=              0.0604   YZ=             -0.1100

 Normal termination of Gaussian 09 at Thu Aug 27 00:01:32 2020.
