 Gaussian 09, Revision D.01,
 Gaussian 09:  ES64L-G09RevD.01 24-Apr-2013

 --------------------
 #p B2PLYPD3/Def2QZVP
 --------------------

 --------
 methanol
 --------
 Symbolic Z-matrix:
 Charge =  0 Multiplicity = 1

                         Standard orientation:
 ---------------------------------------------------------------------
 Center     Atomic      Atomic             Coordinates (Angstroms)
 Number     Number       Type             X           Y           Z
 ---------------------------------------------------------------------
      1          6           0       -0.676826    0.004789   -0.004220
      2          8           0        0.742895   -0.145885   -0.016879
      3          1           0       -1.081291    0.600369   -0.820057
      4          1           0       -0.996154    0.454327    0.891820
      5          1           0       -0.989160   -0.869149    0.009237
      6          1           0        1.184398    0.952799    0.079355
 ---------------------------------------------------------------------

 SCF Done:  E(RB2PLYPD3) =  -115.494693216     A.U. after   11 cycles
 E2(B2PLYPD3) =    -0.1513123521D+00 E(B2PLYPD3) =    -0.11564600556800D+03

 The electronic state is 1-A.
 Alpha  occ. eigenvalues --  -19.74015 -10.63067  -1.12681  -0.79493  -0.56724
 Alpha  occ. eigenvalues --   -0.51522  -0.49770  -0.41131  -0.34857
 Alpha virt. eigenvalues --    0.02611   0.07757   0.12524   0.12911   0.14900
 Alpha virt. eigenvalues --    0.17048   0.18345   0.26930   0.29567   0.33341
 Alpha virt. eigenvalues --    0.33988   0.38198   0.41006   0.41311   0.43754

 Mulliken charges:
               1
     1  C    0.072186
     2  O   -0.495719
     3  H    0.045835
     4  H    0.041570
     5  H    0.084183
     6  H    0.251944
 Sum of Mulliken charges =   0.00000

 Dipole moment (field-independent basis, Debye):
    X=             -0.9649    Y=              1.5907    Z=              0.1950  Tot=              1.8707
 Quadrupole moment (field-independent basis, Debye-Ang):
   XX=            -13.0354   YY=            -11.7052   ZZ=            -13.8812
   XY=              2.4320   XZ=              0.1987   YZ=              0.0706

 Normal termination of Gaussian 09 at Wed Aug 26 14:08:29 2020.
