 Gaussian 09, Revision D.01,
 Gaussian 09:  ES64L-G09RevD.01 24-Apr-2013

 --------------------
 #p B2PLYPD3/Def2QZVP
 --------------------

 --------
 methanol
 --------
 Symbolic Z-matrix:
 Charge =  0 Multiplicity = 1

                         Standard orientation:
 ---------------------------------------------------------------------
 Center     Atomic      Atomic             Coordinates (Angstroms)
 Number     Number       Type             X           Y           Z
 ---------------------------------------------------------------------
      1          6           0       -0.663966   -0.025682    0.001122
      2          8           0        0.755589    0.103989   -0.011470
      3          1           0       -1.002194   -0.463136    0.975010
      4          1           0       -1.054729   -0.620983   -0.883651
      5          1           0       -1.131648    1.021632   -0.055806
      6          1           0        1.127654   -0.615335    0.049472
 ---------------------------------------------------------------------

 SCF Done:  E(RB2PLYPD3) =  -115.521201791     A.U. after   10 cycles
 E2(B2PLYPD3) =    -0.1453292687D+00 E(B2PLYPD3) =    -0.11566653105991D+03

 The electronic state is 1-A.
 Alpha  occ. eigenvalues --  -19.71177 -10.67430  -1.19841  -0.79570  -0.60400
 Alpha  occ. eigenvalues --   -0.51712  -0.49834  -0.40618  -0.35923
 Alpha virt. eigenvalues --    0.05387   0.08673   0.12026   0.12233   0.14467
 Alpha virt. eigenvalues --    0.17286   0.18089   0.28859   0.32803   0.33247
 Alpha virt. eigenvalues --    0.36637   0.38818   0.39497   0.39967   0.43109

 Mulliken charges:
               1
     1  C    0.060420
     2  O   -0.368966
     3  H    0.052887
     4  H    0.052190
     5  H    0.070408
     6  H    0.133061
 Sum of Mulliken charges =   0.00000

 Dipole moment (field-independent basis, Debye):
    X=             -0.8926    Y=             -1.3517    Z=              0.1337  Tot=              1.6253
 Quadrupole moment (field-independent basis, Debye-Ang):
   XX=            -12.9541   YY=            -12.5886   ZZ=            -13.6321
   XY=             -2.1292   XZ=              0.1976   YZ=             -0.0511

 Normal termination of Gaussian 09 at Wed Aug 26 23:47:19 2020.
