 Gaussian 09, Revision D.01,
 Gaussian 09:  ES64L-G09RevD.01 24-Apr-2013

 --------------------
 #p B2PLYPD3/Def2QZVP
 --------------------

 --------
 methanol
 --------
 Symbolic Z-matrix:
 Charge =  0 Multiplicity = 1

                         Standard orientation:
 ---------------------------------------------------------------------
 Center     Atomic      Atomic             Coordinates (Angstroms)
 Number     Number       Type             X           Y           Z
 ---------------------------------------------------------------------
      1          6           0       -0.624354   -0.021344    0.001306
      2          8           0        0.744480    0.053201   -0.024146
      3          1           0       -1.016426   -0.461251    1.025174
      4          1           0       -1.140416   -0.727497   -0.859614
      5          1           0       -1.107423    1.218843   -0.087672
      6          1           0        1.054551   -0.327641    0.107443
 ---------------------------------------------------------------------

 SCF Done:  E(RB2PLYPD3) =  -114.805414073     A.U. after   12 cycles
 E2(B2PLYPD3) =    -0.1435575546D+00 E(B2PLYPD3) =    -0.11494897162721D+03

 The electronic state is 1-A.
 Alpha  occ. eigenvalues --  -19.69736 -10.71327  -1.34959  -0.86080  -0.63574
 Alpha  occ. eigenvalues --   -0.51802  -0.50486  -0.39207  -0.36439
 Alpha virt. eigenvalues --    0.04567   0.09593   0.10623   0.11691   0.14692
 Alpha virt. eigenvalues --    0.16753   0.17551   0.27994   0.31347   0.32119
 Alpha virt. eigenvalues --    0.34898   0.35970   0.37804   0.41383   0.42201

 Mulliken charges:
               1
     1  C    0.042707
     2  O   -0.009561
     3  H    0.045629
     4  H    0.050959
     5  H    0.061389
     6  H   -0.191124
 Sum of Mulliken charges =   0.00000

 Dipole moment (field-independent basis, Debye):
    X=             -0.7056    Y=             -1.0245    Z=              0.4028  Tot=              1.3075
 Quadrupole moment (field-independent basis, Debye-Ang):
   XX=            -13.0298   YY=            -12.7681   ZZ=            -13.6088
   XY=             -1.3918   XZ=              0.4809   YZ=             -0.1425

 Normal termination of Gaussian 09 at Wed Aug 26 22:08:57 2020.
