 Gaussian 09, Revision D.01,
 Gaussian 09:  ES64L-G09RevD.01 24-Apr-2013

 --------------------
 #p B2PLYPD3/Def2QZVP
 --------------------

 --------
 methanol
 --------
 Symbolic Z-matrix:
 Charge =  0 Multiplicity = 1

                         Standard orientation:
 ---------------------------------------------------------------------
 Center     Atomic      Atomic             Coordinates (Angstroms)
 Number     Number       Type             X           Y           Z
 ---------------------------------------------------------------------
      1          6           0       -0.674095   -0.006237    0.020438
      2          8           0        0.747748    0.066930   -0.034718
      3          1           0       -0.999291   -0.211405    1.045285
      4          1           0       -1.067668   -0.858568   -0.768124
      5          1           0       -0.975327    1.050600   -0.312291
      6          1           0        1.104871   -0.478643    0.190248
 ---------------------------------------------------------------------

 SCF Done:  E(RB2PLYPD3) =  -115.403328897     A.U. after   11 cycles
 E2(B2PLYPD3) =    -0.1438898388D+00 E(B2PLYPD3) =    -0.11554721873622D+03

 The electronic state is 1-A.
 Alpha  occ. eigenvalues --  -19.69307 -10.68374  -1.24131  -0.81716  -0.61469
 Alpha  occ. eigenvalues --   -0.51277  -0.50077  -0.40908  -0.35900
 Alpha virt. eigenvalues --    0.05333   0.09264   0.11637   0.11904   0.14526
 Alpha virt. eigenvalues --    0.16530   0.17764   0.28803   0.32157   0.32839
 Alpha virt. eigenvalues --    0.36166   0.37823   0.40321   0.40910   0.42352

 Mulliken charges:
               1
     1  C    0.049949
     2  O   -0.241848
     3  H    0.061423
     4  H    0.042896
     5  H    0.084409
     6  H    0.003170
 Sum of Mulliken charges =   0.00000

 Dipole moment (field-independent basis, Debye):
    X=             -0.8817    Y=             -1.0507    Z=              0.5834  Tot=              1.4905
 Quadrupole moment (field-independent basis, Debye-Ang):
   XX=            -13.1928   YY=            -12.6061   ZZ=            -13.3409
   XY=             -1.7488   XZ=              0.5825   YZ=             -0.3469

 Normal termination of Gaussian 09 at Wed Aug 26 13:25:34 2020.
