 Gaussian 09, Revision D.01,
 Gaussian 09:  ES64L-G09RevD.01 24-Apr-2013

 --------------------
 #p B2PLYPD3/Def2QZVP
 --------------------

 --------
 methanol
 --------
 Symbolic Z-matrix:
 Charge =  0 Multiplicity = 1

                         Standard orientation:
 ---------------------------------------------------------------------
 Center     Atomic      Atomic             Coordinates (Angstroms)
 Number     Number       Type             X           Y           Z
 ---------------------------------------------------------------------
      1          6           0        0.659860    0.040704   -0.014948
      2          8           0       -0.728752   -0.168469    0.006506
      3          1           0        0.990140    0.556295    0.814548
      4          1           0        0.981650    0.522521   -0.771291
      5          1           0        1.128880   -0.922835    0.017306
      6          1           0       -1.229811    0.947545   -0.022926
 ---------------------------------------------------------------------

 SCF Done:  E(RB2PLYPD3) =  -115.491899939     A.U. after   11 cycles
 E2(B2PLYPD3) =    -0.1514030552D+00 E(B2PLYPD3) =    -0.11564330299375D+03

 The electronic state is 1-A.
 Alpha  occ. eigenvalues --  -19.74220 -10.62655  -1.13098  -0.79302  -0.56414
 Alpha  occ. eigenvalues --   -0.53033  -0.49255  -0.40150  -0.35058
 Alpha virt. eigenvalues --    0.01991   0.07661   0.12551   0.12995   0.15048
 Alpha virt. eigenvalues --    0.17579   0.18168   0.25751   0.29623   0.33485
 Alpha virt. eigenvalues --    0.34879   0.38803   0.39670   0.42958   0.45044

 Mulliken charges:
               1
     1  C    0.095239
     2  O   -0.491249
     3  H    0.040403
     4  H    0.045822
     5  H    0.058845
     6  H    0.250940
 Sum of Mulliken charges =   0.00000

 Dipole moment (field-independent basis, Debye):
    X=              0.8615    Y=              1.7509    Z=             -0.0949  Tot=              1.9537
 Quadrupole moment (field-independent basis, Debye-Ang):
   XX=            -12.7707   YY=            -11.7979   ZZ=            -13.9383
   XY=             -2.4584   XZ=              0.0016   YZ=             -0.1016

 Normal termination of Gaussian 09 at Wed Aug 26 16:32:06 2020.
