 Gaussian 09, Revision D.01,
 Gaussian 09:  ES64L-G09RevD.01 24-Apr-2013

 --------------------
 #p B2PLYPD3/Def2QZVP
 --------------------

 --------
 methanol
 --------
 Symbolic Z-matrix:
 Charge =  0 Multiplicity = 1

                         Standard orientation:
 ---------------------------------------------------------------------
 Center     Atomic      Atomic             Coordinates (Angstroms)
 Number     Number       Type             X           Y           Z
 ---------------------------------------------------------------------
      1          6           0        0.644222   -0.003446   -0.000192
      2          8           0       -0.742348    0.088273   -0.011311
      3          1           0        1.053601   -0.748255   -0.828368
      4          1           0        1.018090   -0.377511    1.047126
      5          1           0        1.085822    1.008128   -0.183205
      6          1           0       -1.084065   -0.567868    0.056088
 ---------------------------------------------------------------------

 SCF Done:  E(RB2PLYPD3) =  -115.470223507     A.U. after   10 cycles
 E2(B2PLYPD3) =    -0.1442163276D+00 E(B2PLYPD3) =    -0.11561443983432D+03

 The electronic state is 1-A.
 Alpha  occ. eigenvalues --  -19.70665 -10.68096  -1.23492  -0.80723  -0.61555
 Alpha  occ. eigenvalues --   -0.51397  -0.51170  -0.40892  -0.35482
 Alpha virt. eigenvalues --    0.05357   0.09038   0.11799   0.12259   0.14635
 Alpha virt. eigenvalues --    0.17168   0.17805   0.28638   0.32539   0.34108
 Alpha virt. eigenvalues --    0.36458   0.38543   0.39295   0.40491   0.42741

 Mulliken charges:
               1
     1  C    0.051549
     2  O   -0.275321
     3  H    0.036244
     4  H    0.041253
     5  H    0.081532
     6  H    0.064743
 Sum of Mulliken charges =   0.00000

 Dipole moment (field-independent basis, Debye):
    X=              0.7679    Y=             -1.1917    Z=              0.1222  Tot=              1.4230
 Quadrupole moment (field-independent basis, Debye-Ang):
   XX=            -13.1499   YY=            -12.5506   ZZ=            -13.7169
   XY=              2.0576   XZ=             -0.2615   YZ=             -0.1123

 Normal termination of Gaussian 09 at Wed Aug 26 15:10:44 2020.
