 Gaussian 09, Revision D.01,
 Gaussian 09:  ES64L-G09RevD.01 24-Apr-2013

 --------------------
 #p B2PLYPD3/Def2QZVP
 --------------------

 --------
 methanol
 --------
 Symbolic Z-matrix:
 Charge =  0 Multiplicity = 1

                         Standard orientation:
 ---------------------------------------------------------------------
 Center     Atomic      Atomic             Coordinates (Angstroms)
 Number     Number       Type             X           Y           Z
 ---------------------------------------------------------------------
      1          6           0        0.665221   -0.006866    0.003890
      2          8           0       -0.744254    0.102037   -0.014976
      3          1           0        1.027233   -0.688519   -0.865038
      4          1           0        1.027229   -0.433930    0.971818
      5          1           0        1.055611    0.992515   -0.102683
      6          1           0       -1.147361   -0.645167    0.092369
 ---------------------------------------------------------------------

 SCF Done:  E(RB2PLYPD3) =  -115.538207938     A.U. after   10 cycles
 E2(B2PLYPD3) =    -0.1456151892D+00 E(B2PLYPD3) =    -0.11568382312730D+03

 The electronic state is 1-A.
 Alpha  occ. eigenvalues --  -19.71414 -10.66768  -1.18621  -0.79543  -0.59939
 Alpha  occ. eigenvalues --   -0.51162  -0.50776  -0.40930  -0.35272
 Alpha virt. eigenvalues --    0.05315   0.08630   0.12076   0.12422   0.14744
 Alpha virt. eigenvalues --    0.17052   0.17898   0.29054   0.32886   0.33544
 Alpha virt. eigenvalues --    0.37005   0.39316   0.39534   0.40217   0.43103

 Mulliken charges:
               1
     1  C    0.065752
     2  O   -0.406355
     3  H    0.041154
     4  H    0.046953
     5  H    0.080794
     6  H    0.171702
 Sum of Mulliken charges =   0.00000

 Dipole moment (field-independent basis, Debye):
    X=              0.8025    Y=             -1.3153    Z=              0.2395  Tot=              1.5593
 Quadrupole moment (field-independent basis, Debye-Ang):
   XX=            -12.9795   YY=            -12.4057   ZZ=            -13.7278
   XY=              2.2028   XZ=             -0.2382   YZ=             -0.1573

 Normal termination of Gaussian 09 at Thu Aug 27 00:13:59 2020.
