 Gaussian 09, Revision D.01,
 Gaussian 09:  ES64L-G09RevD.01 24-Apr-2013

 --------------------
 #p B2PLYPD3/Def2QZVP
 --------------------

 --------
 methanol
 --------
 Symbolic Z-matrix:
 Charge =  0 Multiplicity = 1

                         Standard orientation:
 ---------------------------------------------------------------------
 Center     Atomic      Atomic             Coordinates (Angstroms)
 Number     Number       Type             X           Y           Z
 ---------------------------------------------------------------------
      1          6           0        0.661037    0.022131    0.009918
      2          8           0       -0.752740   -0.153657   -0.023046
      3          1           0        1.005029    0.358819    0.893481
      4          1           0        1.082591    0.635725   -0.809804
      5          1           0        1.106613   -0.866708   -0.067933
      6          1           0       -1.138538    0.968634    0.109113
 ---------------------------------------------------------------------

 SCF Done:  E(RB2PLYPD3) =  -115.502691617     A.U. after   11 cycles
 E2(B2PLYPD3) =    -0.1516683180D+00 E(B2PLYPD3) =    -0.11565435993551D+03

 The electronic state is 1-A.
 Alpha  occ. eigenvalues --  -19.74544 -10.63504  -1.12932  -0.79272  -0.55591
 Alpha  occ. eigenvalues --   -0.52070  -0.49791  -0.40633  -0.35362
 Alpha virt. eigenvalues --    0.02453   0.07580   0.12459   0.12908   0.14704
 Alpha virt. eigenvalues --    0.17684   0.18661   0.26342   0.29395   0.33545
 Alpha virt. eigenvalues --    0.33962   0.38447   0.40922   0.41630   0.43488

 Mulliken charges:
               1
     1  C    0.083031
     2  O   -0.487307
     3  H    0.047526
     4  H    0.040418
     5  H    0.061014
     6  H    0.255318
 Sum of Mulliken charges =   0.00000

 Dipole moment (field-independent basis, Debye):
    X=              1.0174    Y=              1.6097    Z=              0.2867  Tot=              1.9257
 Quadrupole moment (field-independent basis, Debye-Ang):
   XX=            -13.1006   YY=            -11.8872   ZZ=            -13.8484
   XY=             -2.4504   XZ=             -0.2083   YZ=              0.1705

 Normal termination of Gaussian 09 at Wed Aug 26 16:22:36 2020.
