 Gaussian 09, Revision D.01,
 Gaussian 09:  ES64L-G09RevD.01 24-Apr-2013

 --------------------
 #p B2PLYPD3/Def2QZVP
 --------------------

 --------
 methanol
 --------
 Symbolic Z-matrix:
 Charge =  0 Multiplicity = 1

                         Standard orientation:
 ---------------------------------------------------------------------
 Center     Atomic      Atomic             Coordinates (Angstroms)
 Number     Number       Type             X           Y           Z
 ---------------------------------------------------------------------
      1          6           0       -0.666819   -0.029113   -0.007255
      2          8           0        0.752674    0.095186   -0.010767
      3          1           0       -1.042680   -0.450783    0.986301
      4          1           0       -0.931385   -0.685115   -0.884357
      5          1           0       -1.176031    1.048738   -0.090737
      6          1           0        1.129617   -0.499647    0.118461
 ---------------------------------------------------------------------

 SCF Done:  E(RB2PLYPD3) =  -115.439548412     A.U. after   11 cycles
 E2(B2PLYPD3) =    -0.1441558708D+00 E(B2PLYPD3) =    -0.11558370428307D+03

 The electronic state is 1-A.
 Alpha  occ. eigenvalues --  -19.69740 -10.68382  -1.23083  -0.81000  -0.61356
 Alpha  occ. eigenvalues --   -0.52216  -0.49645  -0.40084  -0.36102
 Alpha virt. eigenvalues --    0.05356   0.09078   0.11877   0.11969   0.14235
 Alpha virt. eigenvalues --    0.17197   0.17728   0.28805   0.32155   0.33153
 Alpha virt. eigenvalues --    0.35467   0.38571   0.39183   0.40641   0.43043

 Mulliken charges:
               1
     1  C    0.059873
     2  O   -0.273615
     3  H    0.049713
     4  H    0.058924
     5  H    0.073337
     6  H    0.031768
 Sum of Mulliken charges =   0.00000

 Dipole moment (field-independent basis, Debye):
    X=             -0.9068    Y=             -1.2429    Z=              0.2606  Tot=              1.5604
 Quadrupole moment (field-independent basis, Debye-Ang):
   XX=            -12.9033   YY=            -12.7075   ZZ=            -13.5052
   XY=             -2.0364   XZ=              0.2826   YZ=             -0.0738

 Normal termination of Gaussian 09 at Wed Aug 26 15:07:49 2020.
