 Gaussian 09, Revision D.01,
 Gaussian 09:  ES64L-G09RevD.01 24-Apr-2013

 --------------------
 #p B2PLYPD3/Def2QZVP
 --------------------

 --------
 methanol
 --------
 Symbolic Z-matrix:
 Charge =  0 Multiplicity = 1

                         Standard orientation:
 ---------------------------------------------------------------------
 Center     Atomic      Atomic             Coordinates (Angstroms)
 Number     Number       Type             X           Y           Z
 ---------------------------------------------------------------------
      1          6           0       -0.647011   -0.037313    0.012470
      2          8           0        0.744910    0.092156   -0.021507
      3          1           0       -0.983774   -0.372209    0.988470
      4          1           0       -1.039645   -0.703002   -0.848725
      5          1           0       -1.117665    1.095007   -0.142955
      6          1           0        1.063870   -0.533170    0.100443
 ---------------------------------------------------------------------

 SCF Done:  E(RB2PLYPD3) =  -115.433708959     A.U. after   10 cycles
 E2(B2PLYPD3) =    -0.1439901538D+00 E(B2PLYPD3) =    -0.11557769911248D+03

 The electronic state is 1-A.
 Alpha  occ. eigenvalues --  -19.70212 -10.68070  -1.24632  -0.80804  -0.62200
 Alpha  occ. eigenvalues --   -0.52672  -0.49682  -0.40227  -0.36396
 Alpha virt. eigenvalues --    0.05286   0.09215   0.11593   0.12018   0.14553
 Alpha virt. eigenvalues --    0.17157   0.17986   0.28519   0.33085   0.33439
 Alpha virt. eigenvalues --    0.35038   0.38254   0.40436   0.41030   0.42901

 Mulliken charges:
               1
     1  C    0.048445
     2  O   -0.249886
     3  H    0.060306
     4  H    0.051044
     5  H    0.058313
     6  H    0.031778
 Sum of Mulliken charges =   0.00000

 Dipole moment (field-independent basis, Debye):
    X=             -0.8376    Y=             -1.3124    Z=              0.3243  Tot=              1.5903
 Quadrupole moment (field-independent basis, Debye-Ang):
   XX=            -13.2206   YY=            -12.6536   ZZ=            -13.4800
   XY=             -1.8209   XZ=              0.3045   YZ=             -0.1379

 Normal termination of Gaussian 09 at Wed Aug 26 11:18:05 2020.
