 Gaussian 09, Revision D.01,
 Gaussian 09:  ES64L-G09RevD.01 24-Apr-2013

 --------------------
 #p B2PLYPD3/Def2QZVP
 --------------------

 --------
 methanol
 --------
 Symbolic Z-matrix:
 Charge =  0 Multiplicity = 1

                         Standard orientation:
 ---------------------------------------------------------------------
 Center     Atomic      Atomic             Coordinates (Angstroms)
 Number     Number       Type             X           Y           Z
 ---------------------------------------------------------------------
      1          6           0        0.648391   -0.042428    0.027884
      2          8           0       -0.759775    0.090020   -0.011492
      3          1           0        0.941382   -0.909929   -0.741938
      4          1           0        1.083351   -0.193029    0.991266
      5          1           0        1.198233    1.091489   -0.398447
      6          1           0       -1.035109   -0.454122    0.073752
 ---------------------------------------------------------------------

 SCF Done:  E(RB2PLYPD3) =  -115.239873186     A.U. after   11 cycles
 E2(B2PLYPD3) =    -0.1438834968D+00 E(B2PLYPD3) =    -0.11538375668264D+03

 The electronic state is 1-A.
 Alpha  occ. eigenvalues --  -19.69533 -10.69639  -1.29102  -0.81856  -0.63229
 Alpha  occ. eigenvalues --   -0.52872  -0.49161  -0.39779  -0.37039
 Alpha virt. eigenvalues --    0.04827   0.09315   0.10698   0.11944   0.14373
 Alpha virt. eigenvalues --    0.17212   0.17939   0.28104   0.30999   0.32683
 Alpha virt. eigenvalues --    0.33190   0.36895   0.39815   0.41606   0.43398

 Mulliken charges:
               1
     1  C    0.043544
     2  O   -0.169726
     3  H    0.046743
     4  H    0.075775
     5  H    0.050594
     6  H   -0.046930
 Sum of Mulliken charges =   0.00000

 Dipole moment (field-independent basis, Debye):
    X=              0.9482    Y=             -1.2844    Z=              0.3336  Tot=              1.6310
 Quadrupole moment (field-independent basis, Debye-Ang):
   XX=            -13.2352   YY=            -12.7464   ZZ=            -13.4916
   XY=              1.7432   XZ=             -0.0162   YZ=             -0.0630

 Normal termination of Gaussian 09 at Wed Aug 26 23:36:21 2020.
