 Gaussian 09, Revision D.01,
 Gaussian 09:  ES64L-G09RevD.01 24-Apr-2013

 --------------------
 #p B2PLYPD3/Def2QZVP
 --------------------

 --------
 methanol
 --------
 Symbolic Z-matrix:
 Charge =  0 Multiplicity = 1

                         Standard orientation:
 ---------------------------------------------------------------------
 Center     Atomic      Atomic             Coordinates (Angstroms)
 Number     Number       Type             X           Y           Z
 ---------------------------------------------------------------------
      1          6           0        0.668529   -0.017807    0.002008
      2          8           0       -0.754731    0.132176   -0.009405
      3          1           0        1.089413   -0.587059   -0.832837
      4          1           0        1.010604   -0.490692    0.887891
      5          1           0        1.084451    0.959833   -0.020255
      6          1           0       -1.157793   -0.832652    0.028395
 ---------------------------------------------------------------------

 SCF Done:  E(RB2PLYPD3) =  -115.543693888     A.U. after   10 cycles
 E2(B2PLYPD3) =    -0.1489253857D+00 E(B2PLYPD3) =    -0.11569261927393D+03

 The electronic state is 1-A.
 Alpha  occ. eigenvalues --  -19.73401 -10.64977  -1.14311  -0.78610  -0.57552
 Alpha  occ. eigenvalues --   -0.51394  -0.49578  -0.41268  -0.35295
 Alpha virt. eigenvalues --    0.04338   0.07863   0.12451   0.12594   0.14945
 Alpha virt. eigenvalues --    0.17348   0.18225   0.29082   0.31824   0.33331
 Alpha virt. eigenvalues --    0.33790   0.38885   0.39822   0.40944   0.44009

 Mulliken charges:
               1
     1  C    0.074697
     2  O   -0.480656
     3  H    0.044566
     4  H    0.047817
     5  H    0.069541
     6  H    0.244036
 Sum of Mulliken charges =   0.00000

 Dipole moment (field-independent basis, Debye):
    X=              0.9262    Y=             -1.5759    Z=              0.0989  Tot=              1.8306
 Quadrupole moment (field-independent basis, Debye-Ang):
   XX=            -12.9602   YY=            -12.0535   ZZ=            -13.9230
   XY=              2.3204   XZ=             -0.1044   YZ=             -0.0508

 Normal termination of Gaussian 09 at Wed Aug 26 10:04:56 2020.
