 Gaussian 09, Revision D.01,
 Gaussian 09:  ES64L-G09RevD.01 24-Apr-2013

 --------------------
 #p B2PLYPD3/Def2QZVP
 --------------------

 --------
 methanol
 --------
 Symbolic Z-matrix:
 Charge =  0 Multiplicity = 1

                         Standard orientation:
 ---------------------------------------------------------------------
 Center     Atomic      Atomic             Coordinates (Angstroms)
 Number     Number       Type             X           Y           Z
 ---------------------------------------------------------------------
      1          6           0       -0.660679   -0.018865    0.002605
      2          8           0        0.753205    0.132643   -0.001418
      3          1           0       -1.009206   -0.535987    0.873787
      4          1           0       -1.061595   -0.538205   -0.859054
      5          1           0       -1.106776    0.956995   -0.004479
      6          1           0        1.116011   -0.830763   -0.014538
 ---------------------------------------------------------------------

 SCF Done:  E(RB2PLYPD3) =  -115.546420388     A.U. after   10 cycles
 E2(B2PLYPD3) =    -0.1485555539D+00 E(B2PLYPD3) =    -0.11569497594187D+03

 The electronic state is 1-A.
 Alpha  occ. eigenvalues --  -19.73365 -10.65017  -1.15035  -0.78521  -0.57838
 Alpha  occ. eigenvalues --   -0.51757  -0.49704  -0.41296  -0.35360
 Alpha virt. eigenvalues --    0.04439   0.07980   0.12485   0.12518   0.14881
 Alpha virt. eigenvalues --    0.17573   0.18186   0.29102   0.32005   0.33439
 Alpha virt. eigenvalues --    0.34102   0.38869   0.40025   0.41153   0.44056

 Mulliken charges:
               1
     1  C    0.073970
     2  O   -0.471762
     3  H    0.046254
     4  H    0.043720
     5  H    0.066568
     6  H    0.241251
 Sum of Mulliken charges =   0.00000

 Dipole moment (field-independent basis, Debye):
    X=             -0.9470    Y=             -1.5792    Z=             -0.0123  Tot=              1.8414
 Quadrupole moment (field-independent basis, Debye-Ang):
   XX=            -13.1201   YY=            -12.0636   ZZ=            -13.8821
   XY=             -2.2838   XZ=              0.0079   YZ=              0.0008

 Normal termination of Gaussian 09 at Wed Aug 26 11:33:11 2020.
