 Gaussian 09, Revision D.01,
 Gaussian 09:  ES64L-G09RevD.01 24-Apr-2013

 --------------------
 #p B2PLYPD3/Def2QZVP
 --------------------

 --------
 methanol
 --------
 Symbolic Z-matrix:
 Charge =  0 Multiplicity = 1

                         Standard orientation:
 ---------------------------------------------------------------------
 Center     Atomic      Atomic             Coordinates (Angstroms)
 Number     Number       Type             X           Y           Z
 ---------------------------------------------------------------------
      1          6           0       -0.652421   -0.038431   -0.002053
      2          8           0        0.752888    0.117628   -0.010788
      3          1           0       -1.002771   -0.463870    0.910678
      4          1           0       -1.031980   -0.581706   -0.854473
      5          1           0       -1.129187    1.042817   -0.019947
      6          1           0        1.055360   -0.707676    0.062368
 ---------------------------------------------------------------------

 SCF Done:  E(RB2PLYPD3) =  -115.540923350     A.U. after   11 cycles
 E2(B2PLYPD3) =    -0.1462651150D+00 E(B2PLYPD3) =    -0.11568718846457D+03

 The electronic state is 1-A.
 Alpha  occ. eigenvalues --  -19.72182 -10.66224  -1.18712  -0.78852  -0.60061
 Alpha  occ. eigenvalues --   -0.52875  -0.49231  -0.40861  -0.36090
 Alpha virt. eigenvalues --    0.05179   0.08569   0.12023   0.12304   0.14740
 Alpha virt. eigenvalues --    0.17539   0.18208   0.28890   0.33107   0.33509
 Alpha virt. eigenvalues --    0.36332   0.37462   0.40466   0.41475   0.44026

 Mulliken charges:
               1
     1  C    0.063682
     2  O   -0.410901
     3  H    0.053596
     4  H    0.055027
     5  H    0.053594
     6  H    0.185003
 Sum of Mulliken charges =   0.00000

 Dipole moment (field-independent basis, Debye):
    X=             -0.9500    Y=             -1.5372    Z=              0.1547  Tot=              1.8137
 Quadrupole moment (field-independent basis, Debye-Ang):
   XX=            -13.3076   YY=            -12.3476   ZZ=            -13.6635
   XY=             -1.9878   XZ=              0.1600   YZ=             -0.0495

 Normal termination of Gaussian 09 at Wed Aug 26 15:05:45 2020.
