 Gaussian 09, Revision D.01,
 Gaussian 09:  ES64L-G09RevD.01 24-Apr-2013

 --------------------
 #p B2PLYPD3/Def2QZVP
 --------------------

 --------
 methanol
 --------
 Symbolic Z-matrix:
 Charge =  0 Multiplicity = 1

                         Standard orientation:
 ---------------------------------------------------------------------
 Center     Atomic      Atomic             Coordinates (Angstroms)
 Number     Number       Type             X           Y           Z
 ---------------------------------------------------------------------
      1          6           0        0.699852    0.013278    0.003265
      2          8           0       -0.749737   -0.189708   -0.010590
      3          1           0        1.084270    0.336153    0.809370
      4          1           0        0.884183    0.745837   -0.726783
      5          1           0        1.071056   -0.768169   -0.144413
      6          1           0       -1.240723    1.124172    0.126958
 ---------------------------------------------------------------------

 SCF Done:  E(RB2PLYPD3) =  -115.402310253     A.U. after   11 cycles
 E2(B2PLYPD3) =    -0.1562631364D+00 E(B2PLYPD3) =    -0.11555857338899D+03

 The electronic state is 1-A.
 Alpha  occ. eigenvalues --  -19.75076 -10.61177  -1.10210  -0.81631  -0.56330
 Alpha  occ. eigenvalues --   -0.52662  -0.48044  -0.39942  -0.34959
 Alpha virt. eigenvalues --   -0.01391   0.07507   0.12684   0.12827   0.14385
 Alpha virt. eigenvalues --    0.17421   0.18229   0.22380   0.29366   0.31828
 Alpha virt. eigenvalues --    0.33799   0.37939   0.40733   0.43355   0.44931

 Mulliken charges:
               1
     1  C    0.076422
     2  O   -0.498958
     3  H    0.045784
     4  H    0.042700
     5  H    0.099860
     6  H    0.234193
 Sum of Mulliken charges =   0.00000

 Dipole moment (field-independent basis, Debye):
    X=              1.2069    Y=              1.6985    Z=              0.2301  Tot=              2.0963
 Quadrupole moment (field-independent basis, Debye-Ang):
   XX=            -12.9088   YY=            -11.2925   ZZ=            -13.9688
   XY=             -2.6374   XZ=             -0.0122   YZ=              0.1858

 Normal termination of Gaussian 09 at Wed Aug 26 23:55:20 2020.
