 Gaussian 09, Revision D.01,
 Gaussian 09:  ES64L-G09RevD.01 24-Apr-2013

 --------------------
 #p B2PLYPD3/Def2QZVP
 --------------------

 --------
 methanol
 --------
 Symbolic Z-matrix:
 Charge =  0 Multiplicity = 1

                         Standard orientation:
 ---------------------------------------------------------------------
 Center     Atomic      Atomic             Coordinates (Angstroms)
 Number     Number       Type             X           Y           Z
 ---------------------------------------------------------------------
      1          6           0       -0.657964   -0.025269    0.013288
      2          8           0        0.750558    0.093173   -0.025215
      3          1           0       -1.013093   -0.296765    0.988163
      4          1           0       -1.101528   -0.773053   -0.776943
      5          1           0       -1.070933    1.067727   -0.204501
      6          1           0        1.128876   -0.591680    0.115274
 ---------------------------------------------------------------------

 SCF Done:  E(RB2PLYPD3) =  -115.506936870     A.U. after   11 cycles
 E2(B2PLYPD3) =    -0.1451407848D+00 E(B2PLYPD3) =    -0.11565207765466D+03

 The electronic state is 1-A.
 Alpha  occ. eigenvalues --  -19.71118 -10.67646  -1.20767  -0.79875  -0.61231
 Alpha  occ. eigenvalues --   -0.51604  -0.49447  -0.40513  -0.35991
 Alpha virt. eigenvalues --    0.05338   0.08738   0.11737   0.12248   0.14865
 Alpha virt. eigenvalues --    0.16943   0.18116   0.28883   0.33101   0.33345
 Alpha virt. eigenvalues --    0.36209   0.37809   0.39734   0.40941   0.42545

 Mulliken charges:
               1
     1  C    0.054092
     2  O   -0.341389
     3  H    0.060987
     4  H    0.045144
     5  H    0.066035
     6  H    0.115130
 Sum of Mulliken charges =   0.00000

 Dipole moment (field-independent basis, Debye):
    X=             -0.8046    Y=             -1.3236    Z=              0.3755  Tot=              1.5938
 Quadrupole moment (field-independent basis, Debye-Ang):
   XX=            -12.9769   YY=            -12.5540   ZZ=            -13.6902
   XY=             -1.9351   XZ=              0.3354   YZ=             -0.1815

 Normal termination of Gaussian 09 at Wed Aug 26 12:59:06 2020.
