 Gaussian 09, Revision D.01,
 Gaussian 09:  ES64L-G09RevD.01 24-Apr-2013

 --------------------
 #p B2PLYPD3/Def2QZVP
 --------------------

 --------
 methanol
 --------
 Symbolic Z-matrix:
 Charge =  0 Multiplicity = 1

                         Standard orientation:
 ---------------------------------------------------------------------
 Center     Atomic      Atomic             Coordinates (Angstroms)
 Number     Number       Type             X           Y           Z
 ---------------------------------------------------------------------
      1          6           0       -0.653853   -0.002397    0.011752
      2          8           0        0.759721   -0.073697   -0.039691
      3          1           0       -1.079024    1.005408   -0.560096
      4          1           0       -1.024900   -0.025594    1.087901
      5          1           0       -1.094133   -0.883870   -0.510375
      6          1           0        1.043407    0.508014    0.229585
 ---------------------------------------------------------------------

 SCF Done:  E(RB2PLYPD3) =  -115.421103880     A.U. after   11 cycles
 E2(B2PLYPD3) =    -0.1441186408D+00 E(B2PLYPD3) =    -0.11556522252091D+03

 The electronic state is 1-A.
 Alpha  occ. eigenvalues --  -19.70287 -10.68450  -1.24797  -0.80876  -0.61590
 Alpha  occ. eigenvalues --   -0.51322  -0.50839  -0.41364  -0.36031
 Alpha virt. eigenvalues --    0.05332   0.09077   0.11517   0.12268   0.14428
 Alpha virt. eigenvalues --    0.17228   0.17916   0.28410   0.32427   0.32879
 Alpha virt. eigenvalues --    0.35402   0.38500   0.39614   0.40392   0.43226

 Mulliken charges:
               1
     1  C    0.051036
     2  O   -0.248118
     3  H    0.032860
     4  H    0.054197
     5  H    0.082959
     6  H    0.027066
 Sum of Mulliken charges =   0.00000

 Dipole moment (field-independent basis, Debye):
    X=             -0.9664    Y=              1.0119    Z=              0.5641  Tot=              1.5087
 Quadrupole moment (field-independent basis, Debye-Ang):
   XX=            -13.2609   YY=            -12.7438   ZZ=            -13.4119
   XY=              1.8465   XZ=              0.8094   YZ=              0.4012

 Normal termination of Gaussian 09 at Wed Aug 26 14:41:19 2020.
