 Gaussian 09, Revision D.01,
 Gaussian 09:  ES64L-G09RevD.01 24-Apr-2013

 --------------------
 #p B2PLYPD3/Def2QZVP
 --------------------

 --------
 methanol
 --------
 Symbolic Z-matrix:
 Charge =  0 Multiplicity = 1

                         Standard orientation:
 ---------------------------------------------------------------------
 Center     Atomic      Atomic             Coordinates (Angstroms)
 Number     Number       Type             X           Y           Z
 ---------------------------------------------------------------------
      1          6           0       -0.660880   -0.025022    0.007256
      2          8           0        0.743550    0.100956   -0.010571
      3          1           0       -0.975889   -0.490893    0.938546
      4          1           0       -1.009605   -0.617817   -0.893904
      5          1           0       -1.079593    1.059757   -0.050419
      6          1           0        1.081965   -0.608567    0.046807
 ---------------------------------------------------------------------

 SCF Done:  E(RB2PLYPD3) =  -115.508436059     A.U. after   10 cycles
 E2(B2PLYPD3) =    -0.1446631899D+00 E(B2PLYPD3) =    -0.11565309924847D+03

 The electronic state is 1-A.
 Alpha  occ. eigenvalues --  -19.70683 -10.67052  -1.21137  -0.79898  -0.60975
 Alpha  occ. eigenvalues --   -0.52346  -0.49771  -0.40977  -0.35829
 Alpha virt. eigenvalues --    0.05370   0.09038   0.11975   0.12109   0.14666
 Alpha virt. eigenvalues --    0.17105   0.17757   0.28890   0.33054   0.33343
 Alpha virt. eigenvalues --    0.37009   0.38595   0.40183   0.40753   0.43172

 Mulliken charges:
               1
     1  C    0.061816
     2  O   -0.339209
     3  H    0.054124
     4  H    0.048226
     5  H    0.068889
     6  H    0.106153
 Sum of Mulliken charges =   0.00000

 Dipole moment (field-independent basis, Debye):
    X=             -0.8829    Y=             -1.3698    Z=              0.1544  Tot=              1.6370
 Quadrupole moment (field-independent basis, Debye-Ang):
   XX=            -13.2558   YY=            -12.3950   ZZ=            -13.5739
   XY=             -2.0016   XZ=              0.1291   YZ=             -0.0935

 Normal termination of Gaussian 09 at Wed Aug 26 10:03:21 2020.
