 Gaussian 09, Revision D.01,
 Gaussian 09:  ES64L-G09RevD.01 24-Apr-2013

 --------------------
 #p B2PLYPD3/Def2QZVP
 --------------------

 --------
 methanol
 --------
 Symbolic Z-matrix:
 Charge =  0 Multiplicity = 1

                         Standard orientation:
 ---------------------------------------------------------------------
 Center     Atomic      Atomic             Coordinates (Angstroms)
 Number     Number       Type             X           Y           Z
 ---------------------------------------------------------------------
      1          6           0       -0.656677   -0.027609    0.000249
      2          8           0        0.740052    0.094626   -0.016668
      3          1           0       -0.953973   -0.424009    0.983140
      4          1           0       -0.994756   -0.708740   -0.832280
      5          1           0       -1.108338    1.080729   -0.105308
      6          1           0        1.076712   -0.539337    0.086296
 ---------------------------------------------------------------------

 SCF Done:  E(RB2PLYPD3) =  -115.452854806     A.U. after   10 cycles
 E2(B2PLYPD3) =    -0.1438349745D+00 E(B2PLYPD3) =    -0.11559668978057D+03

 The electronic state is 1-A.
 Alpha  occ. eigenvalues --  -19.69899 -10.67605  -1.23625  -0.80873  -0.61795
 Alpha  occ. eigenvalues --   -0.52581  -0.49851  -0.40668  -0.35974
 Alpha virt. eigenvalues --    0.05350   0.09293   0.11762   0.12091   0.14623
 Alpha virt. eigenvalues --    0.17000   0.17637   0.28756   0.32919   0.33440
 Alpha virt. eigenvalues --    0.35918   0.38952   0.40280   0.40684   0.43209

 Mulliken charges:
               1
     1  C    0.059533
     2  O   -0.271407
     3  H    0.051379
     4  H    0.050809
     5  H    0.068273
     6  H    0.041413
 Sum of Mulliken charges =   0.00000

 Dipole moment (field-independent basis, Debye):
    X=             -0.8610    Y=             -1.3104    Z=              0.2438  Tot=              1.5867
 Quadrupole moment (field-independent basis, Debye-Ang):
   XX=            -13.2275   YY=            -12.4510   ZZ=            -13.5381
   XY=             -1.9173   XZ=              0.2906   YZ=             -0.0843

 Normal termination of Gaussian 09 at Wed Aug 26 12:28:08 2020.
