 Gaussian 09, Revision D.01,
 Gaussian 09:  ES64L-G09RevD.01 24-Apr-2013

 --------------------
 #p B2PLYPD3/Def2QZVP
 --------------------

 --------
 methanol
 --------
 Symbolic Z-matrix:
 Charge =  0 Multiplicity = 1

                         Standard orientation:
 ---------------------------------------------------------------------
 Center     Atomic      Atomic             Coordinates (Angstroms)
 Number     Number       Type             X           Y           Z
 ---------------------------------------------------------------------
      1          6           0        0.657521   -0.028243   -0.004061
      2          8           0       -0.746114    0.113491    0.006312
      3          1           0        0.983678   -0.561203   -0.885915
      4          1           0        1.036138   -0.538987    0.903767
      5          1           0        1.118250    1.031300   -0.027003
      6          1           0       -1.114280   -0.669579   -0.016981
 ---------------------------------------------------------------------

 SCF Done:  E(RB2PLYPD3) =  -115.541317159     A.U. after   10 cycles
 E2(B2PLYPD3) =    -0.1457589019D+00 E(B2PLYPD3) =    -0.11568707606127D+03

 The electronic state is 1-A.
 Alpha  occ. eigenvalues --  -19.71710 -10.66477  -1.18765  -0.79124  -0.60264
 Alpha  occ. eigenvalues --   -0.52204  -0.49662  -0.40825  -0.35701
 Alpha virt. eigenvalues --    0.05278   0.08609   0.12153   0.12305   0.14786
 Alpha virt. eigenvalues --    0.17342   0.17953   0.29023   0.33218   0.33599
 Alpha virt. eigenvalues --    0.36881   0.38071   0.40070   0.40827   0.43535

 Mulliken charges:
               1
     1  C    0.065912
     2  O   -0.408167
     3  H    0.051198
     4  H    0.049461
     5  H    0.064976
     6  H    0.176621
 Sum of Mulliken charges =   0.00000

 Dipole moment (field-independent basis, Debye):
    X=              0.8523    Y=             -1.4648    Z=             -0.0715  Tot=              1.6962
 Quadrupole moment (field-independent basis, Debye-Ang):
   XX=            -13.0704   YY=            -12.3866   ZZ=            -13.7111
   XY=              2.1186   XZ=              0.0633   YZ=              0.0457

 Normal termination of Gaussian 09 at Wed Aug 26 23:57:36 2020.
