 Gaussian 09, Revision D.01,
 Gaussian 09:  ES64L-G09RevD.01 24-Apr-2013

 --------------------
 #p B2PLYPD3/Def2QZVP
 --------------------

 --------
 methanol
 --------
 Symbolic Z-matrix:
 Charge =  0 Multiplicity = 1

                         Standard orientation:
 ---------------------------------------------------------------------
 Center     Atomic      Atomic             Coordinates (Angstroms)
 Number     Number       Type             X           Y           Z
 ---------------------------------------------------------------------
      1          6           0       -0.678847   -0.008208    0.009929
      2          8           0        0.767448    0.074440   -0.028164
      3          1           0       -1.084889   -0.196917    1.028998
      4          1           0       -1.022003   -0.909200   -0.731297
      5          1           0       -1.065539    1.037293   -0.335379
      6          1           0        1.105930   -0.477449    0.203415
 ---------------------------------------------------------------------

 SCF Done:  E(RB2PLYPD3) =  -115.399132141     A.U. after   11 cycles
 E2(B2PLYPD3) =    -0.1443111680D+00 E(B2PLYPD3) =    -0.11554344330863D+03

 The electronic state is 1-A.
 Alpha  occ. eigenvalues --  -19.69572 -10.68956  -1.23918  -0.81050  -0.61466
 Alpha  occ. eigenvalues --   -0.50811  -0.49576  -0.41212  -0.36115
 Alpha virt. eigenvalues --    0.05257   0.09066   0.11562   0.11870   0.14491
 Alpha virt. eigenvalues --    0.16805   0.17754   0.28724   0.31153   0.33009
 Alpha virt. eigenvalues --    0.36257   0.36922   0.39461   0.40604   0.42035

 Mulliken charges:
               1
     1  C    0.054074
     2  O   -0.251778
     3  H    0.061093
     4  H    0.046468
     5  H    0.083476
     6  H    0.006667
 Sum of Mulliken charges =   0.00000

 Dipole moment (field-independent basis, Debye):
    X=             -1.0206    Y=             -1.0791    Z=              0.5677  Tot=              1.5901
 Quadrupole moment (field-independent basis, Debye-Ang):
   XX=            -13.0640   YY=            -12.5938   ZZ=            -13.5000
   XY=             -1.8425   XZ=              0.5305   YZ=             -0.3253

 Normal termination of Gaussian 09 at Wed Aug 26 15:06:11 2020.
