 Gaussian 09, Revision D.01,
 Gaussian 09:  ES64L-G09RevD.01 24-Apr-2013

 --------------------
 #p B2PLYPD3/Def2QZVP
 --------------------

 --------
 methanol
 --------
 Symbolic Z-matrix:
 Charge =  0 Multiplicity = 1

                         Standard orientation:
 ---------------------------------------------------------------------
 Center     Atomic      Atomic             Coordinates (Angstroms)
 Number     Number       Type             X           Y           Z
 ---------------------------------------------------------------------
      1          6           0       -0.651546   -0.000063    0.039290
      2          8           0        0.748109   -0.131424   -0.039393
      3          1           0       -1.134416    0.766260   -0.779057
      4          1           0       -0.929819    0.344759    0.890066
      5          1           0       -1.157968   -0.886961   -0.160301
      6          1           0        1.146607    0.827712    0.128691
 ---------------------------------------------------------------------

 SCF Done:  E(RB2PLYPD3) =  -115.520490080     A.U. after   11 cycles
 E2(B2PLYPD3) =    -0.1488536481D+00 E(B2PLYPD3) =    -0.11566934372768D+03

 The electronic state is 1-A.
 Alpha  occ. eigenvalues --  -19.73709 -10.64775  -1.15222  -0.79238  -0.58396
 Alpha  occ. eigenvalues --   -0.52049  -0.50004  -0.41028  -0.34852
 Alpha virt. eigenvalues --    0.04123   0.07727   0.12345   0.12723   0.14894
 Alpha virt. eigenvalues --    0.18021   0.18180   0.29054   0.30794   0.32846
 Alpha virt. eigenvalues --    0.33992   0.37025   0.40348   0.41585   0.44375

 Mulliken charges:
               1
     1  C    0.079365
     2  O   -0.470048
     3  H    0.013669
     4  H    0.054402
     5  H    0.071393
     6  H    0.251219
 Sum of Mulliken charges =   0.00000

 Dipole moment (field-independent basis, Debye):
    X=             -0.8089    Y=              1.4522    Z=              0.5128  Tot=              1.7396
 Quadrupole moment (field-independent basis, Debye-Ang):
   XX=            -12.9488   YY=            -12.2311   ZZ=            -13.9089
   XY=              2.5160   XZ=              0.2682   YZ=              0.4315

 Normal termination of Gaussian 09 at Wed Aug 26 19:13:51 2020.
