 Gaussian 09, Revision D.01,
 Gaussian 09:  ES64L-G09RevD.01 24-Apr-2013

 --------------------
 #p B2PLYPD3/Def2QZVP
 --------------------

 --------
 methanol
 --------
 Symbolic Z-matrix:
 Charge =  0 Multiplicity = 1

                         Standard orientation:
 ---------------------------------------------------------------------
 Center     Atomic      Atomic             Coordinates (Angstroms)
 Number     Number       Type             X           Y           Z
 ---------------------------------------------------------------------
      1          6           0        0.647573   -0.003409    0.038477
      2          8           0       -0.743184   -0.154821   -0.023809
      3          1           0        1.123992    0.325349    0.829952
      4          1           0        1.061096    0.756241   -0.795009
      5          1           0        1.071244   -0.821648   -0.207474
      6          1           0       -1.196293    0.999078    0.132143
 ---------------------------------------------------------------------

 SCF Done:  E(RB2PLYPD3) =  -115.468984274     A.U. after   11 cycles
 E2(B2PLYPD3) =    -0.1527887348D+00 E(B2PLYPD3) =    -0.11562177300907D+03

 The electronic state is 1-A.
 Alpha  occ. eigenvalues --  -19.75226 -10.63611  -1.13493  -0.79571  -0.56679
 Alpha  occ. eigenvalues --   -0.50910  -0.50241  -0.40574  -0.34491
 Alpha virt. eigenvalues --    0.01214   0.07363   0.12623   0.12856   0.15020
 Alpha virt. eigenvalues --    0.17641   0.18683   0.24637   0.29596   0.32669
 Alpha virt. eigenvalues --    0.35041   0.36436   0.40397   0.41031   0.45063

 Mulliken charges:
               1
     1  C    0.082417
     2  O   -0.471042
     3  H    0.049396
     4  H    0.007693
     5  H    0.069488
     6  H    0.262047
 Sum of Mulliken charges =   0.00000

 Dipole moment (field-independent basis, Debye):
    X=              0.7902    Y=              1.5434    Z=              0.4093  Tot=              1.7816
 Quadrupole moment (field-independent basis, Debye-Ang):
   XX=            -12.8670   YY=            -11.8765   ZZ=            -14.1463
   XY=             -2.6507   XZ=             -0.0465   YZ=              0.4406

 Normal termination of Gaussian 09 at Wed Aug 26 21:19:17 2020.
