 Gaussian 09, Revision D.01,
 Gaussian 09:  ES64L-G09RevD.01 24-Apr-2013

 --------------------
 #p B2PLYPD3/Def2QZVP
 --------------------

 --------
 methanol
 --------
 Symbolic Z-matrix:
 Charge =  0 Multiplicity = 1

                         Standard orientation:
 ---------------------------------------------------------------------
 Center     Atomic      Atomic             Coordinates (Angstroms)
 Number     Number       Type             X           Y           Z
 ---------------------------------------------------------------------
      1          6           0       -0.659082   -0.007914   -0.005345
      2          8           0        0.748620    0.089651   -0.001902
      3          1           0       -1.102337   -0.554405    0.918998
      4          1           0       -1.013685   -0.618491   -0.907966
      5          1           0       -1.071858    1.072531   -0.018466
      6          1           0        1.153415   -0.569358    0.054720
 ---------------------------------------------------------------------

 SCF Done:  E(RB2PLYPD3) =  -115.495819622     A.U. after   10 cycles
 E2(B2PLYPD3) =    -0.1448601824D+00 E(B2PLYPD3) =    -0.11564067980399D+03

 The electronic state is 1-A.
 Alpha  occ. eigenvalues --  -19.70764 -10.68144  -1.21230  -0.80280  -0.61291
 Alpha  occ. eigenvalues --   -0.51025  -0.49977  -0.40667  -0.35490
 Alpha virt. eigenvalues --    0.05354   0.08795   0.11895   0.12127   0.14878
 Alpha virt. eigenvalues --    0.16962   0.17734   0.29017   0.32641   0.33623
 Alpha virt. eigenvalues --    0.36894   0.38451   0.38842   0.39982   0.41865

 Mulliken charges:
               1
     1  C    0.057973
     2  O   -0.323300
     3  H    0.042072
     4  H    0.047924
     5  H    0.079323
     6  H    0.096009
 Sum of Mulliken charges =   0.00000

 Dipole moment (field-independent basis, Debye):
    X=             -0.7631    Y=             -1.2745    Z=              0.0989  Tot=              1.4887
 Quadrupole moment (field-independent basis, Debye-Ang):
   XX=            -12.8619   YY=            -12.4783   ZZ=            -13.8595
   XY=             -2.0224   XZ=              0.0949   YZ=             -0.0338

 Normal termination of Gaussian 09 at Wed Aug 26 15:05:25 2020.
