 Gaussian 09, Revision D.01,
 Gaussian 09:  ES64L-G09RevD.01 24-Apr-2013

 --------------------
 #p B2PLYPD3/Def2QZVP
 --------------------

 --------
 methanol
 --------
 Symbolic Z-matrix:
 Charge =  0 Multiplicity = 1

                         Standard orientation:
 ---------------------------------------------------------------------
 Center     Atomic      Atomic             Coordinates (Angstroms)
 Number     Number       Type             X           Y           Z
 ---------------------------------------------------------------------
      1          6           0       -0.683849   -0.018640    0.008951
      2          8           0        0.748558   -0.037684   -0.085134
      3          1           0       -0.966623    1.161790    0.146362
      4          1           0       -0.904781   -0.668214    0.917751
      5          1           0       -1.129608   -0.337223   -0.893279
      6          1           0        1.115647    0.256965    0.456534
 ---------------------------------------------------------------------

 SCF Done:  E(RB2PLYPD3) =  -115.436598612     A.U. after   11 cycles
 E2(B2PLYPD3) =    -0.1441061596D+00 E(B2PLYPD3) =    -0.11558070477122D+03

 The electronic state is 1-A.
 Alpha  occ. eigenvalues --  -19.69279 -10.68040  -1.22491  -0.81527  -0.60347
 Alpha  occ. eigenvalues --   -0.52912  -0.50713  -0.40212  -0.35415
 Alpha virt. eigenvalues --    0.05326   0.09193   0.11373   0.12559   0.13755
 Alpha virt. eigenvalues --    0.17115   0.17491   0.28717   0.31272   0.32322
 Alpha virt. eigenvalues --    0.36065   0.38718   0.39601   0.41889   0.43602

 Mulliken charges:
               1
     1  C    0.065205
     2  O   -0.284144
     3  H    0.033299
     4  H    0.058033
     5  H    0.094336
     6  H    0.033271
 Sum of Mulliken charges =   0.00000

 Dipole moment (field-independent basis, Debye):
    X=             -0.9722    Y=              0.4756    Z=              1.0193  Tot=              1.4867
 Quadrupole moment (field-independent basis, Debye-Ang):
   XX=            -13.1182   YY=            -13.3332   ZZ=            -12.6891
   XY=              1.0642   XZ=              2.0351   YZ=              0.2506

 Normal termination of Gaussian 09 at Wed Aug 26 21:40:09 2020.
