 Gaussian 09, Revision D.01,
 Gaussian 09:  ES64L-G09RevD.01 24-Apr-2013

 --------------------
 #p B2PLYPD3/Def2QZVP
 --------------------

 --------
 methanol
 --------
 Symbolic Z-matrix:
 Charge =  0 Multiplicity = 1

                         Standard orientation:
 ---------------------------------------------------------------------
 Center     Atomic      Atomic             Coordinates (Angstroms)
 Number     Number       Type             X           Y           Z
 ---------------------------------------------------------------------
      1          6           0        0.673294    0.012810   -0.001490
      2          8           0       -0.747579   -0.136632   -0.006894
      3          1           0        1.013183    0.471220    0.896004
      4          1           0        0.976371    0.615017   -0.847356
      5          1           0        1.080464   -0.916854   -0.044466
      6          1           0       -1.129151    0.846817    0.059911
 ---------------------------------------------------------------------

 SCF Done:  E(RB2PLYPD3) =  -115.539485681     A.U. after   11 cycles
 E2(B2PLYPD3) =    -0.1488036863D+00 E(B2PLYPD3) =    -0.11568828936699D+03

 The electronic state is 1-A.
 Alpha  occ. eigenvalues --  -19.73114 -10.64286  -1.14158  -0.78902  -0.57268
 Alpha  occ. eigenvalues --   -0.52046  -0.50071  -0.41320  -0.35065
 Alpha virt. eigenvalues --    0.04211   0.08072   0.12407   0.12693   0.14741
 Alpha virt. eigenvalues --    0.17444   0.18016   0.29165   0.31485   0.33168
 Alpha virt. eigenvalues --    0.33635   0.39197   0.40830   0.41537   0.43880

 Mulliken charges:
               1
     1  C    0.081701
     2  O   -0.486708
     3  H    0.044339
     4  H    0.044096
     5  H    0.072395
     6  H    0.244178
 Sum of Mulliken charges =   0.00000

 Dipole moment (field-independent basis, Debye):
    X=              0.9851    Y=              1.5628    Z=              0.1248  Tot=              1.8515
 Quadrupole moment (field-independent basis, Debye-Ang):
   XX=            -13.1621   YY=            -11.9487   ZZ=            -13.7851
   XY=             -2.3847   XZ=             -0.0927   YZ=              0.0722

 Normal termination of Gaussian 09 at Thu Aug 27 00:07:21 2020.
