 Gaussian 09, Revision D.01,
 Gaussian 09:  ES64L-G09RevD.01 24-Apr-2013

 --------------------
 #p B2PLYPD3/Def2QZVP
 --------------------

 --------
 methanol
 --------
 Symbolic Z-matrix:
 Charge =  0 Multiplicity = 1

                         Standard orientation:
 ---------------------------------------------------------------------
 Center     Atomic      Atomic             Coordinates (Angstroms)
 Number     Number       Type             X           Y           Z
 ---------------------------------------------------------------------
      1          6           0        0.676381   -0.005517    0.017260
      2          8           0       -0.764426    0.057619   -0.040259
      3          1           0        1.191425   -0.936136   -0.675138
      4          1           0        1.014201   -0.157704    1.064168
      5          1           0        1.075272    1.072205   -0.347894
      6          1           0       -1.223777   -0.406219    0.177380
 ---------------------------------------------------------------------

 SCF Done:  E(RB2PLYPD3) =  -115.382888154     A.U. after   11 cycles
 E2(B2PLYPD3) =    -0.1448649288D+00 E(B2PLYPD3) =    -0.11552775308253D+03

 The electronic state is 1-A.
 Alpha  occ. eigenvalues --  -19.69445 -10.70223  -1.23237  -0.81881  -0.61649
 Alpha  occ. eigenvalues --   -0.50079  -0.49413  -0.39514  -0.35908
 Alpha virt. eigenvalues --    0.05100   0.08804   0.11301   0.11863   0.14466
 Alpha virt. eigenvalues --    0.16630   0.17879   0.28807   0.31270   0.31958
 Alpha virt. eigenvalues --    0.35240   0.35518   0.39594   0.40579   0.41653

 Mulliken charges:
               1
     1  C    0.054416
     2  O   -0.248023
     3  H    0.043892
     4  H    0.064694
     5  H    0.085466
     6  H   -0.000444
 Sum of Mulliken charges =   0.00000

 Dipole moment (field-independent basis, Debye):
    X=              0.8154    Y=             -0.9236    Z=              0.6327  Tot=              1.3850
 Quadrupole moment (field-independent basis, Debye-Ang):
   XX=            -12.4656   YY=            -12.9030   ZZ=            -13.6453
   XY=              1.7039   XZ=             -0.6932   YZ=             -0.3008

 Normal termination of Gaussian 09 at Wed Aug 26 18:51:39 2020.
