 Gaussian 09, Revision D.01,
 Gaussian 09:  ES64L-G09RevD.01 24-Apr-2013

 --------------------
 #p B2PLYPD3/Def2QZVP
 --------------------

 --------
 methanol
 --------
 Symbolic Z-matrix:
 Charge =  0 Multiplicity = 1

                         Standard orientation:
 ---------------------------------------------------------------------
 Center     Atomic      Atomic             Coordinates (Angstroms)
 Number     Number       Type             X           Y           Z
 ---------------------------------------------------------------------
      1          6           0        0.657439    0.008611    0.007625
      2          8           0       -0.748053   -0.153298   -0.004909
      3          1           0        1.013383    0.494538    0.857584
      4          1           0        1.000160    0.579351   -0.850358
      5          1           0        1.135458   -0.855420   -0.041530
      6          1           0       -1.109205    0.956246    0.027826
 ---------------------------------------------------------------------

 SCF Done:  E(RB2PLYPD3) =  -115.511755318     A.U. after   11 cycles
 E2(B2PLYPD3) =    -0.1508178967D+00 E(B2PLYPD3) =    -0.11566257321489D+03

 The electronic state is 1-A.
 Alpha  occ. eigenvalues --  -19.74237 -10.63557  -1.13514  -0.79041  -0.56205
 Alpha  occ. eigenvalues --   -0.51853  -0.50456  -0.40950  -0.34989
 Alpha virt. eigenvalues --    0.02743   0.07747   0.12527   0.12881   0.14679
 Alpha virt. eigenvalues --    0.18120   0.18176   0.27126   0.29590   0.33205
 Alpha virt. eigenvalues --    0.34114   0.38934   0.41382   0.41738   0.43139

 Mulliken charges:
               1
     1  C    0.087747
     2  O   -0.485232
     3  H    0.040600
     4  H    0.034965
     5  H    0.065542
     6  H    0.256378
 Sum of Mulliken charges =   0.00000

 Dipole moment (field-independent basis, Debye):
    X=              1.0079    Y=              1.6350    Z=              0.0830  Tot=              1.9225
 Quadrupole moment (field-independent basis, Debye-Ang):
   XX=            -13.2081   YY=            -11.7925   ZZ=            -13.9153
   XY=             -2.4657   XZ=             -0.0164   YZ=              0.0845

 Normal termination of Gaussian 09 at Wed Aug 26 13:32:35 2020.
