 Gaussian 09, Revision D.01,
 Gaussian 09:  ES64L-G09RevD.01 24-Apr-2013

 --------------------
 #p B2PLYPD3/Def2QZVP
 --------------------

 --------
 methanol
 --------
 Symbolic Z-matrix:
 Charge =  0 Multiplicity = 1

                         Standard orientation:
 ---------------------------------------------------------------------
 Center     Atomic      Atomic             Coordinates (Angstroms)
 Number     Number       Type             X           Y           Z
 ---------------------------------------------------------------------
      1          6           0        0.665785   -0.011712    0.008502
      2          8           0       -0.743540    0.098458   -0.018847
      3          1           0        1.015621   -0.736582   -0.835227
      4          1           0        1.018207   -0.346475    1.002875
      5          1           0        1.042427    0.990185   -0.182505
      6          1           0       -1.122649   -0.624525    0.114623
 ---------------------------------------------------------------------

 SCF Done:  E(RB2PLYPD3) =  -115.528814779     A.U. after   10 cycles
 E2(B2PLYPD3) =    -0.1451735260D+00 E(B2PLYPD3) =    -0.11567398830508D+03

 The electronic state is 1-A.
 Alpha  occ. eigenvalues --  -19.71056 -10.66787  -1.19512  -0.79840  -0.60164
 Alpha  occ. eigenvalues --   -0.51588  -0.50617  -0.40950  -0.35493
 Alpha virt. eigenvalues --    0.05379   0.08809   0.11991   0.12405   0.14619
 Alpha virt. eigenvalues --    0.16992   0.17956   0.28960   0.32905   0.33442
 Alpha virt. eigenvalues --    0.37091   0.39572   0.39723   0.40375   0.43270

 Mulliken charges:
               1
     1  C    0.062770
     2  O   -0.381760
     3  H    0.041855
     4  H    0.052058
     5  H    0.078654
     6  H    0.146423
 Sum of Mulliken charges =   0.00000

 Dipole moment (field-independent basis, Debye):
    X=              0.8396    Y=             -1.2854    Z=              0.2956  Tot=              1.5636
 Quadrupole moment (field-independent basis, Debye-Ang):
   XX=            -13.0944   YY=            -12.4553   ZZ=            -13.5829
   XY=              2.1308   XZ=             -0.3094   YZ=             -0.2047

 Normal termination of Gaussian 09 at Wed Aug 26 10:00:04 2020.
