 Gaussian 09, Revision D.01,
 Gaussian 09:  ES64L-G09RevD.01 24-Apr-2013

 --------------------
 #p B2PLYPD3/Def2QZVP
 --------------------

 --------
 methanol
 --------
 Symbolic Z-matrix:
 Charge =  0 Multiplicity = 1

                         Standard orientation:
 ---------------------------------------------------------------------
 Center     Atomic      Atomic             Coordinates (Angstroms)
 Number     Number       Type             X           Y           Z
 ---------------------------------------------------------------------
      1          6           0       -0.661438   -0.033064   -0.001480
      2          8           0        0.757191    0.105973   -0.017511
      3          1           0       -0.969381   -0.432017    0.985300
      4          1           0       -1.061482   -0.620791   -0.864813
      5          1           0       -1.142979    1.027224   -0.047778
      6          1           0        1.084945   -0.623815    0.076259
 ---------------------------------------------------------------------

 SCF Done:  E(RB2PLYPD3) =  -115.517209644     A.U. after   10 cycles
 E2(B2PLYPD3) =    -0.1452770359D+00 E(B2PLYPD3) =    -0.11566248668020D+03

 The electronic state is 1-A.
 Alpha  occ. eigenvalues --  -19.71187 -10.67237  -1.20348  -0.79476  -0.60467
 Alpha  occ. eigenvalues --   -0.52328  -0.49593  -0.40729  -0.36151
 Alpha virt. eigenvalues --    0.05377   0.08754   0.11996   0.12181   0.14373
 Alpha virt. eigenvalues --    0.17402   0.18182   0.28761   0.32658   0.33340
 Alpha virt. eigenvalues --    0.36366   0.38599   0.39765   0.40378   0.43670

 Mulliken charges:
               1
     1  C    0.059458
     2  O   -0.359113
     3  H    0.053917
     4  H    0.056695
     5  H    0.063701
     6  H    0.125342
 Sum of Mulliken charges =   0.00000

 Dipole moment (field-independent basis, Debye):
    X=             -0.9586    Y=             -1.3820    Z=              0.1965  Tot=              1.6933
 Quadrupole moment (field-independent basis, Debye-Ang):
   XX=            -13.1340   YY=            -12.5713   ZZ=            -13.5500
   XY=             -2.0523   XZ=              0.3078   YZ=             -0.0523

 Normal termination of Gaussian 09 at Wed Aug 26 10:53:35 2020.
