 Gaussian 09, Revision D.01,
 Gaussian 09:  ES64L-G09RevD.01 24-Apr-2013

 --------------------
 #p B2PLYPD3/Def2QZVP
 --------------------

 --------
 methanol
 --------
 Symbolic Z-matrix:
 Charge =  0 Multiplicity = 1

                         Standard orientation:
 ---------------------------------------------------------------------
 Center     Atomic      Atomic             Coordinates (Angstroms)
 Number     Number       Type             X           Y           Z
 ---------------------------------------------------------------------
      1          6           0        0.624566    0.083365    0.010761
      2          8           0       -0.702012   -0.226396   -0.007101
      3          1           0        0.946789    0.421484    0.737961
      4          1           0        0.968918    0.565698   -0.702305
      5          1           0        1.269585   -0.813838   -0.060158
      6          1           0       -1.316593    1.137631    0.016746
 ---------------------------------------------------------------------

 SCF Done:  E(RB2PLYPD3) =  -115.366025118     A.U. after   11 cycles
 E2(B2PLYPD3) =    -0.1565449282D+00 E(B2PLYPD3) =    -0.11552257004662D+03

 The electronic state is 1-A.
 Alpha  occ. eigenvalues --  -19.75885 -10.60467  -1.13769  -0.81681  -0.56255
 Alpha  occ. eigenvalues --   -0.53631  -0.50099  -0.37174  -0.35826
 Alpha virt. eigenvalues --   -0.03607   0.07161   0.12875   0.13196   0.14745
 Alpha virt. eigenvalues --    0.18391   0.18711   0.20945   0.29323   0.33934
 Alpha virt. eigenvalues --    0.35493   0.38205   0.40784   0.43215   0.46193

 Mulliken charges:
               1
     1  C    0.074505
     2  O   -0.454425
     3  H    0.079677
     4  H    0.046877
     5  H    0.031228
     6  H    0.222138
 Sum of Mulliken charges =   0.00000

 Dipole moment (field-independent basis, Debye):
    X=              0.8918    Y=              1.8977    Z=              0.0699  Tot=              2.0979
 Quadrupole moment (field-independent basis, Debye-Ang):
   XX=            -12.5454   YY=            -11.7446   ZZ=            -13.9302
   XY=             -2.4758   XZ=             -0.0145   YZ=              0.0174

 Normal termination of Gaussian 09 at Wed Aug 26 21:01:43 2020.
