 Gaussian 09, Revision D.01,
 Gaussian 09:  ES64L-G09RevD.01 24-Apr-2013

 --------------------
 #p B2PLYPD3/Def2QZVP
 --------------------

 --------
 methanol
 --------
 Symbolic Z-matrix:
 Charge =  0 Multiplicity = 1

                         Standard orientation:
 ---------------------------------------------------------------------
 Center     Atomic      Atomic             Coordinates (Angstroms)
 Number     Number       Type             X           Y           Z
 ---------------------------------------------------------------------
      1          6           0        0.659157   -0.026001    0.003089
      2          8           0       -0.752895    0.108688    0.000426
      3          1           0        1.010280   -0.594797   -0.882364
      4          1           0        1.052370   -0.472974    0.927581
      5          1           0        1.088603    1.031397   -0.076950
      6          1           0       -1.083036   -0.677125    0.009789
 ---------------------------------------------------------------------

 SCF Done:  E(RB2PLYPD3) =  -115.538276152     A.U. after   10 cycles
 E2(B2PLYPD3) =    -0.1457792458D+00 E(B2PLYPD3) =    -0.11568405539829D+03

 The electronic state is 1-A.
 Alpha  occ. eigenvalues --  -19.71724 -10.66640  -1.19110  -0.79107  -0.60208
 Alpha  occ. eigenvalues --   -0.52064  -0.49593  -0.41148  -0.35891
 Alpha virt. eigenvalues --    0.05301   0.08650   0.12129   0.12225   0.14745
 Alpha virt. eigenvalues --    0.17284   0.18094   0.28927   0.33172   0.33343
 Alpha virt. eigenvalues --    0.37188   0.38170   0.39992   0.40634   0.43306

 Mulliken charges:
               1
     1  C    0.061936
     2  O   -0.396519
     3  H    0.049395
     4  H    0.053848
     5  H    0.065287
     6  H    0.166053
 Sum of Mulliken charges =   0.00000

 Dipole moment (field-independent basis, Debye):
    X=              0.9244    Y=             -1.4403    Z=              0.0204  Tot=              1.7115
 Quadrupole moment (field-independent basis, Debye-Ang):
   XX=            -13.1997   YY=            -12.3716   ZZ=            -13.6737
   XY=              2.0546   XZ=              0.0091   YZ=             -0.0237

 Normal termination of Gaussian 09 at Wed Aug 26 22:37:42 2020.
