 Gaussian 09, Revision D.01,
 Gaussian 09:  ES64L-G09RevD.01 24-Apr-2013

 --------------------
 #p B2PLYPD3/Def2QZVP
 --------------------

 --------
 methanol
 --------
 Symbolic Z-matrix:
 Charge =  0 Multiplicity = 1

                         Standard orientation:
 ---------------------------------------------------------------------
 Center     Atomic      Atomic             Coordinates (Angstroms)
 Number     Number       Type             X           Y           Z
 ---------------------------------------------------------------------
      1          6           0        0.653821   -0.002188   -0.007148
      2          8           0       -0.731360   -0.026964   -0.058270
      3          1           0        0.995843   -0.698857    0.896548
      4          1           0        0.916395    1.247996    0.114771
      5          1           0        1.005523   -0.458030   -0.906136
      6          1           0       -0.989804    0.137729    0.403866
 ---------------------------------------------------------------------

 SCF Done:  E(RB2PLYPD3) =  -115.046070905     A.U. after   11 cycles
 E2(B2PLYPD3) =    -0.1426171458D+00 E(B2PLYPD3) =    -0.11518868805065D+03

 The electronic state is 1-A.
 Alpha  occ. eigenvalues --  -19.68422 -10.69069  -1.32172  -0.84618  -0.61983
 Alpha  occ. eigenvalues --   -0.53047  -0.51590  -0.41210  -0.35639
 Alpha virt. eigenvalues --    0.05064   0.09855   0.10848   0.12286   0.13779
 Alpha virt. eigenvalues --    0.16673   0.17531   0.27620   0.31167   0.33010
 Alpha virt. eigenvalues --    0.35443   0.37158   0.40884   0.41851   0.43640

 Mulliken charges:
               1
     1  C    0.045750
     2  O   -0.090354
     3  H    0.040735
     4  H    0.035471
     5  H    0.098337
     6  H   -0.129939
 Sum of Mulliken charges =   0.00000

 Dipole moment (field-independent basis, Debye):
    X=              0.8883    Y=              0.2003    Z=              0.9125  Tot=              1.2891
 Quadrupole moment (field-independent basis, Debye-Ang):
   XX=            -13.6331   YY=            -13.0579   ZZ=            -12.6754
   XY=             -0.9154   XZ=             -1.7233   YZ=              0.3053

 Normal termination of Gaussian 09 at Wed Aug 26 19:26:40 2020.
