 Gaussian 09, Revision D.01,
 Gaussian 09:  ES64L-G09RevD.01 24-Apr-2013

 --------------------
 #p B2PLYPD3/Def2QZVP
 --------------------

 --------
 methanol
 --------
 Symbolic Z-matrix:
 Charge =  0 Multiplicity = 1

                         Standard orientation:
 ---------------------------------------------------------------------
 Center     Atomic      Atomic             Coordinates (Angstroms)
 Number     Number       Type             X           Y           Z
 ---------------------------------------------------------------------
      1          6           0        0.668374   -0.018176    0.001768
      2          8           0       -0.747887    0.110843   -0.003170
      3          1           0        1.027121   -0.573051   -0.903211
      4          1           0        1.070079   -0.486977    0.920736
      5          1           0        1.026866    0.996660   -0.039852
      6          1           0       -1.151216   -0.714320    0.037080
 ---------------------------------------------------------------------

 SCF Done:  E(RB2PLYPD3) =  -115.550912724     A.U. after   10 cycles
 E2(B2PLYPD3) =    -0.1466921938D+00 E(B2PLYPD3) =    -0.11569760491798D+03

 The electronic state is 1-A.
 Alpha  occ. eigenvalues --  -19.72129 -10.66048  -1.16854  -0.78970  -0.59121
 Alpha  occ. eigenvalues --   -0.51507  -0.49922  -0.41039  -0.35460
 Alpha virt. eigenvalues --    0.05176   0.08351   0.12252   0.12431   0.14843
 Alpha virt. eigenvalues --    0.16966   0.18233   0.29035   0.33195   0.33651
 Alpha virt. eigenvalues --    0.36414   0.38567   0.39855   0.40529   0.43376

 Mulliken charges:
               1
     1  C    0.063570
     2  O   -0.443971
     3  H    0.048171
     4  H    0.050372
     5  H    0.074348
     6  H    0.207509
 Sum of Mulliken charges =   0.00000

 Dipole moment (field-independent basis, Debye):
    X=              0.8445    Y=             -1.4241    Z=              0.0820  Tot=              1.6577
 Quadrupole moment (field-independent basis, Debye-Ang):
   XX=            -12.9840   YY=            -12.3230   ZZ=            -13.7268
   XY=              2.2021   XZ=             -0.0471   YZ=             -0.0575

 Normal termination of Gaussian 09 at Thu Aug 27 00:05:11 2020.
