 Gaussian 09, Revision D.01,
 Gaussian 09:  ES64L-G09RevD.01 24-Apr-2013

 --------------------
 #p B2PLYPD3/Def2QZVP
 --------------------

 --------
 methanol
 --------
 Symbolic Z-matrix:
 Charge =  0 Multiplicity = 1

                         Standard orientation:
 ---------------------------------------------------------------------
 Center     Atomic      Atomic             Coordinates (Angstroms)
 Number     Number       Type             X           Y           Z
 ---------------------------------------------------------------------
      1          6           0        0.651698    0.002960   -0.017940
      2          8           0       -0.734389   -0.157049    0.020071
      3          1           0        1.223498    0.569305    0.842310
      4          1           0        1.031374    0.532108   -0.833538
      5          1           0        1.050776   -0.834468   -0.027403
      6          1           0       -1.340721    0.971687   -0.034302
 ---------------------------------------------------------------------

 SCF Done:  E(RB2PLYPD3) =  -115.463963890     A.U. after   12 cycles
 E2(B2PLYPD3) =    -0.1532615227D+00 E(B2PLYPD3) =    -0.11561722541291D+03

 The electronic state is 1-A.
 Alpha  occ. eigenvalues --  -19.75130 -10.63728  -1.13166  -0.79119  -0.56015
 Alpha  occ. eigenvalues --   -0.51502  -0.49477  -0.40110  -0.34266
 Alpha virt. eigenvalues --    0.00648   0.07218   0.12817   0.12960   0.15162
 Alpha virt. eigenvalues --    0.17388   0.18612   0.23988   0.29481   0.32802
 Alpha virt. eigenvalues --    0.35207   0.37565   0.39077   0.41316   0.43442

 Mulliken charges:
               1
     1  C    0.068550
     2  O   -0.481378
     3  H    0.022120
     4  H    0.042127
     5  H    0.084233
     6  H    0.264348
 Sum of Mulliken charges =   0.00000

 Dipole moment (field-independent basis, Debye):
    X=              0.5770    Y=              1.5629    Z=             -0.2548  Tot=              1.6854
 Quadrupole moment (field-independent basis, Debye-Ang):
   XX=            -12.2154   YY=            -11.9611   ZZ=            -14.3399
   XY=             -2.7987   XZ=              0.0101   YZ=             -0.1607

 Normal termination of Gaussian 09 at Wed Aug 26 23:37:56 2020.
