 Gaussian 09, Revision D.01,
 Gaussian 09:  ES64L-G09RevD.01 24-Apr-2013

 --------------------
 #p B2PLYPD3/Def2QZVP
 --------------------

 --------
 methanol
 --------
 Symbolic Z-matrix:
 Charge =  0 Multiplicity = 1

                         Standard orientation:
 ---------------------------------------------------------------------
 Center     Atomic      Atomic             Coordinates (Angstroms)
 Number     Number       Type             X           Y           Z
 ---------------------------------------------------------------------
      1          6           0       -0.659605    0.003156    0.023791
      2          8           0        0.752090    0.066235   -0.039319
      3          1           0       -1.059719   -0.137143    1.080189
      4          1           0       -1.072163   -0.912409   -0.733493
      5          1           0       -1.041816    0.958876   -0.409909
      6          1           0        1.114604   -0.458135    0.235016
 ---------------------------------------------------------------------

 SCF Done:  E(RB2PLYPD3) =  -115.407368592     A.U. after   11 cycles
 E2(B2PLYPD3) =    -0.1440874942D+00 E(B2PLYPD3) =    -0.11555145608589D+03

 The electronic state is 1-A.
 Alpha  occ. eigenvalues --  -19.69922 -10.68833  -1.24477  -0.81712  -0.61633
 Alpha  occ. eigenvalues --   -0.51213  -0.50462  -0.40887  -0.35657
 Alpha virt. eigenvalues --    0.05314   0.09071   0.11488   0.12155   0.14439
 Alpha virt. eigenvalues --    0.16820   0.18043   0.28580   0.32055   0.33228
 Alpha virt. eigenvalues --    0.35362   0.38456   0.39381   0.40728   0.42316

 Mulliken charges:
               1
     1  C    0.047389
     2  O   -0.237593
     3  H    0.056854
     4  H    0.033107
     5  H    0.087161
     6  H    0.013082
 Sum of Mulliken charges =   0.00000

 Dipole moment (field-independent basis, Debye):
    X=             -0.8219    Y=             -0.9184    Z=              0.6556  Tot=              1.3960
 Quadrupole moment (field-independent basis, Debye-Ang):
   XX=            -13.0188   YY=            -12.9455   ZZ=            -13.3187
   XY=             -1.8536   XZ=              0.7436   YZ=             -0.4547

 Normal termination of Gaussian 09 at Wed Aug 26 16:20:00 2020.
