 Gaussian 09, Revision D.01,
 Gaussian 09:  ES64L-G09RevD.01 24-Apr-2013

 --------------------
 #p B2PLYPD3/Def2QZVP
 --------------------

 --------
 methanol
 --------
 Symbolic Z-matrix:
 Charge =  0 Multiplicity = 1

                         Standard orientation:
 ---------------------------------------------------------------------
 Center     Atomic      Atomic             Coordinates (Angstroms)
 Number     Number       Type             X           Y           Z
 ---------------------------------------------------------------------
      1          6           0        0.677350    0.043189    0.009505
      2          8           0       -0.733654   -0.151639   -0.002278
      3          1           0        1.021655    0.449927    0.850895
      4          1           0        0.990553    0.593456   -0.817519
      5          1           0        1.056293   -0.959620   -0.087389
      6          1           0       -1.263376    0.870214    0.015208
 ---------------------------------------------------------------------

 SCF Done:  E(RB2PLYPD3) =  -115.517937800     A.U. after   11 cycles
 E2(B2PLYPD3) =    -0.1503458068D+00 E(B2PLYPD3) =    -0.11566828360719D+03

 The electronic state is 1-A.
 Alpha  occ. eigenvalues --  -19.73544 -10.63582  -1.12835  -0.78833  -0.56525
 Alpha  occ. eigenvalues --   -0.53108  -0.48739  -0.40078  -0.35219
 Alpha virt. eigenvalues --    0.03272   0.07751   0.12448   0.12785   0.15010
 Alpha virt. eigenvalues --    0.16995   0.18305   0.28094   0.29571   0.33636
 Alpha virt. eigenvalues --    0.34044   0.38606   0.39469   0.43146   0.44757

 Mulliken charges:
               1
     1  C    0.083273
     2  O   -0.499956
     3  H    0.054090
     4  H    0.047866
     5  H    0.064831
     6  H    0.249896
 Sum of Mulliken charges =   0.00000

 Dipole moment (field-independent basis, Debye):
    X=              0.8301    Y=              1.6580    Z=              0.0512  Tot=              1.8549
 Quadrupole moment (field-independent basis, Debye-Ang):
   XX=            -12.6551   YY=            -12.0378   ZZ=            -13.8078
   XY=             -2.4228   XZ=              0.0155   YZ=              0.0550

 Normal termination of Gaussian 09 at Wed Aug 26 12:27:21 2020.
