 Gaussian 09, Revision D.01,
 Gaussian 09:  ES64L-G09RevD.01 24-Apr-2013

 --------------------
 #p B2PLYPD3/Def2QZVP
 --------------------

 --------
 methanol
 --------
 Symbolic Z-matrix:
 Charge =  0 Multiplicity = 1

                         Standard orientation:
 ---------------------------------------------------------------------
 Center     Atomic      Atomic             Coordinates (Angstroms)
 Number     Number       Type             X           Y           Z
 ---------------------------------------------------------------------
      1          6           0       -0.673862    0.016794    0.014609
      2          8           0        0.746247   -0.151906   -0.009096
      3          1           0       -1.050810    0.573155   -0.799063
      4          1           0       -0.957802    0.511339    0.800567
      5          1           0       -1.040553   -0.940008   -0.027225
      6          1           0        1.122359    0.969996    0.010834
 ---------------------------------------------------------------------

 SCF Done:  E(RB2PLYPD3) =  -115.502974317     A.U. after   11 cycles
 E2(B2PLYPD3) =    -0.1512569595D+00 E(B2PLYPD3) =    -0.11565423127610D+03

 The electronic state is 1-A.
 Alpha  occ. eigenvalues --  -19.74049 -10.62912  -1.12764  -0.79388  -0.57187
 Alpha  occ. eigenvalues --   -0.52318  -0.48656  -0.41449  -0.35065
 Alpha virt. eigenvalues --    0.02648   0.07845   0.12377   0.12863   0.15043
 Alpha virt. eigenvalues --    0.17338   0.17923   0.26891   0.29706   0.33362
 Alpha virt. eigenvalues --    0.33953   0.39054   0.39724   0.42262   0.45065

 Mulliken charges:
               1
     1  C    0.096582
     2  O   -0.494275
     3  H    0.037351
     4  H    0.045451
     5  H    0.068267
     6  H    0.246624
 Sum of Mulliken charges =   0.00000

 Dipole moment (field-independent basis, Debye):
    X=             -1.0791    Y=              1.7015    Z=              0.0905  Tot=              2.0169
 Quadrupole moment (field-independent basis, Debye-Ang):
   XX=            -13.3001   YY=            -11.5028   ZZ=            -13.9500
   XY=              2.2418   XZ=              0.0353   YZ=              0.0979

 Normal termination of Gaussian 09 at Wed Aug 26 14:58:53 2020.
