 Gaussian 09, Revision D.01,
 Gaussian 09:  ES64L-G09RevD.01 24-Apr-2013

 --------------------
 #p B2PLYPD3/Def2QZVP
 --------------------

 --------
 methanol
 --------
 Symbolic Z-matrix:
 Charge =  0 Multiplicity = 1

                         Standard orientation:
 ---------------------------------------------------------------------
 Center     Atomic      Atomic             Coordinates (Angstroms)
 Number     Number       Type             X           Y           Z
 ---------------------------------------------------------------------
      1          6           0       -0.660837    0.017224   -0.000578
      2          8           0        0.731279   -0.144590   -0.005554
      3          1           0       -1.010756    0.527888   -0.880911
      4          1           0       -0.926572    0.531174    0.901556
      5          1           0       -1.082878   -0.877582    0.025143
      6          1           0        1.134996    0.871898    0.002110
 ---------------------------------------------------------------------

 SCF Done:  E(RB2PLYPD3) =  -115.529235813     A.U. after   11 cycles
 E2(B2PLYPD3) =    -0.1490237880D+00 E(B2PLYPD3) =    -0.11567825960130D+03

 The electronic state is 1-A.
 Alpha  occ. eigenvalues --  -19.73271 -10.63696  -1.14570  -0.78760  -0.57001
 Alpha  occ. eigenvalues --   -0.52638  -0.50748  -0.40696  -0.34858
 Alpha virt. eigenvalues --    0.03783   0.08087   0.12351   0.12941   0.14631
 Alpha virt. eigenvalues --    0.17593   0.18141   0.28906   0.30312   0.33036
 Alpha virt. eigenvalues --    0.34449   0.39245   0.41568   0.42114   0.43453

 Mulliken charges:
               1
     1  C    0.076956
     2  O   -0.481113
     3  H    0.042561
     4  H    0.041899
     5  H    0.069180
     6  H    0.250518
 Sum of Mulliken charges =   0.00000

 Dipole moment (field-independent basis, Debye):
    X=             -0.8859    Y=              1.5589    Z=              0.0243  Tot=              1.7932
 Quadrupole moment (field-independent basis, Debye-Ang):
   XX=            -13.1677   YY=            -11.9965   ZZ=            -13.7056
   XY=              2.4945   XZ=              0.0771   YZ=             -0.0115

 Normal termination of Gaussian 09 at Wed Aug 26 12:15:38 2020.
