 Gaussian 09, Revision D.01,
 Gaussian 09:  ES64L-G09RevD.01 24-Apr-2013

 --------------------
 #p B2PLYPD3/Def2QZVP
 --------------------

 --------
 methanol
 --------
 Symbolic Z-matrix:
 Charge =  0 Multiplicity = 1

                         Standard orientation:
 ---------------------------------------------------------------------
 Center     Atomic      Atomic             Coordinates (Angstroms)
 Number     Number       Type             X           Y           Z
 ---------------------------------------------------------------------
      1          6           0        0.672049   -0.020831    0.010778
      2          8           0       -0.740385    0.095051   -0.018154
      3          1           0        0.970948   -0.738608   -0.852036
      4          1           0        1.042084   -0.333852    0.998926
      5          1           0        1.036277    1.010735   -0.201161
      6          1           0       -1.158517   -0.573700    0.134837
 ---------------------------------------------------------------------

 SCF Done:  E(RB2PLYPD3) =  -115.516095630     A.U. after   11 cycles
 E2(B2PLYPD3) =    -0.1448773357D+00 E(B2PLYPD3) =    -0.11566097296562D+03

 The electronic state is 1-A.
 Alpha  occ. eigenvalues --  -19.70514 -10.67094  -1.19818  -0.80274  -0.60316
 Alpha  occ. eigenvalues --   -0.51895  -0.50218  -0.40353  -0.35575
 Alpha virt. eigenvalues --    0.05436   0.08892   0.11974   0.12292   0.14480
 Alpha virt. eigenvalues --    0.16811   0.18001   0.28995   0.32586   0.33523
 Alpha virt. eigenvalues --    0.37341   0.38987   0.39977   0.40592   0.42880

 Mulliken charges:
               1
     1  C    0.060133
     2  O   -0.363498
     3  H    0.047407
     4  H    0.056653
     5  H    0.077471
     6  H    0.121834
 Sum of Mulliken charges =   0.00000

 Dipole moment (field-independent basis, Debye):
    X=              0.7996    Y=             -1.2495    Z=              0.3444  Tot=              1.5229
 Quadrupole moment (field-independent basis, Debye-Ang):
   XX=            -12.9408   YY=            -12.5982   ZZ=            -13.4793
   XY=              2.0915   XZ=             -0.3135   YZ=             -0.2112

 Normal termination of Gaussian 09 at Wed Aug 26 10:49:01 2020.
