 Gaussian 09, Revision D.01,
 Gaussian 09:  ES64L-G09RevD.01 24-Apr-2013

 --------------------
 #p B2PLYPD3/Def2QZVP
 --------------------

 --------
 methanol
 --------
 Symbolic Z-matrix:
 Charge =  0 Multiplicity = 1

                         Standard orientation:
 ---------------------------------------------------------------------
 Center     Atomic      Atomic             Coordinates (Angstroms)
 Number     Number       Type             X           Y           Z
 ---------------------------------------------------------------------
      1          6           0        0.674340   -0.026931    0.001229
      2          8           0       -0.746788    0.111522   -0.004709
      3          1           0        1.022759   -0.596093   -0.873863
      4          1           0        1.021420   -0.487977    0.922469
      5          1           0        1.058400    1.029424   -0.046168
      6          1           0       -1.174317   -0.675946    0.027862
 ---------------------------------------------------------------------

 SCF Done:  E(RB2PLYPD3) =  -115.548181732     A.U. after   10 cycles
 E2(B2PLYPD3) =    -0.1462906206D+00 E(B2PLYPD3) =    -0.11569447235291D+03

 The electronic state is 1-A.
 Alpha  occ. eigenvalues --  -19.71658 -10.66256  -1.17010  -0.79152  -0.59408
 Alpha  occ. eigenvalues --   -0.51949  -0.49432  -0.40664  -0.35561
 Alpha virt. eigenvalues --    0.05270   0.08456   0.12195   0.12338   0.14804
 Alpha virt. eigenvalues --    0.16959   0.18033   0.29117   0.33122   0.33379
 Alpha virt. eigenvalues --    0.37110   0.38307   0.39696   0.40935   0.43136

 Mulliken charges:
               1
     1  C    0.068031
     2  O   -0.441306
     3  H    0.052307
     4  H    0.054241
     5  H    0.071572
     6  H    0.195154
 Sum of Mulliken charges =   0.00000

 Dipole moment (field-independent basis, Debye):
    X=              0.8409    Y=             -1.4493    Z=              0.0723  Tot=              1.6772
 Quadrupole moment (field-independent basis, Debye-Ang):
   XX=            -12.8817   YY=            -12.3669   ZZ=            -13.6955
   XY=              2.1682   XZ=             -0.0731   YZ=             -0.0346

 Normal termination of Gaussian 09 at Thu Aug 27 00:05:11 2020.
