 Gaussian 09, Revision D.01,
 Gaussian 09:  ES64L-G09RevD.01 24-Apr-2013

 --------------------
 #p B2PLYPD3/Def2QZVP
 --------------------

 --------
 methanol
 --------
 Symbolic Z-matrix:
 Charge =  0 Multiplicity = 1

                         Standard orientation:
 ---------------------------------------------------------------------
 Center     Atomic      Atomic             Coordinates (Angstroms)
 Number     Number       Type             X           Y           Z
 ---------------------------------------------------------------------
      1          6           0       -0.688636    0.015480   -0.003097
      2          8           0        0.747160   -0.157926   -0.014273
      3          1           0       -1.048134    0.643379   -0.709686
      4          1           0       -0.935508    0.435041    0.814147
      5          1           0       -0.981556   -0.945192   -0.027897
      6          1           0        1.119738    1.037298    0.056201
 ---------------------------------------------------------------------

 SCF Done:  E(RB2PLYPD3) =  -115.472551541     A.U. after   11 cycles
 E2(B2PLYPD3) =    -0.1529812910D+00 E(B2PLYPD3) =    -0.11562553283231D+03

 The electronic state is 1-A.
 Alpha  occ. eigenvalues --  -19.74283 -10.62041  -1.11722  -0.80049  -0.57347
 Alpha  occ. eigenvalues --   -0.52746  -0.47564  -0.41375  -0.35048
 Alpha virt. eigenvalues --    0.01592   0.07802   0.12192   0.13013   0.14979
 Alpha virt. eigenvalues --    0.16848   0.17966   0.25194   0.29654   0.33072
 Alpha virt. eigenvalues --    0.33804   0.39020   0.39666   0.42429   0.45562

 Mulliken charges:
               1
     1  C    0.101983
     2  O   -0.499192
     3  H    0.039771
     4  H    0.047766
     5  H    0.071739
     6  H    0.237934
 Sum of Mulliken charges =   0.00000

 Dipole moment (field-independent basis, Debye):
    X=             -1.2055    Y=              1.7327    Z=              0.1724  Tot=              2.1178
 Quadrupole moment (field-independent basis, Debye-Ang):
   XX=            -13.4483   YY=            -11.2016   ZZ=            -13.9777
   XY=              2.1120   XZ=              0.1126   YZ=              0.0713

 Normal termination of Gaussian 09 at Wed Aug 26 23:30:09 2020.
