 Gaussian 09, Revision D.01,
 Gaussian 09:  ES64L-G09RevD.01 24-Apr-2013

 --------------------
 #p B2PLYPD3/Def2QZVP
 --------------------

 --------
 methanol
 --------
 Symbolic Z-matrix:
 Charge =  0 Multiplicity = 1

                         Standard orientation:
 ---------------------------------------------------------------------
 Center     Atomic      Atomic             Coordinates (Angstroms)
 Number     Number       Type             X           Y           Z
 ---------------------------------------------------------------------
      1          6           0       -0.671379   -0.023736   -0.001662
      2          8           0        0.753414    0.100318   -0.005890
      3          1           0       -0.974921   -0.563219    0.910683
      4          1           0       -1.037923   -0.540337   -0.904200
      5          1           0       -1.061919    1.069959    0.035686
      6          1           0        1.075724   -0.626530    0.014924
 ---------------------------------------------------------------------

 SCF Done:  E(RB2PLYPD3) =  -115.513098758     A.U. after   10 cycles
 E2(B2PLYPD3) =    -0.1449907349D+00 E(B2PLYPD3) =    -0.11565808949253D+03

 The electronic state is 1-A.
 Alpha  occ. eigenvalues --  -19.70739 -10.66999  -1.20373  -0.79734  -0.60637
 Alpha  occ. eigenvalues --   -0.52184  -0.49287  -0.41389  -0.35955
 Alpha virt. eigenvalues --    0.05360   0.08953   0.11892   0.12148   0.14716
 Alpha virt. eigenvalues --    0.17032   0.17752   0.28974   0.32483   0.33250
 Alpha virt. eigenvalues --    0.37037   0.38829   0.40304   0.40369   0.42996

 Mulliken charges:
               1
     1  C    0.063930
     2  O   -0.354188
     3  H    0.052511
     4  H    0.055418
     5  H    0.070143
     6  H    0.112186
 Sum of Mulliken charges =   0.00000

 Dipole moment (field-independent basis, Debye):
    X=             -0.9827    Y=             -1.4022    Z=              0.0460  Tot=              1.7129
 Quadrupole moment (field-independent basis, Debye-Ang):
   XX=            -13.2919   YY=            -12.2956   ZZ=            -13.5981
   XY=             -1.9610   XZ=              0.1002   YZ=             -0.0042

 Normal termination of Gaussian 09 at Thu Aug 27 00:10:46 2020.
