 Gaussian 09, Revision D.01,
 Gaussian 09:  ES64L-G09RevD.01 24-Apr-2013

 --------------------
 #p B2PLYPD3/Def2QZVP
 --------------------

 --------
 methanol
 --------
 Symbolic Z-matrix:
 Charge =  0 Multiplicity = 1

                         Standard orientation:
 ---------------------------------------------------------------------
 Center     Atomic      Atomic             Coordinates (Angstroms)
 Number     Number       Type             X           Y           Z
 ---------------------------------------------------------------------
      1          6           0        0.671710   -0.016065    0.005561
      2          8           0       -0.753951    0.121533   -0.007405
      3          1           0        1.083722   -0.549881   -0.876107
      4          1           0        1.001215   -0.526649    0.889958
      5          1           0        1.056082    0.979014    0.002298
      6          1           0       -1.139667   -0.778363    0.009729
 ---------------------------------------------------------------------

 SCF Done:  E(RB2PLYPD3) =  -115.551244929     A.U. after   10 cycles
 E2(B2PLYPD3) =    -0.1477479976D+00 E(B2PLYPD3) =    -0.11569899292667D+03

 The electronic state is 1-A.
 Alpha  occ. eigenvalues --  -19.72728 -10.65429  -1.15390  -0.78762  -0.58325
 Alpha  occ. eigenvalues --   -0.51514  -0.49658  -0.41407  -0.35379
 Alpha virt. eigenvalues --    0.04856   0.08136   0.12395   0.12445   0.14897
 Alpha virt. eigenvalues --    0.17183   0.18136   0.29107   0.32951   0.33513
 Alpha virt. eigenvalues --    0.34659   0.38748   0.39957   0.40723   0.44013

 Mulliken charges:
               1
     1  C    0.071023
     2  O   -0.468024
     3  H    0.045885
     4  H    0.049863
     5  H    0.072860
     6  H    0.228394
 Sum of Mulliken charges =   0.00000

 Dipole moment (field-independent basis, Debye):
    X=              0.9327    Y=             -1.5110    Z=              0.0668  Tot=              1.7770
 Quadrupole moment (field-independent basis, Debye-Ang):
   XX=            -13.0466   YY=            -12.1325   ZZ=            -13.8194
   XY=              2.2486   XZ=             -0.0640   YZ=             -0.0437

 Normal termination of Gaussian 09 at Thu Aug 27 00:09:52 2020.
