 Gaussian 09, Revision D.01,
 Gaussian 09:  ES64L-G09RevD.01 24-Apr-2013

 --------------------
 #p B2PLYPD3/Def2QZVP
 --------------------

 --------
 methanol
 --------
 Symbolic Z-matrix:
 Charge =  0 Multiplicity = 1

                         Standard orientation:
 ---------------------------------------------------------------------
 Center     Atomic      Atomic             Coordinates (Angstroms)
 Number     Number       Type             X           Y           Z
 ---------------------------------------------------------------------
      1          6           0       -0.668636    0.029152   -0.005434
      2          8           0        0.730940   -0.161085   -0.000622
      3          1           0       -1.030445    0.514909   -0.787519
      4          1           0       -0.925360    0.573544    0.815547
      5          1           0       -1.074139   -0.921356    0.038085
      6          1           0        1.194239    0.946676   -0.028534
 ---------------------------------------------------------------------

 SCF Done:  E(RB2PLYPD3) =  -115.501082310     A.U. after   11 cycles
 E2(B2PLYPD3) =    -0.1510534202D+00 E(B2PLYPD3) =    -0.11565213572975D+03

 The electronic state is 1-A.
 Alpha  occ. eigenvalues --  -19.73923 -10.62582  -1.13003  -0.79223  -0.56752
 Alpha  occ. eigenvalues --   -0.53003  -0.49147  -0.40667  -0.34917
 Alpha virt. eigenvalues --    0.02398   0.07836   0.12532   0.12914   0.15022
 Alpha virt. eigenvalues --    0.17376   0.18001   0.26519   0.29679   0.33224
 Alpha virt. eigenvalues --    0.34704   0.39396   0.39567   0.43064   0.44988

 Mulliken charges:
               1
     1  C    0.097020
     2  O   -0.493587
     3  H    0.041723
     4  H    0.041084
     5  H    0.065056
     6  H    0.248704
 Sum of Mulliken charges =   0.00000

 Dipole moment (field-independent basis, Debye):
    X=             -0.9356    Y=              1.7123    Z=             -0.0563  Tot=              1.9520
 Quadrupole moment (field-independent basis, Debye-Ang):
   XX=            -12.9739   YY=            -11.6731   ZZ=            -13.9026
   XY=              2.4094   XZ=              0.0526   YZ=             -0.0612

 Normal termination of Gaussian 09 at Wed Aug 26 12:54:23 2020.
