 Gaussian 09, Revision D.01,
 Gaussian 09:  ES64L-G09RevD.01 24-Apr-2013

 --------------------
 #p B2PLYPD3/Def2QZVP
 --------------------

 --------
 methanol
 --------
 Symbolic Z-matrix:
 Charge =  0 Multiplicity = 1

                         Standard orientation:
 ---------------------------------------------------------------------
 Center     Atomic      Atomic             Coordinates (Angstroms)
 Number     Number       Type             X           Y           Z
 ---------------------------------------------------------------------
      1          6           0       -0.667161   -0.016979    0.017887
      2          8           0        0.749511    0.074978   -0.020878
      3          1           0       -1.016721   -0.398807    0.961950
      4          1           0       -1.088351   -0.710139   -0.855428
      5          1           0       -0.989090    1.133242   -0.141317
      6          1           0        1.101040   -0.522248    0.094494
 ---------------------------------------------------------------------

 SCF Done:  E(RB2PLYPD3) =  -115.420094203     A.U. after   11 cycles
 E2(B2PLYPD3) =    -0.1440612480D+00 E(B2PLYPD3) =    -0.11556415545065D+03

 The electronic state is 1-A.
 Alpha  occ. eigenvalues --  -19.69722 -10.68303  -1.23923  -0.81303  -0.62064
 Alpha  occ. eigenvalues --   -0.51476  -0.49316  -0.40871  -0.36098
 Alpha virt. eigenvalues --    0.05293   0.09185   0.11467   0.12032   0.14888
 Alpha virt. eigenvalues --    0.16590   0.17757   0.28842   0.32553   0.32996
 Alpha virt. eigenvalues --    0.36030   0.37340   0.40647   0.41057   0.41854

 Mulliken charges:
               1
     1  C    0.048202
     2  O   -0.248118
     3  H    0.062918
     4  H    0.045598
     5  H    0.074521
     6  H    0.016878
 Sum of Mulliken charges =   0.00000

 Dipole moment (field-independent basis, Debye):
    X=             -0.8623    Y=             -1.2380    Z=              0.3543  Tot=              1.5498
 Quadrupole moment (field-independent basis, Debye-Ang):
   XX=            -13.1529   YY=            -12.4467   ZZ=            -13.5765
   XY=             -1.7235   XZ=              0.2437   YZ=             -0.2193

 Normal termination of Gaussian 09 at Wed Aug 26 10:57:18 2020.
