 Gaussian 09, Revision D.01,
 Gaussian 09:  ES64L-G09RevD.01 24-Apr-2013

 --------------------
 #p B2PLYPD3/Def2QZVP
 --------------------

 --------
 methanol
 --------
 Symbolic Z-matrix:
 Charge =  0 Multiplicity = 1

                         Standard orientation:
 ---------------------------------------------------------------------
 Center     Atomic      Atomic             Coordinates (Angstroms)
 Number     Number       Type             X           Y           Z
 ---------------------------------------------------------------------
      1          6           0        0.668632    0.018748   -0.029036
      2          8           0       -0.740452   -0.156245    0.016992
      3          1           0        1.038808    0.615372    0.829396
      4          1           0        0.930586    0.509797   -0.799297
      5          1           0        1.129680   -0.906287    0.047081
      6          1           0       -1.187248    0.918593   -0.038900
 ---------------------------------------------------------------------

 SCF Done:  E(RB2PLYPD3) =  -115.504830745     A.U. after   11 cycles
 E2(B2PLYPD3) =    -0.1506260018D+00 E(B2PLYPD3) =    -0.11565545674723D+03

 The electronic state is 1-A.
 Alpha  occ. eigenvalues --  -19.73884 -10.63355  -1.13094  -0.79230  -0.57129
 Alpha  occ. eigenvalues --   -0.51943  -0.49605  -0.40911  -0.34793
 Alpha virt. eigenvalues --    0.02861   0.07737   0.12559   0.12792   0.14906
 Alpha virt. eigenvalues --    0.17691   0.17986   0.27369   0.29735   0.33098
 Alpha virt. eigenvalues --    0.33972   0.38894   0.40113   0.41544   0.44838

 Mulliken charges:
               1
     1  C    0.091819
     2  O   -0.495529
     3  H    0.032157
     4  H    0.049678
     5  H    0.068702
     6  H    0.253173
 Sum of Mulliken charges =   0.00000

 Dipole moment (field-independent basis, Debye):
    X=              0.9200    Y=              1.6697    Z=             -0.2061  Tot=              1.9175
 Quadrupole moment (field-independent basis, Debye-Ang):
   XX=            -12.9362   YY=            -11.7919   ZZ=            -13.9614
   XY=             -2.5065   XZ=              0.0587   YZ=             -0.2149

 Normal termination of Gaussian 09 at Wed Aug 26 16:37:22 2020.
