 Gaussian 09, Revision D.01,
 Gaussian 09:  ES64L-G09RevD.01 24-Apr-2013

 --------------------
 #p B2PLYPD3/Def2QZVP
 --------------------

 --------
 methanol
 --------
 Symbolic Z-matrix:
 Charge =  0 Multiplicity = 1

                         Standard orientation:
 ---------------------------------------------------------------------
 Center     Atomic      Atomic             Coordinates (Angstroms)
 Number     Number       Type             X           Y           Z
 ---------------------------------------------------------------------
      1          6           0       -0.711597   -0.016639   -0.000792
      2          8           0        0.778288   -0.022530    0.049753
      3          1           0       -1.058969   -0.705300   -0.854631
      4          1           0       -1.006886    1.270299   -0.077519
      5          1           0       -0.933758   -0.454578    0.940091
      6          1           0        1.042891    0.169649   -0.401210
 ---------------------------------------------------------------------

 SCF Done:  E(RB2PLYPD3) =  -115.047075136     A.U. after   11 cycles
 E2(B2PLYPD3) =    -0.1439664558D+00 E(B2PLYPD3) =    -0.11519104159145D+03

 The electronic state is 1-A.
 Alpha  occ. eigenvalues --  -19.67787 -10.69876  -1.29506  -0.82931  -0.60858
 Alpha  occ. eigenvalues --   -0.50960  -0.50189  -0.41637  -0.36318
 Alpha virt. eigenvalues --    0.04837   0.09240   0.10409   0.12202   0.13488
 Alpha virt. eigenvalues --    0.16359   0.17828   0.27985   0.28691   0.31272
 Alpha virt. eigenvalues --    0.33840   0.37386   0.40877   0.41316   0.42638

 Mulliken charges:
               1
     1  C    0.046002
     2  O   -0.132810
     3  H    0.070325
     4  H    0.050034
     5  H    0.106761
     6  H   -0.140312
 Sum of Mulliken charges =   0.00000

 Dipole moment (field-independent basis, Debye):
    X=             -1.2838    Y=              0.2422    Z=             -0.9628  Tot=              1.6229
 Quadrupole moment (field-independent basis, Debye-Ang):
   XX=            -13.5062   YY=            -12.9089   ZZ=            -12.6139
   XY=              0.9757   XZ=             -1.5585   YZ=             -0.2645

 Normal termination of Gaussian 09 at Wed Aug 26 22:21:27 2020.
