 Gaussian 09, Revision D.01,
 Gaussian 09:  ES64L-G09RevD.01 24-Apr-2013

 --------------------
 #p B2PLYPD3/Def2QZVP
 --------------------

 --------
 methanol
 --------
 Symbolic Z-matrix:
 Charge =  0 Multiplicity = 1

                         Standard orientation:
 ---------------------------------------------------------------------
 Center     Atomic      Atomic             Coordinates (Angstroms)
 Number     Number       Type             X           Y           Z
 ---------------------------------------------------------------------
      1          6           0       -0.662969   -0.012141    0.003026
      2          8           0        0.749356    0.096054   -0.010237
      3          1           0       -1.044020   -0.455843    0.986758
      4          1           0       -1.050744   -0.654623   -0.892161
      5          1           0       -1.084009    1.010737   -0.089954
      6          1           0        1.161739   -0.595854    0.059100
 ---------------------------------------------------------------------

 SCF Done:  E(RB2PLYPD3) =  -115.518051256     A.U. after   10 cycles
 E2(B2PLYPD3) =    -0.1451868145D+00 E(B2PLYPD3) =    -0.11566323807094D+03

 The electronic state is 1-A.
 Alpha  occ. eigenvalues --  -19.71057 -10.67648  -1.19937  -0.79954  -0.60484
 Alpha  occ. eigenvalues --   -0.51003  -0.50578  -0.40504  -0.35562
 Alpha virt. eigenvalues --    0.05396   0.08671   0.11977   0.12334   0.14594
 Alpha virt. eigenvalues --    0.17060   0.18019   0.28908   0.32956   0.33228
 Alpha virt. eigenvalues --    0.36790   0.39002   0.39392   0.39897   0.42555

 Mulliken charges:
               1
     1  C    0.059396
     2  O   -0.363581
     3  H    0.048416
     4  H    0.044531
     5  H    0.080255
     6  H    0.130982
 Sum of Mulliken charges =   0.00000

 Dipole moment (field-independent basis, Debye):
    X=             -0.7871    Y=             -1.2634    Z=              0.1527  Tot=              1.4963
 Quadrupole moment (field-independent basis, Debye-Ang):
   XX=            -12.8291   YY=            -12.6011   ZZ=            -13.7077
   XY=             -2.1648   XZ=              0.1851   YZ=             -0.0977

 Normal termination of Gaussian 09 at Wed Aug 26 23:58:36 2020.
