 Gaussian 09, Revision D.01,
 Gaussian 09:  ES64L-G09RevD.01 24-Apr-2013

 --------------------
 #p B2PLYPD3/Def2QZVP
 --------------------

 --------
 methanol
 --------
 Symbolic Z-matrix:
 Charge =  0 Multiplicity = 1

                         Standard orientation:
 ---------------------------------------------------------------------
 Center     Atomic      Atomic             Coordinates (Angstroms)
 Number     Number       Type             X           Y           Z
 ---------------------------------------------------------------------
      1          6           0       -0.669195   -0.017858    0.007020
      2          8           0        0.749093    0.095368   -0.014396
      3          1           0       -1.052566   -0.376529    0.975516
      4          1           0       -1.008255   -0.712849   -0.851496
      5          1           0       -1.038389    1.039152   -0.157358
      6          1           0        1.121637   -0.605569    0.106386
 ---------------------------------------------------------------------

 SCF Done:  E(RB2PLYPD3) =  -115.516928021     A.U. after   10 cycles
 E2(B2PLYPD3) =    -0.1450593660D+00 E(B2PLYPD3) =    -0.11566198738658D+03

 The electronic state is 1-A.
 Alpha  occ. eigenvalues --  -19.70833 -10.67226  -1.20052  -0.79890  -0.60539
 Alpha  occ. eigenvalues --   -0.51615  -0.49821  -0.40976  -0.35742
 Alpha virt. eigenvalues --    0.05389   0.08845   0.12016   0.12142   0.14694
 Alpha virt. eigenvalues --    0.16889   0.17948   0.28963   0.32690   0.33412
 Alpha virt. eigenvalues --    0.37353   0.38547   0.39973   0.40377   0.42565

 Mulliken charges:
               1
     1  C    0.059697
     2  O   -0.359527
     3  H    0.055572
     4  H    0.047104
     5  H    0.075410
     6  H    0.121744
 Sum of Mulliken charges =   0.00000

 Dipole moment (field-independent basis, Debye):
    X=             -0.8728    Y=             -1.3097    Z=              0.2779  Tot=              1.5983
 Quadrupole moment (field-independent basis, Debye-Ang):
   XX=            -13.0854   YY=            -12.4471   ZZ=            -13.6054
   XY=             -2.0282   XZ=              0.2276   YZ=             -0.1715

 Normal termination of Gaussian 09 at Thu Aug 27 00:00:33 2020.
