 Gaussian 09, Revision D.01,
 Gaussian 09:  ES64L-G09RevD.01 24-Apr-2013

 --------------------
 #p B2PLYPD3/Def2QZVP
 --------------------

 --------
 methanol
 --------
 Symbolic Z-matrix:
 Charge =  0 Multiplicity = 1

                         Standard orientation:
 ---------------------------------------------------------------------
 Center     Atomic      Atomic             Coordinates (Angstroms)
 Number     Number       Type             X           Y           Z
 ---------------------------------------------------------------------
      1          6           0        0.661633    0.015936    0.034560
      2          8           0       -0.738891   -0.174453   -0.019109
      3          1           0        1.045499    0.380021    0.801154
      4          1           0        1.129676    0.646806   -0.780189
      5          1           0        1.025818   -0.821861   -0.131891
      6          1           0       -1.259668    1.095043    0.056441
 ---------------------------------------------------------------------

 SCF Done:  E(RB2PLYPD3) =  -115.426672294     A.U. after   11 cycles
 E2(B2PLYPD3) =    -0.1552282395D+00 E(B2PLYPD3) =    -0.11558190053307D+03

 The electronic state is 1-A.
 Alpha  occ. eigenvalues --  -19.75535 -10.62024  -1.12198  -0.80556  -0.56654
 Alpha  occ. eigenvalues --   -0.50926  -0.49618  -0.39922  -0.35011
 Alpha virt. eigenvalues --   -0.00885   0.07350   0.12784   0.12981   0.15027
 Alpha virt. eigenvalues --    0.17278   0.18690   0.22534   0.29491   0.33541
 Alpha virt. eigenvalues --    0.34653   0.37088   0.39792   0.41622   0.45860

 Mulliken charges:
               1
     1  C    0.080822
     2  O   -0.478249
     3  H    0.052665
     4  H    0.025956
     5  H    0.074068
     6  H    0.244739
 Sum of Mulliken charges =   0.00000

 Dipole moment (field-independent basis, Debye):
    X=              0.9339    Y=              1.6366    Z=              0.2438  Tot=              1.9000
 Quadrupole moment (field-independent basis, Debye-Ang):
   XX=            -12.7428   YY=            -11.5754   ZZ=            -14.0853
   XY=             -2.5830   XZ=             -0.0101   YZ=              0.2687

 Normal termination of Gaussian 09 at Wed Aug 26 23:18:29 2020.
