 Gaussian 09, Revision D.01,
 Gaussian 09:  ES64L-G09RevD.01 24-Apr-2013

 --------------------
 #p B2PLYPD3/Def2QZVP
 --------------------

 --------
 methanol
 --------
 Symbolic Z-matrix:
 Charge =  0 Multiplicity = 1

                         Standard orientation:
 ---------------------------------------------------------------------
 Center     Atomic      Atomic             Coordinates (Angstroms)
 Number     Number       Type             X           Y           Z
 ---------------------------------------------------------------------
      1          6           0       -0.665156   -0.033985   -0.001945
      2          8           0        0.741051    0.137794    0.010283
      3          1           0       -1.037278   -0.536763    0.851441
      4          1           0       -1.018191   -0.491905   -0.844641
      5          1           0       -1.030322    0.991306   -0.019888
      6          1           0        1.148320   -0.861078   -0.057510
 ---------------------------------------------------------------------

 SCF Done:  E(RB2PLYPD3) =  -115.535140469     A.U. after   11 cycles
 E2(B2PLYPD3) =    -0.1492873883D+00 E(B2PLYPD3) =    -0.11568442785688D+03

 The electronic state is 1-A.
 Alpha  occ. eigenvalues --  -19.73477 -10.64177  -1.14303  -0.78602  -0.57601
 Alpha  occ. eigenvalues --   -0.52715  -0.48820  -0.40854  -0.35419
 Alpha virt. eigenvalues --    0.04012   0.07983   0.12332   0.12645   0.15092
 Alpha virt. eigenvalues --    0.17089   0.18314   0.28919   0.30868   0.33681
 Alpha virt. eigenvalues --    0.34362   0.38256   0.39846   0.42353   0.44726

 Mulliken charges:
               1
     1  C    0.074980
     2  O   -0.479415
     3  H    0.049693
     4  H    0.048539
     5  H    0.062315
     6  H    0.243888
 Sum of Mulliken charges =   0.00000

 Dipole moment (field-independent basis, Debye):
    X=             -0.9052    Y=             -1.6375    Z=             -0.1502  Tot=              1.8770
 Quadrupole moment (field-independent basis, Debye-Ang):
   XX=            -13.1249   YY=            -11.9653   ZZ=            -13.8025
   XY=             -2.2008   XZ=             -0.1020   YZ=              0.0729

 Normal termination of Gaussian 09 at Wed Aug 26 12:32:28 2020.
