 Gaussian 09, Revision D.01,
 Gaussian 09:  ES64L-G09RevD.01 24-Apr-2013

 --------------------
 #p B2PLYPD3/Def2QZVP
 --------------------

 --------
 methanol
 --------
 Symbolic Z-matrix:
 Charge =  0 Multiplicity = 1

                         Standard orientation:
 ---------------------------------------------------------------------
 Center     Atomic      Atomic             Coordinates (Angstroms)
 Number     Number       Type             X           Y           Z
 ---------------------------------------------------------------------
      1          6           0       -0.661272    0.031691    0.007856
      2          8           0        0.747289   -0.148205   -0.008590
      3          1           0       -1.019995    0.577853   -0.843935
      4          1           0       -1.042998    0.469017    0.844437
      5          1           0       -1.124647   -0.934485   -0.033735
      6          1           0        1.176955    0.883108    0.054819
 ---------------------------------------------------------------------

 SCF Done:  E(RB2PLYPD3) =  -115.527914089     A.U. after   11 cycles
 E2(B2PLYPD3) =    -0.1500035566D+00 E(B2PLYPD3) =    -0.11567791764551D+03

 The electronic state is 1-A.
 Alpha  occ. eigenvalues --  -19.73928 -10.64156  -1.13703  -0.78732  -0.56729
 Alpha  occ. eigenvalues --   -0.52239  -0.49419  -0.40637  -0.35349
 Alpha virt. eigenvalues --    0.03544   0.07707   0.12609   0.12662   0.14892
 Alpha virt. eigenvalues --    0.17565   0.18406   0.28426   0.29829   0.33505
 Alpha virt. eigenvalues --    0.34209   0.38906   0.39766   0.41969   0.44129

 Mulliken charges:
               1
     1  C    0.080033
     2  O   -0.486020
     3  H    0.044498
     4  H    0.048564
     5  H    0.060615
     6  H    0.252310
 Sum of Mulliken charges =   0.00000

 Dipole moment (field-independent basis, Debye):
    X=             -0.9007    Y=              1.6504    Z=              0.1489  Tot=              1.8861
 Quadrupole moment (field-independent basis, Debye-Ang):
   XX=            -12.8839   YY=            -12.0482   ZZ=            -13.8895
   XY=              2.3998   XZ=              0.0536   YZ=              0.0988

 Normal termination of Gaussian 09 at Wed Aug 26 10:42:27 2020.
