 Gaussian 09, Revision D.01,
 Gaussian 09:  ES64L-G09RevD.01 24-Apr-2013

 --------------------
 #p B2PLYPD3/Def2QZVP
 --------------------

 --------
 methanol
 --------
 Symbolic Z-matrix:
 Charge =  0 Multiplicity = 1

                         Standard orientation:
 ---------------------------------------------------------------------
 Center     Atomic      Atomic             Coordinates (Angstroms)
 Number     Number       Type             X           Y           Z
 ---------------------------------------------------------------------
      1          6           0        0.665615   -0.019944   -0.002859
      2          8           0       -0.752647    0.108228   -0.007041
      3          1           0        0.993065   -0.677278   -0.846043
      4          1           0        1.059175   -0.388838    0.981335
      5          1           0        1.081018    0.992109   -0.136529
      6          1           0       -1.105770   -0.672157    0.074714
 ---------------------------------------------------------------------

 SCF Done:  E(RB2PLYPD3) =  -115.541334794     A.U. after   10 cycles
 E2(B2PLYPD3) =    -0.1458663184D+00 E(B2PLYPD3) =    -0.11568720111263D+03

 The electronic state is 1-A.
 Alpha  occ. eigenvalues --  -19.71632 -10.66598  -1.18504  -0.79220  -0.59716
 Alpha  occ. eigenvalues --   -0.51802  -0.49991  -0.41159  -0.35677
 Alpha virt. eigenvalues --    0.05317   0.08597   0.12083   0.12390   0.14607
 Alpha virt. eigenvalues --    0.17213   0.18100   0.28945   0.32941   0.33302
 Alpha virt. eigenvalues --    0.37049   0.38867   0.39905   0.40249   0.43445

 Mulliken charges:
               1
     1  C    0.064168
     2  O   -0.408955
     3  H    0.049403
     4  H    0.049732
     5  H    0.072746
     6  H    0.172905
 Sum of Mulliken charges =   0.00000

 Dipole moment (field-independent basis, Debye):
    X=              0.9207    Y=             -1.3857    Z=              0.1365  Tot=              1.6692
 Quadrupole moment (field-independent basis, Debye-Ang):
   XX=            -13.1279   YY=            -12.3898   ZZ=            -13.6550
   XY=              2.1586   XZ=             -0.1752   YZ=             -0.0729

 Normal termination of Gaussian 09 at Wed Aug 26 09:52:30 2020.
