 Gaussian 09, Revision D.01,
 Gaussian 09:  ES64L-G09RevD.01 24-Apr-2013

 --------------------
 #p B2PLYPD3/Def2QZVP
 --------------------

 --------
 methanol
 --------
 Symbolic Z-matrix:
 Charge =  0 Multiplicity = 1

                         Standard orientation:
 ---------------------------------------------------------------------
 Center     Atomic      Atomic             Coordinates (Angstroms)
 Number     Number       Type             X           Y           Z
 ---------------------------------------------------------------------
      1          6           0        0.665847   -0.019142    0.000709
      2          8           0       -0.751929    0.109408   -0.001987
      3          1           0        1.016827   -0.593317   -0.900814
      4          1           0        1.097768   -0.473651    0.928249
      5          1           0        1.059936    0.998904   -0.061443
      6          1           0       -1.154181   -0.692349    0.045649
 ---------------------------------------------------------------------

 SCF Done:  E(RB2PLYPD3) =  -115.548152341     A.U. after   10 cycles
 E2(B2PLYPD3) =    -0.1464886837D+00 E(B2PLYPD3) =    -0.11569464102473D+03

 The electronic state is 1-A.
 Alpha  occ. eigenvalues --  -19.72070 -10.66497  -1.17366  -0.79007  -0.59397
 Alpha  occ. eigenvalues --   -0.51364  -0.49912  -0.40917  -0.35558
 Alpha virt. eigenvalues --    0.05248   0.08329   0.12215   0.12400   0.14786
 Alpha virt. eigenvalues --    0.17073   0.18261   0.28987   0.32995   0.33674
 Alpha virt. eigenvalues --    0.36582   0.38614   0.39642   0.40247   0.43148

 Mulliken charges:
               1
     1  C    0.062184
     2  O   -0.432618
     3  H    0.048409
     4  H    0.050250
     5  H    0.073549
     6  H    0.198227
 Sum of Mulliken charges =   0.00000

 Dipole moment (field-independent basis, Debye):
    X=              0.8406    Y=             -1.4037    Z=              0.0863  Tot=              1.6384
 Quadrupole moment (field-independent basis, Debye-Ang):
   XX=            -12.9076   YY=            -12.4187   ZZ=            -13.7518
   XY=              2.2099   XZ=             -0.0499   YZ=             -0.0612

 Normal termination of Gaussian 09 at Thu Aug 27 01:03:51 2020.
