 Gaussian 09, Revision D.01,
 Gaussian 09:  ES64L-G09RevD.01 24-Apr-2013

 --------------------
 #p B2PLYPD3/Def2QZVP
 --------------------

 --------
 methanol
 --------
 Symbolic Z-matrix:
 Charge =  0 Multiplicity = 1

                         Standard orientation:
 ---------------------------------------------------------------------
 Center     Atomic      Atomic             Coordinates (Angstroms)
 Number     Number       Type             X           Y           Z
 ---------------------------------------------------------------------
      1          6           0        0.665577   -0.016883    0.023498
      2          8           0       -0.746749    0.096887   -0.025046
      3          1           0        0.952606   -0.856274   -0.778713
      4          1           0        1.043751   -0.211246    1.014884
      5          1           0        1.086320    0.967041   -0.345350
      6          1           0       -1.102150   -0.573324    0.168561
 ---------------------------------------------------------------------

 SCF Done:  E(RB2PLYPD3) =  -115.501561986     A.U. after   11 cycles
 E2(B2PLYPD3) =    -0.1448054929D+00 E(B2PLYPD3) =    -0.11564636747883D+03

 The electronic state is 1-A.
 Alpha  occ. eigenvalues --  -19.70636 -10.67419  -1.20996  -0.80106  -0.60732
 Alpha  occ. eigenvalues --   -0.51964  -0.50205  -0.40729  -0.35713
 Alpha virt. eigenvalues --    0.05359   0.08954   0.11780   0.12251   0.14348
 Alpha virt. eigenvalues --    0.17119   0.17992   0.28793   0.32303   0.33421
 Alpha virt. eigenvalues --    0.36461   0.38582   0.39993   0.41115   0.43020

 Mulliken charges:
               1
     1  C    0.057933
     2  O   -0.334752
     3  H    0.038766
     4  H    0.062009
     5  H    0.073809
     6  H    0.102236
 Sum of Mulliken charges =   0.00000

 Dipole moment (field-independent basis, Debye):
    X=              0.8796    Y=             -1.2149    Z=              0.4556  Tot=              1.5675
 Quadrupole moment (field-independent basis, Debye-Ang):
   XX=            -13.1536   YY=            -12.6629   ZZ=            -13.4199
   XY=              2.0982   XZ=             -0.3796   YZ=             -0.3106

 Normal termination of Gaussian 09 at Wed Aug 26 15:29:58 2020.
