 Gaussian 09, Revision D.01,
 Gaussian 09:  ES64L-G09RevD.01 24-Apr-2013

 --------------------
 #p B2PLYPD3/Def2QZVP
 --------------------

 --------
 methanol
 --------
 Symbolic Z-matrix:
 Charge =  0 Multiplicity = 1

                         Standard orientation:
 ---------------------------------------------------------------------
 Center     Atomic      Atomic             Coordinates (Angstroms)
 Number     Number       Type             X           Y           Z
 ---------------------------------------------------------------------
      1          6           0       -0.627676   -0.006988    0.020133
      2          8           0        0.740517   -0.090896   -0.061607
      3          1           0       -1.093025    0.985156   -0.599195
      4          1           0       -0.983105    0.031562    1.063102
      5          1           0       -1.193336   -0.822308   -0.404856
      6          1           0        1.111387    0.574685    0.313001
 ---------------------------------------------------------------------

 SCF Done:  E(RB2PLYPD3) =  -115.524126255     A.U. after   11 cycles
 E2(B2PLYPD3) =    -0.1456777240D+00 E(B2PLYPD3) =    -0.11566980397888D+03

 The electronic state is 1-A.
 Alpha  occ. eigenvalues --  -19.72342 -10.67341  -1.20821  -0.79506  -0.61275
 Alpha  occ. eigenvalues --   -0.52193  -0.51050  -0.40183  -0.35050
 Alpha virt. eigenvalues --    0.05209   0.08366   0.11766   0.12831   0.14458
 Alpha virt. eigenvalues --    0.18040   0.18185   0.28527   0.31951   0.34380
 Alpha virt. eigenvalues --    0.35379   0.37884   0.40497   0.40917   0.44198

 Mulliken charges:
               1
     1  C    0.053283
     2  O   -0.367539
     3  H    0.014691
     4  H    0.046242
     5  H    0.077973
     6  H    0.175351
 Sum of Mulliken charges =   0.00000

 Dipole moment (field-independent basis, Debye):
    X=             -0.6449    Y=              0.9864    Z=              0.7892  Tot=              1.4184
 Quadrupole moment (field-independent basis, Debye-Ang):
   XX=            -12.9266   YY=            -13.0646   ZZ=            -13.5625
   XY=              2.1826   XZ=              1.0171   YZ=              0.5079

 Normal termination of Gaussian 09 at Wed Aug 26 22:09:18 2020.
