 Gaussian 09, Revision D.01,
 Gaussian 09:  ES64L-G09RevD.01 24-Apr-2013

 --------------------
 #p B2PLYPD3/Def2QZVP
 --------------------

 --------
 methanol
 --------
 Symbolic Z-matrix:
 Charge =  0 Multiplicity = 1

                         Standard orientation:
 ---------------------------------------------------------------------
 Center     Atomic      Atomic             Coordinates (Angstroms)
 Number     Number       Type             X           Y           Z
 ---------------------------------------------------------------------
      1          6           0        0.658948    0.005426   -0.002407
      2          8           0       -0.744564   -0.127174    0.000798
      3          1           0        1.062804    0.513680    0.889888
      4          1           0        1.019101    0.579181   -0.863249
      5          1           0        1.046156   -0.937971   -0.033469
      6          1           0       -1.125238    0.829949    0.014889
 ---------------------------------------------------------------------

 SCF Done:  E(RB2PLYPD3) =  -115.544244333     A.U. after   10 cycles
 E2(B2PLYPD3) =    -0.1483197815D+00 E(B2PLYPD3) =    -0.11569256411421D+03

 The electronic state is 1-A.
 Alpha  occ. eigenvalues --  -19.73240 -10.64818  -1.15330  -0.78626  -0.58138
 Alpha  occ. eigenvalues --   -0.51264  -0.50485  -0.41480  -0.34989
 Alpha virt. eigenvalues --    0.04399   0.08073   0.12458   0.12630   0.15029
 Alpha virt. eigenvalues --    0.17336   0.18114   0.29146   0.32357   0.33229
 Alpha virt. eigenvalues --    0.34401   0.38771   0.40400   0.40810   0.43849

 Mulliken charges:
               1
     1  C    0.072734
     2  O   -0.469100
     3  H    0.040017
     4  H    0.040059
     5  H    0.074118
     6  H    0.242171
 Sum of Mulliken charges =   0.00000

 Dipole moment (field-independent basis, Debye):
    X=              0.8750    Y=              1.5226    Z=              0.0102  Tot=              1.7561
 Quadrupole moment (field-independent basis, Debye-Ang):
   XX=            -13.1323   YY=            -11.9920   ZZ=            -13.9140
   XY=             -2.3194   XZ=             -0.0140   YZ=              0.0134

 Normal termination of Gaussian 09 at Thu Aug 27 00:12:55 2020.
