 Gaussian 09, Revision D.01,
 Gaussian 09:  ES64L-G09RevD.01 24-Apr-2013

 --------------------
 #p B2PLYPD3/Def2QZVP
 --------------------

 --------
 methanol
 --------
 Symbolic Z-matrix:
 Charge =  0 Multiplicity = 1

                         Standard orientation:
 ---------------------------------------------------------------------
 Center     Atomic      Atomic             Coordinates (Angstroms)
 Number     Number       Type             X           Y           Z
 ---------------------------------------------------------------------
      1          6           0        0.695874    0.010244    0.016602
      2          8           0       -0.757421   -0.043536   -0.016278
      3          1           0        1.108715   -0.039591    1.068926
      4          1           0        0.931538    1.069142   -0.600235
      5          1           0        0.951128   -1.010994   -0.621365
      6          1           0       -1.107259    0.268264    0.183287
 ---------------------------------------------------------------------

 SCF Done:  E(RB2PLYPD3) =  -114.813415223     A.U. after   12 cycles
 E2(B2PLYPD3) =    -0.1436458579D+00 E(B2PLYPD3) =    -0.11495706108118D+03

 The electronic state is 1-A.
 Alpha  occ. eigenvalues --  -19.67511 -10.71015  -1.31520  -0.84703  -0.61897
 Alpha  occ. eigenvalues --   -0.51236  -0.49413  -0.39533  -0.36437
 Alpha virt. eigenvalues --    0.04779   0.09713   0.10923   0.11461   0.13696
 Alpha virt. eigenvalues --    0.16187   0.17522   0.28353   0.29774   0.32659
 Alpha virt. eigenvalues --    0.34647   0.35390   0.38011   0.41178   0.42420

 Mulliken charges:
               1
     1  C    0.049265
     2  O   -0.071930
     3  H    0.075388
     4  H    0.057829
     5  H    0.090587
     6  H   -0.201138
 Sum of Mulliken charges =   0.00000

 Dipole moment (field-independent basis, Debye):
    X=              1.0712    Y=              0.7675    Z=              0.6064  Tot=              1.4506
 Quadrupole moment (field-independent basis, Debye-Ang):
   XX=            -13.0570   YY=            -12.6981   ZZ=            -13.0091
   XY=             -1.4535   XZ=             -0.5282   YZ=              0.2681

 Normal termination of Gaussian 09 at Wed Aug 26 21:21:46 2020.
