 Gaussian 09, Revision D.01,
 Gaussian 09:  ES64L-G09RevD.01 24-Apr-2013

 --------------------
 #p B2PLYPD3/Def2QZVP
 --------------------

 --------
 methanol
 --------
 Symbolic Z-matrix:
 Charge =  0 Multiplicity = 1

                         Standard orientation:
 ---------------------------------------------------------------------
 Center     Atomic      Atomic             Coordinates (Angstroms)
 Number     Number       Type             X           Y           Z
 ---------------------------------------------------------------------
      1          6           0        0.660586    0.022710    0.013073
      2          8           0       -0.743574   -0.141339   -0.016728
      3          1           0        1.026041    0.399434    0.891965
      4          1           0        1.072679    0.639817   -0.821371
      5          1           0        1.072607   -0.920849   -0.090083
      6          1           0       -1.186255    0.876050    0.074879
 ---------------------------------------------------------------------

 SCF Done:  E(RB2PLYPD3) =  -115.528173072     A.U. after   11 cycles
 E2(B2PLYPD3) =    -0.1498503650D+00 E(B2PLYPD3) =    -0.11567802343700D+03

 The electronic state is 1-A.
 Alpha  occ. eigenvalues --  -19.73862 -10.64226  -1.13945  -0.78671  -0.56982
 Alpha  occ. eigenvalues --   -0.51734  -0.49868  -0.40713  -0.35192
 Alpha virt. eigenvalues --    0.03614   0.07742   0.12546   0.12738   0.14985
 Alpha virt. eigenvalues --    0.17311   0.18476   0.28542   0.29960   0.33548
 Alpha virt. eigenvalues --    0.34360   0.38523   0.40073   0.41488   0.44145

 Mulliken charges:
               1
     1  C    0.075294
     2  O   -0.483321
     3  H    0.050130
     4  H    0.038702
     5  H    0.066392
     6  H    0.252802
 Sum of Mulliken charges =   0.00000

 Dipole moment (field-independent basis, Debye):
    X=              0.8481    Y=              1.5761    Z=              0.2255  Tot=              1.8039
 Quadrupole moment (field-independent basis, Debye-Ang):
   XX=            -12.8750   YY=            -12.0653   ZZ=            -13.8835
   XY=             -2.4301   XZ=             -0.1408   YZ=              0.1605

 Normal termination of Gaussian 09 at Wed Aug 26 10:24:04 2020.
