 Gaussian 09, Revision D.01,
 Gaussian 09:  ES64L-G09RevD.01 24-Apr-2013

 --------------------
 #p B2PLYPD3/Def2QZVP
 --------------------

 --------
 methanol
 --------
 Symbolic Z-matrix:
 Charge =  0 Multiplicity = 1

                         Standard orientation:
 ---------------------------------------------------------------------
 Center     Atomic      Atomic             Coordinates (Angstroms)
 Number     Number       Type             X           Y           Z
 ---------------------------------------------------------------------
      1          6           0        0.675331    0.056511   -0.004756
      2          8           0       -0.705519   -0.216269    0.019789
      3          1           0        1.050146    0.517717    0.759971
      4          1           0        0.859073    0.509161   -0.737001
      5          1           0        1.073789   -0.780711   -0.099983
      6          1           0       -1.390840    1.144920   -0.052760
 ---------------------------------------------------------------------

 SCF Done:  E(RB2PLYPD3) =  -115.365081503     A.U. after   12 cycles
 E2(B2PLYPD3) =    -0.1575013589D+00 E(B2PLYPD3) =    -0.11552258286169D+03

 The electronic state is 1-A.
 Alpha  occ. eigenvalues --  -19.75292 -10.59489  -1.11861  -0.81728  -0.56034
 Alpha  occ. eigenvalues --   -0.54983  -0.48866  -0.38170  -0.35302
 Alpha virt. eigenvalues --   -0.03560   0.07538   0.12798   0.13186   0.14800
 Alpha virt. eigenvalues --    0.17221   0.18318   0.21085   0.29551   0.33199
 Alpha virt. eigenvalues --    0.34973   0.39423   0.40061   0.44499   0.45726

 Mulliken charges:
               1
     1  C    0.078997
     2  O   -0.473904
     3  H    0.044385
     4  H    0.074014
     5  H    0.065109
     6  H    0.211398
 Sum of Mulliken charges =   0.00000

 Dipole moment (field-independent basis, Debye):
    X=              1.0414    Y=              1.7087    Z=             -0.1849  Tot=              2.0096
 Quadrupole moment (field-independent basis, Debye-Ang):
   XX=            -12.4061   YY=            -11.4994   ZZ=            -13.8196
   XY=             -2.6313   XZ=              0.1400   YZ=             -0.0539

 Normal termination of Gaussian 09 at Wed Aug 26 21:22:43 2020.
