 Gaussian 09, Revision D.01,
 Gaussian 09:  ES64L-G09RevD.01 24-Apr-2013

 --------------------
 #p B2PLYPD3/Def2QZVP
 --------------------

 --------
 methanol
 --------
 Symbolic Z-matrix:
 Charge =  0 Multiplicity = 1

                         Standard orientation:
 ---------------------------------------------------------------------
 Center     Atomic      Atomic             Coordinates (Angstroms)
 Number     Number       Type             X           Y           Z
 ---------------------------------------------------------------------
      1          6           0       -0.661691    0.015593    0.007260
      2          8           0        0.756185   -0.134582   -0.018779
      3          1           0       -1.097879    0.684687   -0.759456
      4          1           0       -0.966033    0.395169    0.896856
      5          1           0       -1.114951   -0.955484   -0.094296
      6          1           0        1.099526    0.858726    0.063565
 ---------------------------------------------------------------------

 SCF Done:  E(RB2PLYPD3) =  -115.537949841     A.U. after   11 cycles
 E2(B2PLYPD3) =    -0.1490731914D+00 E(B2PLYPD3) =    -0.11568702303260D+03

 The electronic state is 1-A.
 Alpha  occ. eigenvalues --  -19.73587 -10.64664  -1.14602  -0.78754  -0.57641
 Alpha  occ. eigenvalues --   -0.51760  -0.49492  -0.41521  -0.35333
 Alpha virt. eigenvalues --    0.04189   0.07909   0.12323   0.12702   0.14949
 Alpha virt. eigenvalues --    0.17573   0.18190   0.29120   0.31108   0.33366
 Alpha virt. eigenvalues --    0.34048   0.38628   0.39691   0.41303   0.44284

 Mulliken charges:
               1
     1  C    0.080025
     2  O   -0.476172
     3  H    0.036919
     4  H    0.049502
     5  H    0.065133
     6  H    0.244593
 Sum of Mulliken charges =   0.00000

 Dipole moment (field-independent basis, Debye):
    X=             -1.0001    Y=              1.6078    Z=              0.2240  Tot=              1.9067
 Quadrupole moment (field-independent basis, Debye-Ang):
   XX=            -13.1961   YY=            -11.9227   ZZ=            -13.9374
   XY=              2.2387   XZ=              0.1735   YZ=              0.1374

 Normal termination of Gaussian 09 at Wed Aug 26 13:20:42 2020.
