 Gaussian 09, Revision D.01,
 Gaussian 09:  ES64L-G09RevD.01 24-Apr-2013

 --------------------
 #p B2PLYPD3/Def2QZVP
 --------------------

 --------
 methanol
 --------
 Symbolic Z-matrix:
 Charge =  0 Multiplicity = 1

                         Standard orientation:
 ---------------------------------------------------------------------
 Center     Atomic      Atomic             Coordinates (Angstroms)
 Number     Number       Type             X           Y           Z
 ---------------------------------------------------------------------
      1          6           0        0.668113    0.017113   -0.006191
      2          8           0       -0.747126   -0.144379    0.008186
      3          1           0        1.009049    0.568240    0.852922
      4          1           0        1.014912    0.498612   -0.841790
      5          1           0        1.072328   -0.921395    0.010417
      6          1           0       -1.127961    0.906898   -0.049894
 ---------------------------------------------------------------------

 SCF Done:  E(RB2PLYPD3) =  -115.526269078     A.U. after   11 cycles
 E2(B2PLYPD3) =    -0.1499603569D+00 E(B2PLYPD3) =    -0.11567622943528D+03

 The electronic state is 1-A.
 Alpha  occ. eigenvalues --  -19.73724 -10.63726  -1.13577  -0.78942  -0.56960
 Alpha  occ. eigenvalues --   -0.52116  -0.49566  -0.41314  -0.35125
 Alpha virt. eigenvalues --    0.03518   0.07905   0.12592   0.12631   0.14891
 Alpha virt. eigenvalues --    0.17472   0.18130   0.28523   0.29928   0.33345
 Alpha virt. eigenvalues --    0.34020   0.39170   0.40391   0.41777   0.44179

 Mulliken charges:
               1
     1  C    0.085704
     2  O   -0.488932
     3  H    0.042023
     4  H    0.044076
     5  H    0.067688
     6  H    0.249441
 Sum of Mulliken charges =   0.00000

 Dipole moment (field-independent basis, Debye):
    X=              1.0012    Y=              1.6278    Z=             -0.1376  Tot=              1.9161
 Quadrupole moment (field-independent basis, Debye-Ang):
   XX=            -13.1838   YY=            -11.8119   ZZ=            -13.8554
   XY=             -2.3419   XZ=              0.0478   YZ=             -0.0957

 Normal termination of Gaussian 09 at Wed Aug 26 23:59:44 2020.
