 Gaussian 09, Revision D.01,
 Gaussian 09:  ES64L-G09RevD.01 24-Apr-2013

 --------------------
 #p B2PLYPD3/Def2QZVP
 --------------------

 --------
 methanol
 --------
 Symbolic Z-matrix:
 Charge =  0 Multiplicity = 1

                         Standard orientation:
 ---------------------------------------------------------------------
 Center     Atomic      Atomic             Coordinates (Angstroms)
 Number     Number       Type             X           Y           Z
 ---------------------------------------------------------------------
      1          6           0        0.680584    0.030703    0.004856
      2          8           0       -0.745564   -0.145329   -0.001318
      3          1           0        0.995366    0.514331    0.846319
      4          1           0        1.016494    0.557954   -0.829371
      5          1           0        1.076980   -0.956176   -0.030623
      6          1           0       -1.207827    0.862302   -0.004922
 ---------------------------------------------------------------------

 SCF Done:  E(RB2PLYPD3) =  -115.529668516     A.U. after   11 cycles
 E2(B2PLYPD3) =    -0.1497423279D+00 E(B2PLYPD3) =    -0.11567941084370D+03

 The electronic state is 1-A.
 Alpha  occ. eigenvalues --  -19.73368 -10.63890  -1.12996  -0.78973  -0.56806
 Alpha  occ. eigenvalues --   -0.52547  -0.48965  -0.40822  -0.35220
 Alpha virt. eigenvalues --    0.03775   0.07841   0.12456   0.12720   0.14926
 Alpha virt. eigenvalues --    0.17204   0.18093   0.28887   0.30220   0.33385
 Alpha virt. eigenvalues --    0.33610   0.39148   0.39646   0.42483   0.44375

 Mulliken charges:
               1
     1  C    0.086184
     2  O   -0.500338
     3  H    0.050854
     4  H    0.047205
     5  H    0.068196
     6  H    0.247899
 Sum of Mulliken charges =   0.00000

 Dipole moment (field-independent basis, Debye):
    X=              0.9363    Y=              1.6486    Z=              0.0066  Tot=              1.8960
 Quadrupole moment (field-independent basis, Debye-Ang):
   XX=            -12.8447   YY=            -11.9482   ZZ=            -13.8373
   XY=             -2.3840   XZ=              0.0014   YZ=              0.0209

 Normal termination of Gaussian 09 at Thu Aug 27 01:07:43 2020.
