 Gaussian 09, Revision D.01,
 Gaussian 09:  ES64L-G09RevD.01 24-Apr-2013

 --------------------
 #p B2PLYPD3/Def2QZVP
 --------------------

 --------
 methanol
 --------
 Symbolic Z-matrix:
 Charge =  0 Multiplicity = 1

                         Standard orientation:
 ---------------------------------------------------------------------
 Center     Atomic      Atomic             Coordinates (Angstroms)
 Number     Number       Type             X           Y           Z
 ---------------------------------------------------------------------
      1          6           0       -0.702504   -0.009869   -0.006647
      2          8           0        0.755123   -0.178244   -0.004322
      3          1           0       -1.089307    0.542039   -0.779395
      4          1           0       -1.040400    0.500593    0.820466
      5          1           0       -0.905234   -0.762179    0.017812
      6          1           0        1.208983    1.204719    0.015574
 ---------------------------------------------------------------------

 SCF Done:  E(RB2PLYPD3) =  -115.331289660     A.U. after   11 cycles
 E2(B2PLYPD3) =    -0.1579575033D+00 E(B2PLYPD3) =    -0.11548924716287D+03

 The electronic state is 1-A.
 Alpha  occ. eigenvalues --  -19.75497 -10.60947  -1.10426  -0.82207  -0.58683
 Alpha  occ. eigenvalues --   -0.51236  -0.47490  -0.40252  -0.35086
 Alpha virt. eigenvalues --   -0.02206   0.07337   0.12761   0.12976   0.14265
 Alpha virt. eigenvalues --    0.17062   0.18297   0.21983   0.29093   0.32570
 Alpha virt. eigenvalues --    0.33667   0.36746   0.41307   0.41531   0.44255

 Mulliken charges:
               1
     1  C   -0.075579
     2  O   -0.492665
     3  H    0.056823
     4  H    0.052091
     5  H    0.234670
     6  H    0.224659
 Sum of Mulliken charges =   0.00000

 Dipole moment (field-independent basis, Debye):
    X=             -1.2912    Y=              1.6948    Z=              0.0372  Tot=              2.1310
 Quadrupole moment (field-independent basis, Debye-Ang):
   XX=            -13.1510   YY=            -11.0029   ZZ=            -14.0052
   XY=              2.3111   XZ=              0.0532   YZ=             -0.0159

 Normal termination of Gaussian 09 at Wed Aug 26 20:42:47 2020.
