 Gaussian 09, Revision D.01,
 Gaussian 09:  ES64L-G09RevD.01 24-Apr-2013

 --------------------
 #p B2PLYPD3/Def2QZVP
 --------------------

 --------
 methanol
 --------
 Symbolic Z-matrix:
 Charge =  0 Multiplicity = 1

                         Standard orientation:
 ---------------------------------------------------------------------
 Center     Atomic      Atomic             Coordinates (Angstroms)
 Number     Number       Type             X           Y           Z
 ---------------------------------------------------------------------
      1          6           0       -0.662423   -0.020130    0.005759
      2          8           0        0.756225    0.103825   -0.017241
      3          1           0       -1.005702   -0.425120    0.972777
      4          1           0       -1.064044   -0.646912   -0.871319
      5          1           0       -1.098444    1.013011   -0.080452
      6          1           0        1.092929   -0.650802    0.082367
 ---------------------------------------------------------------------

 SCF Done:  E(RB2PLYPD3) =  -115.530913440     A.U. after   10 cycles
 E2(B2PLYPD3) =    -0.1455975862D+00 E(B2PLYPD3) =    -0.11567651102588D+03

 The electronic state is 1-A.
 Alpha  occ. eigenvalues --  -19.71497 -10.67039  -1.19464  -0.79305  -0.60164
 Alpha  occ. eigenvalues --   -0.51643  -0.49949  -0.41140  -0.35854
 Alpha virt. eigenvalues --    0.05349   0.08655   0.12024   0.12286   0.14582
 Alpha virt. eigenvalues --    0.17283   0.18102   0.28861   0.32934   0.33199
 Alpha virt. eigenvalues --    0.36948   0.38761   0.39440   0.40290   0.43332

 Mulliken charges:
               1
     1  C    0.061087
     2  O   -0.383615
     3  H    0.052998
     4  H    0.047721
     5  H    0.070921
     6  H    0.150889
 Sum of Mulliken charges =   0.00000

 Dipole moment (field-independent basis, Debye):
    X=             -0.9330    Y=             -1.3585    Z=              0.2310  Tot=              1.6642
 Quadrupole moment (field-independent basis, Debye-Ang):
   XX=            -13.1446   YY=            -12.4642   ZZ=            -13.6385
   XY=             -2.0981   XZ=              0.2518   YZ=             -0.1253

 Normal termination of Gaussian 09 at Wed Aug 26 23:58:24 2020.
