 Gaussian 09, Revision D.01,
 Gaussian 09:  ES64L-G09RevD.01 24-Apr-2013

 --------------------
 #p B2PLYPD3/Def2QZVP
 --------------------

 --------
 methanol
 --------
 Symbolic Z-matrix:
 Charge =  0 Multiplicity = 1

                         Standard orientation:
 ---------------------------------------------------------------------
 Center     Atomic      Atomic             Coordinates (Angstroms)
 Number     Number       Type             X           Y           Z
 ---------------------------------------------------------------------
      1          6           0        0.668334    0.014749   -0.016340
      2          8           0       -0.728015   -0.160235    0.014120
      3          1           0        1.016600    0.575153    0.845832
      4          1           0        0.926878    0.540563   -0.809604
      5          1           0        1.087596   -0.860725   -0.010392
      6          1           0       -1.216955    0.938396   -0.040751
 ---------------------------------------------------------------------

 SCF Done:  E(RB2PLYPD3) =  -115.495819342     A.U. after   11 cycles
 E2(B2PLYPD3) =    -0.1509208662D+00 E(B2PLYPD3) =    -0.11564674020801D+03

 The electronic state is 1-A.
 Alpha  occ. eigenvalues --  -19.73830 -10.62572  -1.13059  -0.79309  -0.56883
 Alpha  occ. eigenvalues --   -0.52070  -0.50388  -0.40577  -0.34562
 Alpha virt. eigenvalues --    0.02279   0.07826   0.12751   0.12861   0.14904
 Alpha virt. eigenvalues --    0.17585   0.17935   0.26443   0.29680   0.33066
 Alpha virt. eigenvalues --    0.34530   0.39059   0.41437   0.41662   0.44732

 Mulliken charges:
               1
     1  C    0.094491
     2  O   -0.496701
     3  H    0.036005
     4  H    0.041446
     5  H    0.070878
     6  H    0.253881
 Sum of Mulliken charges =   0.00000

 Dipole moment (field-independent basis, Debye):
    X=              0.8709    Y=              1.6507    Z=             -0.1743  Tot=              1.8745
 Quadrupole moment (field-independent basis, Debye-Ang):
   XX=            -12.8463   YY=            -11.7434   ZZ=            -13.9028
   XY=             -2.5945   XZ=              0.0667   YZ=             -0.1356

 Normal termination of Gaussian 09 at Wed Aug 26 12:30:50 2020.
