 Gaussian 09, Revision D.01,
 Gaussian 09:  ES64L-G09RevD.01 24-Apr-2013

 --------------------
 #p B2PLYPD3/Def2QZVP
 --------------------

 --------
 methanol
 --------
 Symbolic Z-matrix:
 Charge =  0 Multiplicity = 1

                         Standard orientation:
 ---------------------------------------------------------------------
 Center     Atomic      Atomic             Coordinates (Angstroms)
 Number     Number       Type             X           Y           Z
 ---------------------------------------------------------------------
      1          6           0        0.675089    0.030820    0.014211
      2          8           0       -0.758897   -0.144526   -0.023768
      3          1           0        1.013619    0.304065    0.913375
      4          1           0        1.082225    0.685705   -0.779067
      5          1           0        1.101267   -0.910691   -0.140126
      6          1           0       -1.176471    0.892212    0.110697
 ---------------------------------------------------------------------

 SCF Done:  E(RB2PLYPD3) =  -115.522217674     A.U. after   11 cycles
 E2(B2PLYPD3) =    -0.1505713465D+00 E(B2PLYPD3) =    -0.11567278902078D+03

 The electronic state is 1-A.
 Alpha  occ. eigenvalues --  -19.73968 -10.64190  -1.12805  -0.79109  -0.55983
 Alpha  occ. eigenvalues --   -0.52238  -0.49095  -0.40752  -0.35560
 Alpha virt. eigenvalues --    0.03548   0.07627   0.12394   0.12762   0.14711
 Alpha virt. eigenvalues --    0.17368   0.18637   0.28160   0.29746   0.33115
 Alpha virt. eigenvalues --    0.33797   0.38420   0.40012   0.41900   0.43884

 Mulliken charges:
               1
     1  C    0.079276
     2  O   -0.494466
     3  H    0.055857
     4  H    0.045518
     5  H    0.062144
     6  H    0.251671
 Sum of Mulliken charges =   0.00000

 Dipole moment (field-independent basis, Debye):
    X=              1.0025    Y=              1.5906    Z=              0.2922  Tot=              1.9027
 Quadrupole moment (field-independent basis, Debye-Ang):
   XX=            -12.9138   YY=            -12.0709   ZZ=            -13.7954
   XY=             -2.4122   XZ=             -0.2510   YZ=              0.1648

 Normal termination of Gaussian 09 at Wed Aug 26 15:58:37 2020.
