 Gaussian 09, Revision D.01,
 Gaussian 09:  ES64L-G09RevD.01 24-Apr-2013

 --------------------
 #p B2PLYPD3/Def2QZVP
 --------------------

 --------
 methanol
 --------
 Symbolic Z-matrix:
 Charge =  0 Multiplicity = 1

                         Standard orientation:
 ---------------------------------------------------------------------
 Center     Atomic      Atomic             Coordinates (Angstroms)
 Number     Number       Type             X           Y           Z
 ---------------------------------------------------------------------
      1          6           0        0.674618   -0.017752   -0.002923
      2          8           0       -0.756617    0.093823   -0.007434
      3          1           0        1.005563   -0.705931   -0.844932
      4          1           0        1.070628   -0.353798    1.018184
      5          1           0        1.034376    1.022494   -0.177598
      6          1           0       -1.105343   -0.606838    0.081358
 ---------------------------------------------------------------------

 SCF Done:  E(RB2PLYPD3) =  -115.508262584     A.U. after   10 cycles
 E2(B2PLYPD3) =    -0.1450574628D+00 E(B2PLYPD3) =    -0.11565332004648D+03

 The electronic state is 1-A.
 Alpha  occ. eigenvalues --  -19.70688 -10.67446  -1.20322  -0.79932  -0.60246
 Alpha  occ. eigenvalues --   -0.51516  -0.49847  -0.41196  -0.35888
 Alpha virt. eigenvalues --    0.05410   0.08832   0.11902   0.12207   0.14493
 Alpha virt. eigenvalues --    0.16892   0.18034   0.28857   0.32332   0.33192
 Alpha virt. eigenvalues --    0.37016   0.39144   0.39556   0.40155   0.42740

 Mulliken charges:
               1
     1  C    0.058466
     2  O   -0.347720
     3  H    0.052798
     4  H    0.052689
     5  H    0.078050
     6  H    0.105716
 Sum of Mulliken charges =   0.00000

 Dipole moment (field-independent basis, Debye):
    X=              0.9530    Y=             -1.2965    Z=              0.1483  Tot=              1.6159
 Quadrupole moment (field-independent basis, Debye-Ang):
   XX=            -13.1550   YY=            -12.4483   ZZ=            -13.5601
   XY=              2.0318   XZ=             -0.2167   YZ=             -0.0874

 Normal termination of Gaussian 09 at Thu Aug 27 00:08:46 2020.
