 Gaussian 09, Revision D.01,
 Gaussian 09:  ES64L-G09RevD.01 24-Apr-2013

 --------------------
 #p B2PLYPD3/Def2QZVP
 --------------------

 --------
 methanol
 --------
 Symbolic Z-matrix:
 Charge =  0 Multiplicity = 1

                         Standard orientation:
 ---------------------------------------------------------------------
 Center     Atomic      Atomic             Coordinates (Angstroms)
 Number     Number       Type             X           Y           Z
 ---------------------------------------------------------------------
      1          6           0       -0.671747   -0.001194   -0.037033
      2          8           0        0.749176   -0.020703    0.050483
      3          1           0       -0.951157   -0.612050   -0.962826
      4          1           0       -1.132549    1.193213    0.055272
      5          1           0       -1.050619   -0.615143    0.969989
      6          1           0        1.171403    0.206764   -0.244097
 ---------------------------------------------------------------------

 SCF Done:  E(RB2PLYPD3) =  -115.059990833     A.U. after   11 cycles
 E2(B2PLYPD3) =    -0.1440105352D+00 E(B2PLYPD3) =    -0.11520400136795D+03

 The electronic state is 1-A.
 Alpha  occ. eigenvalues --  -19.67927 -10.71350  -1.29229  -0.84922  -0.61500
 Alpha  occ. eigenvalues --   -0.51626  -0.49572  -0.38025  -0.36515
 Alpha virt. eigenvalues --    0.04794   0.09487   0.10896   0.11604   0.13646
 Alpha virt. eigenvalues --    0.16400   0.18043   0.28567   0.31327   0.31824
 Alpha virt. eigenvalues --    0.34001   0.34827   0.39018   0.41030   0.42331

 Mulliken charges:
               1
     1  C    0.048498
     2  O   -0.121300
     3  H    0.074508
     4  H    0.049490
     5  H    0.080473
     6  H   -0.131669
 Sum of Mulliken charges =   0.00000

 Dipole moment (field-independent basis, Debye):
    X=             -0.8057    Y=              0.4458    Z=             -0.7980  Tot=              1.2185
 Quadrupole moment (field-independent basis, Debye-Ang):
   XX=            -12.7214   YY=            -13.1152   ZZ=            -13.1295
   XY=              0.9594   XZ=             -1.3058   YZ=             -0.0731

 Normal termination of Gaussian 09 at Wed Aug 26 22:18:26 2020.
