 Gaussian 09, Revision D.01,
 Gaussian 09:  ES64L-G09RevD.01 24-Apr-2013

 --------------------
 #p B2PLYPD3/Def2QZVP
 --------------------

 --------
 methanol
 --------
 Symbolic Z-matrix:
 Charge =  0 Multiplicity = 1

                         Standard orientation:
 ---------------------------------------------------------------------
 Center     Atomic      Atomic             Coordinates (Angstroms)
 Number     Number       Type             X           Y           Z
 ---------------------------------------------------------------------
      1          6           0        0.666819    0.027948   -0.002051
      2          8           0       -0.741351   -0.157632   -0.006294
      3          1           0        1.012231    0.466970    0.820136
      4          1           0        0.926438    0.596642   -0.808919
      5          1           0        1.111095   -0.913870   -0.023428
      6          1           0       -1.119869    0.943628    0.074874
 ---------------------------------------------------------------------

 SCF Done:  E(RB2PLYPD3) =  -115.509555767     A.U. after   11 cycles
 E2(B2PLYPD3) =    -0.1506495725D+00 E(B2PLYPD3) =    -0.11566020533983D+03

 The electronic state is 1-A.
 Alpha  occ. eigenvalues --  -19.73881 -10.62854  -1.13220  -0.79294  -0.56527
 Alpha  occ. eigenvalues --   -0.53411  -0.49058  -0.40982  -0.35152
 Alpha virt. eigenvalues --    0.02871   0.07893   0.12559   0.12734   0.14840
 Alpha virt. eigenvalues --    0.17608   0.18097   0.27291   0.29638   0.33160
 Alpha virt. eigenvalues --    0.34309   0.39533   0.39998   0.43056   0.44294

 Mulliken charges:
               1
     1  C    0.097895
     2  O   -0.492260
     3  H    0.040638
     4  H    0.043226
     5  H    0.061636
     6  H    0.248865
 Sum of Mulliken charges =   0.00000

 Dipole moment (field-independent basis, Debye):
    X=              1.0496    Y=              1.7051    Z=              0.1546  Tot=              2.0082
 Quadrupole moment (field-independent basis, Debye-Ang):
   XX=            -13.2374   YY=            -11.6907   ZZ=            -13.8201
   XY=             -2.3389   XZ=             -0.0341   YZ=              0.0742

 Normal termination of Gaussian 09 at Wed Aug 26 13:52:01 2020.
