 Gaussian 09, Revision D.01,
 Gaussian 09:  ES64L-G09RevD.01 24-Apr-2013

 --------------------
 #p B2PLYPD3/Def2QZVP
 --------------------

 --------
 methanol
 --------
 Symbolic Z-matrix:
 Charge =  0 Multiplicity = 1

                         Standard orientation:
 ---------------------------------------------------------------------
 Center     Atomic      Atomic             Coordinates (Angstroms)
 Number     Number       Type             X           Y           Z
 ---------------------------------------------------------------------
      1          6           0        0.664678    0.043067   -0.022397
      2          8           0       -0.739885   -0.197025    0.006459
      3          1           0        1.055673    0.490146    0.784332
      4          1           0        0.811108    0.604901   -0.738093
      5          1           0        1.311997   -0.807922   -0.021983
      6          1           0       -1.247764    1.030680    0.058450
 ---------------------------------------------------------------------

 SCF Done:  E(RB2PLYPD3) =  -115.445556523     A.U. after   11 cycles
 E2(B2PLYPD3) =    -0.1539337629D+00 E(B2PLYPD3) =    -0.11559949028613D+03

 The electronic state is 1-A.
 Alpha  occ. eigenvalues --  -19.74870 -10.62046  -1.11839  -0.80195  -0.55550
 Alpha  occ. eigenvalues --   -0.52979  -0.48941  -0.39414  -0.35052
 Alpha virt. eigenvalues --   -0.00126   0.07308   0.12665   0.13085   0.14372
 Alpha virt. eigenvalues --    0.17823   0.19151   0.23329   0.29693   0.32286
 Alpha virt. eigenvalues --    0.33723   0.39226   0.40453   0.42310   0.43680

 Mulliken charges:
               1
     1  C    0.092958
     2  O   -0.493938
     3  H    0.037634
     4  H    0.057544
     5  H    0.056549
     6  H    0.249253
 Sum of Mulliken charges =   0.00000

 Dipole moment (field-independent basis, Debye):
    X=              0.9922    Y=              1.8513    Z=              0.0614  Tot=              2.1013
 Quadrupole moment (field-independent basis, Debye-Ang):
   XX=            -12.5804   YY=            -11.7690   ZZ=            -14.0238
   XY=             -2.6879   XZ=              0.1008   YZ=             -0.0710

 Normal termination of Gaussian 09 at Wed Aug 26 21:38:53 2020.
