 Gaussian 09, Revision D.01,
 Gaussian 09:  ES64L-G09RevD.01 24-Apr-2013

 --------------------
 #p B2PLYPD3/Def2QZVP
 --------------------

 --------
 methanol
 --------
 Symbolic Z-matrix:
 Charge =  0 Multiplicity = 1

                         Standard orientation:
 ---------------------------------------------------------------------
 Center     Atomic      Atomic             Coordinates (Angstroms)
 Number     Number       Type             X           Y           Z
 ---------------------------------------------------------------------
      1          6           0       -0.664932   -0.035770    0.002037
      2          8           0        0.762130   -0.041125   -0.042613
      3          1           0       -1.057034    1.174613   -0.317970
      4          1           0       -0.987984   -0.253796    1.111416
      5          1           0       -1.029043   -0.733344   -0.741179
      6          1           0        0.966616    0.356139    0.276418
 ---------------------------------------------------------------------

 SCF Done:  E(RB2PLYPD3) =  -115.023752419     A.U. after   11 cycles
 E2(B2PLYPD3) =    -0.1432241164D+00 E(B2PLYPD3) =    -0.11516697653490D+03

 The electronic state is 1-A.
 Alpha  occ. eigenvalues --  -19.68791 -10.69765  -1.32192  -0.83069  -0.62108
 Alpha  occ. eigenvalues --   -0.52632  -0.50386  -0.42383  -0.35911
 Alpha virt. eigenvalues --    0.05001   0.09591   0.10745   0.11966   0.14255
 Alpha virt. eigenvalues --    0.16887   0.17256   0.27575   0.30935   0.31892
 Alpha virt. eigenvalues --    0.34207   0.37471   0.39898   0.41048   0.43634

 Mulliken charges:
               1
     1  C    0.052178
     2  O   -0.106114
     3  H    0.022082
     4  H    0.055753
     5  H    0.103341
     6  H   -0.127241
 Sum of Mulliken charges =   0.00000

 Dipole moment (field-independent basis, Debye):
    X=             -1.1344    Y=              0.6358    Z=              0.6965  Tot=              1.4752
 Quadrupole moment (field-independent basis, Debye-Ang):
   XX=            -13.6817   YY=            -12.9192   ZZ=            -12.8347
   XY=              1.5076   XZ=              1.1044   YZ=              0.5949

 Normal termination of Gaussian 09 at Wed Aug 26 23:52:55 2020.
