 Gaussian 09, Revision D.01,
 Gaussian 09:  ES64L-G09RevD.01 24-Apr-2013

 --------------------
 #p B2PLYPD3/Def2QZVP
 --------------------

 --------
 methanol
 --------
 Symbolic Z-matrix:
 Charge =  0 Multiplicity = 1

                         Standard orientation:
 ---------------------------------------------------------------------
 Center     Atomic      Atomic             Coordinates (Angstroms)
 Number     Number       Type             X           Y           Z
 ---------------------------------------------------------------------
      1          6           0       -0.678223   -0.032623    0.033434
      2          8           0        0.765781    0.052842   -0.036061
      3          1           0       -0.921788   -0.373725    1.023094
      4          1           0       -1.144246   -0.766178   -0.861330
      5          1           0       -1.087283    1.226634   -0.181103
      6          1           0        1.096405   -0.313728    0.107229
 ---------------------------------------------------------------------

 SCF Done:  E(RB2PLYPD3) =  -114.831929340     A.U. after   12 cycles
 E2(B2PLYPD3) =    -0.1439461955D+00 E(B2PLYPD3) =    -0.11497587553545D+03

 The electronic state is 1-A.
 Alpha  occ. eigenvalues --  -19.68254 -10.71207  -1.32222  -0.84264  -0.62969
 Alpha  occ. eigenvalues --   -0.51638  -0.48386  -0.39846  -0.36742
 Alpha virt. eigenvalues --    0.04463   0.09613   0.10335   0.11526   0.14200
 Alpha virt. eigenvalues --    0.16555   0.17500   0.28202   0.30376   0.31427
 Alpha virt. eigenvalues --    0.32245   0.35126   0.40536   0.41175   0.42181

 Mulliken charges:
               1
     1  C    0.049355
     2  O   -0.066128
     3  H    0.078792
     4  H    0.059566
     5  H    0.069467
     6  H   -0.191052
 Sum of Mulliken charges =   0.00000

 Dipole moment (field-independent basis, Debye):
    X=             -1.0410    Y=             -1.0303    Z=              0.5427  Tot=              1.5620
 Quadrupole moment (field-independent basis, Debye-Ang):
   XX=            -13.0214   YY=            -12.7084   ZZ=            -13.2188
   XY=             -1.4071   XZ=              0.5808   YZ=             -0.2466

 Normal termination of Gaussian 09 at Wed Aug 26 19:12:34 2020.
