 Gaussian 09, Revision D.01,
 Gaussian 09:  ES64L-G09RevD.01 24-Apr-2013

 --------------------
 #p B2PLYPD3/Def2QZVP
 --------------------

 --------
 methanol
 --------
 Symbolic Z-matrix:
 Charge =  0 Multiplicity = 1

                         Standard orientation:
 ---------------------------------------------------------------------
 Center     Atomic      Atomic             Coordinates (Angstroms)
 Number     Number       Type             X           Y           Z
 ---------------------------------------------------------------------
      1          6           0        0.668959    0.021865    0.009771
      2          8           0       -0.742585   -0.152761   -0.015456
      3          1           0        0.994741    0.413257    0.889608
      4          1           0        1.056044    0.651587   -0.797435
      5          1           0        1.117016   -0.874562   -0.088019
      6          1           0       -1.240881    0.900612    0.060862
 ---------------------------------------------------------------------

 SCF Done:  E(RB2PLYPD3) =  -115.513694082     A.U. after   11 cycles
 E2(B2PLYPD3) =    -0.1506857505D+00 E(B2PLYPD3) =    -0.11566437983295D+03

 The electronic state is 1-A.
 Alpha  occ. eigenvalues --  -19.73959 -10.63616  -1.12857  -0.79065  -0.56023
 Alpha  occ. eigenvalues --   -0.51857  -0.50141  -0.40380  -0.35026
 Alpha virt. eigenvalues --    0.02888   0.07628   0.12652   0.12897   0.14834
 Alpha virt. eigenvalues --    0.17528   0.18358   0.27315   0.29575   0.33430
 Alpha virt. eigenvalues --    0.34003   0.38893   0.40727   0.41764   0.43657

 Mulliken charges:
               1
     1  C    0.085205
     2  O   -0.497952
     3  H    0.048664
     4  H    0.039167
     5  H    0.067747
     6  H    0.257169
 Sum of Mulliken charges =   0.00000

 Dipole moment (field-independent basis, Debye):
    X=              0.8540    Y=              1.6111    Z=              0.1826  Tot=              1.8326
 Quadrupole moment (field-independent basis, Debye-Ang):
   XX=            -12.6181   YY=            -12.0314   ZZ=            -13.9048
   XY=             -2.5963   XZ=             -0.1510   YZ=              0.1271

 Normal termination of Gaussian 09 at Wed Aug 26 14:20:46 2020.
