 Gaussian 09, Revision D.01,
 Gaussian 09:  ES64L-G09RevD.01 24-Apr-2013

 --------------------
 #p B2PLYPD3/Def2QZVP
 --------------------

 --------
 methanol
 --------
 Symbolic Z-matrix:
 Charge =  0 Multiplicity = 1

                         Standard orientation:
 ---------------------------------------------------------------------
 Center     Atomic      Atomic             Coordinates (Angstroms)
 Number     Number       Type             X           Y           Z
 ---------------------------------------------------------------------
      1          6           0       -0.687601    0.030844   -0.001275
      2          8           0        0.739846   -0.158063   -0.004963
      3          1           0       -1.046709    0.522158   -0.812428
      4          1           0       -0.906721    0.581473    0.825499
      5          1           0       -1.103803   -0.915229    0.051140
      6          1           0        1.264073    0.891040   -0.016862
 ---------------------------------------------------------------------

 SCF Done:  E(RB2PLYPD3) =  -115.510791016     A.U. after   11 cycles
 E2(B2PLYPD3) =    -0.1507673039D+00 E(B2PLYPD3) =    -0.11566155832027D+03

 The electronic state is 1-A.
 Alpha  occ. eigenvalues --  -19.73516 -10.63173  -1.12054  -0.79247  -0.56141
 Alpha  occ. eigenvalues --   -0.52742  -0.49192  -0.40407  -0.34912
 Alpha virt. eigenvalues --    0.02933   0.07719   0.12570   0.12842   0.14803
 Alpha virt. eigenvalues --    0.17310   0.17965   0.27513   0.29608   0.32819
 Alpha virt. eigenvalues --    0.33870   0.39436   0.39940   0.42685   0.44322

 Mulliken charges:
               1
     1  C    0.093988
     2  O   -0.510852
     3  H    0.047775
     4  H    0.047412
     5  H    0.070169
     6  H    0.251507
 Sum of Mulliken charges =   0.00000

 Dipole moment (field-independent basis, Debye):
    X=             -0.9178    Y=              1.6761    Z=             -0.0094  Tot=              1.9109
 Quadrupole moment (field-independent basis, Debye-Ang):
   XX=            -12.6155   YY=            -11.8891   ZZ=            -13.8790
   XY=              2.5505   XZ=              0.0820   YZ=             -0.0296

 Normal termination of Gaussian 09 at Wed Aug 26 12:24:16 2020.
