 Gaussian 09, Revision D.01,
 Gaussian 09:  ES64L-G09RevD.01 24-Apr-2013

 --------------------
 #p B2PLYPD3/Def2QZVP
 --------------------

 --------
 methanol
 --------
 Symbolic Z-matrix:
 Charge =  0 Multiplicity = 1

                         Standard orientation:
 ---------------------------------------------------------------------
 Center     Atomic      Atomic             Coordinates (Angstroms)
 Number     Number       Type             X           Y           Z
 ---------------------------------------------------------------------
      1          6           0       -0.663446   -0.019477   -0.003557
      2          8           0        0.753006    0.129656   -0.001447
      3          1           0       -1.018003   -0.537468    0.890205
      4          1           0       -1.069308   -0.502662   -0.881847
      5          1           0       -1.070855    0.950162    0.031822
      6          1           0        1.114797   -0.830419   -0.007267
 ---------------------------------------------------------------------

 SCF Done:  E(RB2PLYPD3) =  -115.546437849     A.U. after   10 cycles
 E2(B2PLYPD3) =    -0.1485518017D+00 E(B2PLYPD3) =    -0.11569498965051D+03

 The electronic state is 1-A.
 Alpha  occ. eigenvalues --  -19.73299 -10.65004  -1.15002  -0.78575  -0.57708
 Alpha  occ. eigenvalues --   -0.51771  -0.49752  -0.41288  -0.35411
 Alpha virt. eigenvalues --    0.04498   0.08008   0.12378   0.12597   0.14818
 Alpha virt. eigenvalues --    0.17386   0.18350   0.28992   0.32237   0.33404
 Alpha virt. eigenvalues --    0.34145   0.38641   0.40316   0.41113   0.43927

 Mulliken charges:
               1
     1  C    0.069711
     2  O   -0.471304
     3  H    0.045258
     4  H    0.048384
     5  H    0.067926
     6  H    0.240024
 Sum of Mulliken charges =   0.00000

 Dipole moment (field-independent basis, Debye):
    X=             -0.9530    Y=             -1.5429    Z=             -0.0126  Tot=              1.8135
 Quadrupole moment (field-independent basis, Debye-Ang):
   XX=            -13.1550   YY=            -12.0995   ZZ=            -13.8065
   XY=             -2.2835   XZ=              0.0339   YZ=              0.0310

 Normal termination of Gaussian 09 at Thu Aug 27 00:05:13 2020.
