 Gaussian 09, Revision D.01,
 Gaussian 09:  ES64L-G09RevD.01 24-Apr-2013

 --------------------
 #p B2PLYPD3/Def2QZVP
 --------------------

 --------
 methanol
 --------
 Symbolic Z-matrix:
 Charge =  0 Multiplicity = 1

                         Standard orientation:
 ---------------------------------------------------------------------
 Center     Atomic      Atomic             Coordinates (Angstroms)
 Number     Number       Type             X           Y           Z
 ---------------------------------------------------------------------
      1          6           0        0.632774    0.025509   -0.038622
      2          8           0       -0.724995   -0.170039    0.023261
      3          1           0        1.156947    0.538719    0.831342
      4          1           0        0.896711    0.558003   -0.747254
      5          1           0        1.158229   -0.875914   -0.023940
      6          1           0       -1.208568    0.986450   -0.014502
 ---------------------------------------------------------------------

 SCF Done:  E(RB2PLYPD3) =  -115.471586067     A.U. after   11 cycles
 E2(B2PLYPD3) =    -0.1521299612D+00 E(B2PLYPD3) =    -0.11562371602790D+03

 The electronic state is 1-A.
 Alpha  occ. eigenvalues --  -19.74951 -10.63002  -1.14408  -0.79089  -0.57350
 Alpha  occ. eigenvalues --   -0.52136  -0.49922  -0.40188  -0.34391
 Alpha virt. eigenvalues --    0.01108   0.07437   0.12655   0.13059   0.15120
 Alpha virt. eigenvalues --    0.17829   0.18606   0.24575   0.29625   0.32410
 Alpha virt. eigenvalues --    0.35767   0.38463   0.39964   0.41440   0.44692

 Mulliken charges:
               1
     1  C    0.082075
     2  O   -0.471084
     3  H    0.019441
     4  H    0.050339
     5  H    0.061468
     6  H    0.257761
 Sum of Mulliken charges =   0.00000

 Dipole moment (field-independent basis, Debye):
    X=              0.7168    Y=              1.7096    Z=             -0.2484  Tot=              1.8704
 Quadrupole moment (field-independent basis, Debye-Ang):
   XX=            -12.8076   YY=            -11.7956   ZZ=            -14.1910
   XY=             -2.5938   XZ=              0.0157   YZ=             -0.2617

 Normal termination of Gaussian 09 at Wed Aug 26 20:19:01 2020.
