 Gaussian 09, Revision D.01,
 Gaussian 09:  ES64L-G09RevD.01 24-Apr-2013

 --------------------
 #p B2PLYPD3/Def2QZVP
 --------------------

 --------
 methanol
 --------
 Symbolic Z-matrix:
 Charge =  0 Multiplicity = 1

                         Standard orientation:
 ---------------------------------------------------------------------
 Center     Atomic      Atomic             Coordinates (Angstroms)
 Number     Number       Type             X           Y           Z
 ---------------------------------------------------------------------
      1          6           0        0.665194   -0.023569    0.001224
      2          8           0       -0.743590    0.107446   -0.003566
      3          1           0        1.015190   -0.571034   -0.904191
      4          1           0        0.964383   -0.548918    0.928589
      5          1           0        1.113533    1.022004   -0.003262
      6          1           0       -1.135546   -0.620209    0.000052
 ---------------------------------------------------------------------

 SCF Done:  E(RB2PLYPD3) =  -115.529415269     A.U. after   10 cycles
 E2(B2PLYPD3) =    -0.1451131045D+00 E(B2PLYPD3) =    -0.11567452837317D+03

 The electronic state is 1-A.
 Alpha  occ. eigenvalues --  -19.70972 -10.66812  -1.19446  -0.79711  -0.60342
 Alpha  occ. eigenvalues --   -0.52106  -0.50089  -0.40611  -0.35604
 Alpha virt. eigenvalues --    0.05387   0.08794   0.12157   0.12248   0.14594
 Alpha virt. eigenvalues --    0.17209   0.17795   0.29024   0.32981   0.33373
 Alpha virt. eigenvalues --    0.37286   0.38850   0.39915   0.40406   0.43382

 Mulliken charges:
               1
     1  C    0.066725
     2  O   -0.385041
     3  H    0.049553
     4  H    0.050558
     5  H    0.072684
     6  H    0.145520
 Sum of Mulliken charges =   0.00000

 Dipole moment (field-independent basis, Debye):
    X=              0.8445    Y=             -1.3786    Z=              0.0151  Tot=              1.6168
 Quadrupole moment (field-independent basis, Debye-Ang):
   XX=            -12.9874   YY=            -12.4611   ZZ=            -13.6309
   XY=              2.1642   XZ=             -0.0511   YZ=             -0.0027

 Normal termination of Gaussian 09 at Thu Aug 27 00:05:11 2020.
