 Gaussian 09, Revision D.01,
 Gaussian 09:  ES64L-G09RevD.01 24-Apr-2013

 --------------------
 #p B2PLYPD3/Def2QZVP
 --------------------

 --------
 methanol
 --------
 Symbolic Z-matrix:
 Charge =  0 Multiplicity = 1

                         Standard orientation:
 ---------------------------------------------------------------------
 Center     Atomic      Atomic             Coordinates (Angstroms)
 Number     Number       Type             X           Y           Z
 ---------------------------------------------------------------------
      1          6           0       -0.677846   -0.021822   -0.024025
      2          8           0        0.749284    0.129988    0.011922
      3          1           0       -1.019729   -0.590251    0.872543
      4          1           0       -0.962983   -0.536706   -0.823659
      5          1           0       -1.094432    0.996864    0.032286
      6          1           0        1.149954   -0.778876   -0.032392
 ---------------------------------------------------------------------

 SCF Done:  E(RB2PLYPD3) =  -115.543113034     A.U. after   10 cycles
 E2(B2PLYPD3) =    -0.1478635654D+00 E(B2PLYPD3) =    -0.11569097659959D+03

 The electronic state is 1-A.
 Alpha  occ. eigenvalues --  -19.72561 -10.64986  -1.14889  -0.79032  -0.58545
 Alpha  occ. eigenvalues --   -0.52000  -0.49197  -0.41390  -0.35169
 Alpha virt. eigenvalues --    0.04732   0.08184   0.12201   0.12541   0.14942
 Alpha virt. eigenvalues --    0.17268   0.17810   0.29293   0.32826   0.33127
 Alpha virt. eigenvalues --    0.34257   0.38580   0.39369   0.41507   0.44955

 Mulliken charges:
               1
     1  C    0.083056
     2  O   -0.479197
     3  H    0.040473
     4  H    0.053434
     5  H    0.071786
     6  H    0.230449
 Sum of Mulliken charges =   0.00000

 Dipole moment (field-independent basis, Debye):
    X=             -0.9456    Y=             -1.5764    Z=             -0.1667  Tot=              1.8458
 Quadrupole moment (field-independent basis, Debye-Ang):
   XX=            -13.0593   YY=            -12.0156   ZZ=            -13.8350
   XY=             -2.2739   XZ=             -0.0351   YZ=              0.1773

 Normal termination of Gaussian 09 at Wed Aug 26 11:13:46 2020.
