 Gaussian 09, Revision D.01,
 Gaussian 09:  ES64L-G09RevD.01 24-Apr-2013

 --------------------
 #p B2PLYPD3/Def2QZVP
 --------------------

 --------
 methanol
 --------
 Symbolic Z-matrix:
 Charge =  0 Multiplicity = 1

                         Standard orientation:
 ---------------------------------------------------------------------
 Center     Atomic      Atomic             Coordinates (Angstroms)
 Number     Number       Type             X           Y           Z
 ---------------------------------------------------------------------
      1          6           0        0.654307   -0.011242   -0.007109
      2          8           0       -0.748876    0.094650    0.000357
      3          1           0        1.051788   -0.597093   -0.908451
      4          1           0        1.044185   -0.500646    0.991746
      5          1           0        1.073585    1.015875   -0.045021
      6          1           0       -1.104391   -0.607882    0.001528
 ---------------------------------------------------------------------

 SCF Done:  E(RB2PLYPD3) =  -115.506610228     A.U. after   10 cycles
 E2(B2PLYPD3) =    -0.1448847935D+00 E(B2PLYPD3) =    -0.11565149502141D+03

 The electronic state is 1-A.
 Alpha  occ. eigenvalues --  -19.71072 -10.67648  -1.21300  -0.79994  -0.60872
 Alpha  occ. eigenvalues --   -0.51190  -0.50737  -0.40960  -0.35630
 Alpha virt. eigenvalues --    0.05383   0.08816   0.11896   0.12311   0.14612
 Alpha virt. eigenvalues --    0.17131   0.18043   0.28760   0.32849   0.33648
 Alpha virt. eigenvalues --    0.36551   0.39034   0.39608   0.39930   0.42798

 Mulliken charges:
               1
     1  C    0.054677
     2  O   -0.331715
     3  H    0.047400
     4  H    0.041702
     5  H    0.078207
     6  H    0.109730
 Sum of Mulliken charges =   0.00000

 Dipole moment (field-independent basis, Debye):
    X=              0.8214    Y=             -1.2657    Z=             -0.0410  Tot=              1.5095
 Quadrupole moment (field-independent basis, Debye-Ang):
   XX=            -13.0810   YY=            -12.5355   ZZ=            -13.6905
   XY=              2.1053   XZ=             -0.0746   YZ=              0.0401

 Normal termination of Gaussian 09 at Wed Aug 26 23:59:55 2020.
