 Gaussian 09, Revision D.01,
 Gaussian 09:  ES64L-G09RevD.01 24-Apr-2013

 --------------------
 #p B2PLYPD3/Def2QZVP
 --------------------

 --------
 methanol
 --------
 Symbolic Z-matrix:
 Charge =  0 Multiplicity = 1

                         Standard orientation:
 ---------------------------------------------------------------------
 Center     Atomic      Atomic             Coordinates (Angstroms)
 Number     Number       Type             X           Y           Z
 ---------------------------------------------------------------------
      1          6           0        0.678472    0.021345   -0.011003
      2          8           0       -0.751551   -0.155574    0.008832
      3          1           0        1.074558    0.544512    0.832976
      4          1           0        1.029523    0.544650   -0.790364
      5          1           0        1.087498   -0.912901   -0.018204
      6          1           0       -1.250006    0.940262   -0.029046
 ---------------------------------------------------------------------

 SCF Done:  E(RB2PLYPD3) =  -115.503728694     A.U. after   11 cycles
 E2(B2PLYPD3) =    -0.1517632075D+00 E(B2PLYPD3) =    -0.11565549190120D+03

 The electronic state is 1-A.
 Alpha  occ. eigenvalues --  -19.74295 -10.63474  -1.11958  -0.79334  -0.56142
 Alpha  occ. eigenvalues --   -0.51273  -0.49251  -0.40858  -0.35054
 Alpha virt. eigenvalues --    0.02377   0.07512   0.12564   0.12935   0.14974
 Alpha virt. eigenvalues --    0.17357   0.18243   0.26386   0.29544   0.33458
 Alpha virt. eigenvalues --    0.33661   0.39003   0.39653   0.41548   0.44390

 Mulliken charges:
               1
     1  C    0.090600
     2  O   -0.502019
     3  H    0.042509
     4  H    0.046173
     5  H    0.069030
     6  H    0.253708
 Sum of Mulliken charges =   0.00000

 Dipole moment (field-independent basis, Debye):
    X=              0.9350    Y=              1.6797    Z=             -0.1172  Tot=              1.9260
 Quadrupole moment (field-independent basis, Debye-Ang):
   XX=            -12.6275   YY=            -11.8030   ZZ=            -14.0632
   XY=             -2.4912   XZ=              0.0346   YZ=             -0.0899

 Normal termination of Gaussian 09 at Wed Aug 26 15:37:39 2020.
