 Gaussian 09, Revision D.01,
 Gaussian 09:  ES64L-G09RevD.01 24-Apr-2013

 --------------------
 #p B2PLYPD3/Def2QZVP
 --------------------

 --------
 methanol
 --------
 Symbolic Z-matrix:
 Charge =  0 Multiplicity = 1

                         Standard orientation:
 ---------------------------------------------------------------------
 Center     Atomic      Atomic             Coordinates (Angstroms)
 Number     Number       Type             X           Y           Z
 ---------------------------------------------------------------------
      1          6           0        0.664587    0.025829   -0.005038
      2          8           0       -0.747221   -0.157744    0.003929
      3          1           0        0.993364    0.538781    0.875961
      4          1           0        1.027667    0.503045   -0.851761
      5          1           0        1.156793   -0.861957    0.007927
      6          1           0       -1.187575    0.927113   -0.033335
 ---------------------------------------------------------------------

 SCF Done:  E(RB2PLYPD3) =  -115.514260934     A.U. after   11 cycles
 E2(B2PLYPD3) =    -0.1509107948D+00 E(B2PLYPD3) =    -0.11566517172874D+03

 The electronic state is 1-A.
 Alpha  occ. eigenvalues --  -19.74142 -10.63690  -1.12956  -0.78980  -0.55581
 Alpha  occ. eigenvalues --   -0.52282  -0.50068  -0.40354  -0.35185
 Alpha virt. eigenvalues --    0.02804   0.07625   0.12524   0.12942   0.14590
 Alpha virt. eigenvalues --    0.17898   0.18422   0.27074   0.29500   0.33294
 Alpha virt. eigenvalues --    0.33902   0.39298   0.40972   0.41888   0.43096

 Mulliken charges:
               1
     1  C    0.083737
     2  O   -0.493277
     3  H    0.044358
     4  H    0.045674
     5  H    0.062668
     6  H    0.256840
 Sum of Mulliken charges =   0.00000

 Dipole moment (field-independent basis, Debye):
    X=              0.9387    Y=              1.6389    Z=             -0.0858  Tot=              1.8906
 Quadrupole moment (field-independent basis, Debye-Ang):
   XX=            -12.8515   YY=            -12.0264   ZZ=            -13.8449
   XY=             -2.5765   XZ=              0.0080   YZ=             -0.0644

 Normal termination of Gaussian 09 at Wed Aug 26 11:00:08 2020.
