 Gaussian 09, Revision D.01,
 Gaussian 09:  ES64L-G09RevD.01 24-Apr-2013

 --------------------
 #p B2PLYPD3/Def2QZVP
 --------------------

 --------
 methanol
 --------
 Symbolic Z-matrix:
 Charge =  0 Multiplicity = 1

                         Standard orientation:
 ---------------------------------------------------------------------
 Center     Atomic      Atomic             Coordinates (Angstroms)
 Number     Number       Type             X           Y           Z
 ---------------------------------------------------------------------
      1          6           0        0.677435    0.029492   -0.004327
      2          8           0       -0.737020   -0.146368   -0.001797
      3          1           0        1.078071    0.389793    0.898144
      4          1           0        0.918526    0.687507   -0.785748
      5          1           0        1.078865   -0.920551   -0.141716
      6          1           0       -1.243912    0.837237    0.069660
 ---------------------------------------------------------------------

 SCF Done:  E(RB2PLYPD3) =  -115.530210431     A.U. after   11 cycles
 E2(B2PLYPD3) =    -0.1495503910D+00 E(B2PLYPD3) =    -0.11567976082219D+03

 The electronic state is 1-A.
 Alpha  occ. eigenvalues --  -19.73229 -10.63983  -1.13247  -0.78759  -0.56779
 Alpha  occ. eigenvalues --   -0.52492  -0.49544  -0.40404  -0.34950
 Alpha virt. eigenvalues --    0.03739   0.07826   0.12550   0.12754   0.14863
 Alpha virt. eigenvalues --    0.17134   0.18181   0.28956   0.30101   0.32962
 Alpha virt. eigenvalues --    0.34022   0.39369   0.39895   0.42326   0.43981

 Mulliken charges:
               1
     1  C    0.082309
     2  O   -0.499173
     3  H    0.048921
     4  H    0.046105
     5  H    0.071039
     6  H    0.250800
 Sum of Mulliken charges =   0.00000

 Dipole moment (field-independent basis, Debye):
    X=              0.8304    Y=              1.5993    Z=              0.1053  Tot=              1.8051
 Quadrupole moment (field-independent basis, Debye-Ang):
   XX=            -12.6640   YY=            -12.0663   ZZ=            -13.8488
   XY=             -2.5170   XZ=             -0.0551   YZ=              0.0586

 Normal termination of Gaussian 09 at Wed Aug 26 12:15:13 2020.
