 Gaussian 09, Revision D.01,
 Gaussian 09:  ES64L-G09RevD.01 24-Apr-2013

 --------------------
 #p B2PLYPD3/Def2QZVP
 --------------------

 --------
 methanol
 --------
 Symbolic Z-matrix:
 Charge =  0 Multiplicity = 1

                         Standard orientation:
 ---------------------------------------------------------------------
 Center     Atomic      Atomic             Coordinates (Angstroms)
 Number     Number       Type             X           Y           Z
 ---------------------------------------------------------------------
      1          6           0       -0.656174    0.004315    0.002549
      2          8           0        0.745262   -0.161024   -0.011285
      3          1           0       -1.171650    0.615463   -0.739198
      4          1           0       -1.071340    0.475504    0.800439
      5          1           0       -1.012417   -0.890307   -0.023124
      6          1           0        1.230355    1.061644    0.036873
 ---------------------------------------------------------------------

 SCF Done:  E(RB2PLYPD3) =  -115.463570346     A.U. after   11 cycles
 E2(B2PLYPD3) =    -0.1542373550D+00 E(B2PLYPD3) =    -0.11561780770151D+03

 The electronic state is 1-A.
 Alpha  occ. eigenvalues --  -19.75429 -10.62947  -1.12606  -0.79524  -0.56653
 Alpha  occ. eigenvalues --   -0.50024  -0.49739  -0.40784  -0.34628
 Alpha virt. eigenvalues --    0.00172   0.07327   0.12455   0.13257   0.15248
 Alpha virt. eigenvalues --    0.17286   0.18418   0.23515   0.29716   0.33601
 Alpha virt. eigenvalues --    0.34661   0.37726   0.39222   0.40965   0.44415

 Mulliken charges:
               1
     1  C    0.083757
     2  O   -0.476622
     3  H    0.031726
     4  H    0.039425
     5  H    0.071560
     6  H    0.250154
 Sum of Mulliken charges =   0.00000

 Dipole moment (field-independent basis, Debye):
    X=             -0.8990    Y=              1.6952    Z=              0.1551  Tot=              1.9251
 Quadrupole moment (field-independent basis, Debye-Ang):
   XX=            -12.7783   YY=            -11.4462   ZZ=            -14.3876
   XY=              2.4047   XZ=              0.0280   YZ=              0.1048

 Normal termination of Gaussian 09 at Wed Aug 26 19:05:48 2020.
