 Gaussian 09, Revision D.01,
 Gaussian 09:  ES64L-G09RevD.01 24-Apr-2013

 --------------------
 #p B2PLYPD3/Def2QZVP
 --------------------

 --------
 methanol
 --------
 Symbolic Z-matrix:
 Charge =  0 Multiplicity = 1

                         Standard orientation:
 ---------------------------------------------------------------------
 Center     Atomic      Atomic             Coordinates (Angstroms)
 Number     Number       Type             X           Y           Z
 ---------------------------------------------------------------------
      1          6           0       -0.655117   -0.018387    0.000769
      2          8           0        0.775659    0.076913   -0.013554
      3          1           0       -1.050502   -0.557121    0.982611
      4          1           0       -1.223014   -0.486455   -0.974996
      5          1           0       -1.065642    1.081161    0.082381
      6          1           0        1.064585   -0.542568    0.013825
 ---------------------------------------------------------------------

 SCF Done:  E(RB2PLYPD3) =  -115.387587317     A.U. after   11 cycles
 E2(B2PLYPD3) =    -0.1449185802D+00 E(B2PLYPD3) =    -0.11553250589763D+03

 The electronic state is 1-A.
 Alpha  occ. eigenvalues --  -19.70583 -10.69634  -1.25385  -0.80419  -0.61646
 Alpha  occ. eigenvalues --   -0.50553  -0.49848  -0.40970  -0.36486
 Alpha virt. eigenvalues --    0.05208   0.08619   0.11577   0.11769   0.14494
 Alpha virt. eigenvalues --    0.16992   0.18397   0.28247   0.31475   0.33139
 Alpha virt. eigenvalues --    0.34786   0.37094   0.38109   0.40348   0.42741

 Mulliken charges:
               1
     1  C    0.036573
     2  O   -0.227477
     3  H    0.051438
     4  H    0.052447
     5  H    0.073660
     6  H    0.013359
 Sum of Mulliken charges =   0.00000

 Dipole moment (field-independent basis, Debye):
    X=             -0.9690    Y=             -1.1759    Z=              0.1053  Tot=              1.5274
 Quadrupole moment (field-independent basis, Debye-Ang):
   XX=            -13.0906   YY=            -12.7532   ZZ=            -13.6621
   XY=             -1.8718   XZ=              0.1535   YZ=             -0.0227

 Normal termination of Gaussian 09 at Wed Aug 26 22:38:36 2020.
