 Gaussian 09, Revision D.01,
 Gaussian 09:  ES64L-G09RevD.01 24-Apr-2013

 --------------------
 #p B2PLYPD3/Def2QZVP
 --------------------

 --------
 methanol
 --------
 Symbolic Z-matrix:
 Charge =  0 Multiplicity = 1

                         Standard orientation:
 ---------------------------------------------------------------------
 Center     Atomic      Atomic             Coordinates (Angstroms)
 Number     Number       Type             X           Y           Z
 ---------------------------------------------------------------------
      1          6           0        0.660420   -0.012363    0.000524
      2          8           0       -0.748956    0.105978   -0.002287
      3          1           0        1.041683   -0.568558   -0.894223
      4          1           0        1.007463   -0.549326    0.913666
      5          1           0        1.067187    1.022985   -0.004379
      6          1           0       -1.087204   -0.678747    0.000088
 ---------------------------------------------------------------------

 SCF Done:  E(RB2PLYPD3) =  -115.540034450     A.U. after   10 cycles
 E2(B2PLYPD3) =    -0.1456615213D+00 E(B2PLYPD3) =    -0.11568569597103D+03

 The electronic state is 1-A.
 Alpha  occ. eigenvalues --  -19.71616 -10.66576  -1.19046  -0.79185  -0.60224
 Alpha  occ. eigenvalues --   -0.51558  -0.50118  -0.41487  -0.35520
 Alpha virt. eigenvalues --    0.05283   0.08701   0.12191   0.12227   0.14863
 Alpha virt. eigenvalues --    0.17207   0.17841   0.29038   0.33080   0.33475
 Alpha virt. eigenvalues --    0.37483   0.38708   0.39933   0.40077   0.43179

 Mulliken charges:
               1
     1  C    0.065518
     2  O   -0.399379
     3  H    0.045531
     4  H    0.046356
     5  H    0.073585
     6  H    0.168389
 Sum of Mulliken charges =   0.00000

 Dipole moment (field-independent basis, Debye):
    X=              0.9010    Y=             -1.4072    Z=              0.0105  Tot=              1.6709
 Quadrupole moment (field-independent basis, Debye-Ang):
   XX=            -13.2250   YY=            -12.2546   ZZ=            -13.7543
   XY=              2.0940   XZ=             -0.0307   YZ=             -0.0031

 Normal termination of Gaussian 09 at Thu Aug 27 00:07:33 2020.
