 Gaussian 09, Revision D.01,
 Gaussian 09:  ES64L-G09RevD.01 24-Apr-2013

 --------------------
 #p B2PLYPD3/Def2QZVP
 --------------------

 --------
 methanol
 --------
 Symbolic Z-matrix:
 Charge =  0 Multiplicity = 1

                         Standard orientation:
 ---------------------------------------------------------------------
 Center     Atomic      Atomic             Coordinates (Angstroms)
 Number     Number       Type             X           Y           Z
 ---------------------------------------------------------------------
      1          6           0       -0.660441   -0.023947    0.010119
      2          8           0        0.746154    0.127521   -0.011198
      3          1           0       -1.044038   -0.421994    0.903520
      4          1           0       -1.050029   -0.636841   -0.837427
      5          1           0       -1.076129    0.972239   -0.095653
      6          1           0        1.163612   -0.789885    0.058429
 ---------------------------------------------------------------------

 SCF Done:  E(RB2PLYPD3) =  -115.548175685     A.U. after   10 cycles
 E2(B2PLYPD3) =    -0.1480982880D+00 E(B2PLYPD3) =    -0.11569627397281D+03

 The electronic state is 1-A.
 Alpha  occ. eigenvalues --  -19.73110 -10.65237  -1.15391  -0.78530  -0.58302
 Alpha  occ. eigenvalues --   -0.51723  -0.49707  -0.40854  -0.35364
 Alpha virt. eigenvalues --    0.04638   0.08003   0.12419   0.12550   0.14983
 Alpha virt. eigenvalues --    0.17250   0.18326   0.29066   0.32960   0.33535
 Alpha virt. eigenvalues --    0.34294   0.38523   0.39578   0.41357   0.44124

 Mulliken charges:
               1
     1  C    0.069038
     2  O   -0.468193
     3  H    0.052267
     4  H    0.041902
     5  H    0.066881
     6  H    0.238104
 Sum of Mulliken charges =   0.00000

 Dipole moment (field-independent basis, Debye):
    X=             -0.8298    Y=             -1.5339    Z=              0.1737  Tot=              1.7526
 Quadrupole moment (field-independent basis, Debye-Ang):
   XX=            -12.9170   YY=            -12.2188   ZZ=            -13.8443
   XY=             -2.2976   XZ=              0.1018   YZ=             -0.1246

 Normal termination of Gaussian 09 at Wed Aug 26 11:30:31 2020.
