 Gaussian 09, Revision D.01,
 Gaussian 09:  ES64L-G09RevD.01 24-Apr-2013

 --------------------
 #p B2PLYPD3/Def2QZVP
 --------------------

 --------
 methanol
 --------
 Symbolic Z-matrix:
 Charge =  0 Multiplicity = 1

                         Standard orientation:
 ---------------------------------------------------------------------
 Center     Atomic      Atomic             Coordinates (Angstroms)
 Number     Number       Type             X           Y           Z
 ---------------------------------------------------------------------
      1          6           0        0.661742    0.008698    0.006138
      2          8           0       -0.750649   -0.136762   -0.009539
      3          1           0        1.026455    0.429031    0.907107
      4          1           0        0.972037    0.667192   -0.834958
      5          1           0        1.134990   -0.897337   -0.106117
      6          1           0       -1.098744    0.843022    0.073451
 ---------------------------------------------------------------------

 SCF Done:  E(RB2PLYPD3) =  -115.541286943     A.U. after   11 cycles
 E2(B2PLYPD3) =    -0.1486292145D+00 E(B2PLYPD3) =    -0.11568991615753D+03

 The electronic state is 1-A.
 Alpha  occ. eigenvalues --  -19.73318 -10.64698  -1.14868  -0.78733  -0.57447
 Alpha  occ. eigenvalues --   -0.51769  -0.50531  -0.41283  -0.35097
 Alpha virt. eigenvalues --    0.04259   0.08034   0.12343   0.12753   0.14670
 Alpha virt. eigenvalues --    0.17865   0.18058   0.29168   0.31485   0.33004
 Alpha virt. eigenvalues --    0.33883   0.39032   0.40854   0.41411   0.43745

 Mulliken charges:
               1
     1  C    0.078590
     2  O   -0.474774
     3  H    0.044615
     4  H    0.036224
     5  H    0.070338
     6  H    0.245006
 Sum of Mulliken charges =   0.00000

 Dipole moment (field-independent basis, Debye):
    X=              0.9797    Y=              1.5458    Z=              0.1740  Tot=              1.8384
 Quadrupole moment (field-independent basis, Debye-Ang):
   XX=            -13.2044   YY=            -12.0322   ZZ=            -13.8338
   XY=             -2.4004   XZ=             -0.0980   YZ=              0.1453

 Normal termination of Gaussian 09 at Wed Aug 26 16:21:03 2020.
