 Gaussian 09, Revision D.01,
 Gaussian 09:  ES64L-G09RevD.01 24-Apr-2013

 --------------------
 #p B2PLYPD3/Def2QZVP
 --------------------

 --------
 methanol
 --------
 Symbolic Z-matrix:
 Charge =  0 Multiplicity = 1

                         Standard orientation:
 ---------------------------------------------------------------------
 Center     Atomic      Atomic             Coordinates (Angstroms)
 Number     Number       Type             X           Y           Z
 ---------------------------------------------------------------------
      1          6           0       -0.670802   -0.008956    0.008377
      2          8           0        0.754508    0.105384   -0.013561
      3          1           0       -1.033789   -0.468160    0.948145
      4          1           0       -1.048206   -0.643336   -0.892128
      5          1           0       -1.081470    0.985670   -0.070767
      6          1           0        1.152213   -0.663509    0.072974
 ---------------------------------------------------------------------

 SCF Done:  E(RB2PLYPD3) =  -115.541670101     A.U. after   10 cycles
 E2(B2PLYPD3) =    -0.1460614512D+00 E(B2PLYPD3) =    -0.11568773155261D+03

 The electronic state is 1-A.
 Alpha  occ. eigenvalues --  -19.71666 -10.66800  -1.17823  -0.79358  -0.59565
 Alpha  occ. eigenvalues --   -0.50949  -0.50497  -0.41052  -0.35431
 Alpha virt. eigenvalues --    0.05300   0.08456   0.12078   0.12444   0.14674
 Alpha virt. eigenvalues --    0.17172   0.17998   0.29043   0.32768   0.33183
 Alpha virt. eigenvalues --    0.36676   0.38992   0.39621   0.40156   0.43205

 Mulliken charges:
               1
     1  C    0.066997
     2  O   -0.421537
     3  H    0.050754
     4  H    0.042387
     5  H    0.079850
     6  H    0.181550
 Sum of Mulliken charges =   0.00000

 Dipole moment (field-independent basis, Debye):
    X=             -0.8746    Y=             -1.3453    Z=              0.2140  Tot=              1.6188
 Quadrupole moment (field-independent basis, Debye-Ang):
   XX=            -12.9180   YY=            -12.4242   ZZ=            -13.7404
   XY=             -2.2386   XZ=              0.1720   YZ=             -0.1500

 Normal termination of Gaussian 09 at Wed Aug 26 10:07:49 2020.
