 Gaussian 09, Revision D.01,
 Gaussian 09:  ES64L-G09RevD.01 24-Apr-2013

 --------------------
 #p B2PLYPD3/Def2QZVP
 --------------------

 --------
 methanol
 --------
 Symbolic Z-matrix:
 Charge =  0 Multiplicity = 1

                         Standard orientation:
 ---------------------------------------------------------------------
 Center     Atomic      Atomic             Coordinates (Angstroms)
 Number     Number       Type             X           Y           Z
 ---------------------------------------------------------------------
      1          6           0       -0.665146   -0.017438    0.004610
      2          8           0        0.748424    0.095914   -0.007663
      3          1           0       -1.015449   -0.501132    0.935748
      4          1           0       -1.064963   -0.590954   -0.893441
      5          1           0       -1.017331    1.064380   -0.034239
      6          1           0        1.101227   -0.634978    0.025581
 ---------------------------------------------------------------------

 SCF Done:  E(RB2PLYPD3) =  -115.522354217     A.U. after   10 cycles
 E2(B2PLYPD3) =    -0.1451746957D+00 E(B2PLYPD3) =    -0.11566752891304D+03

 The electronic state is 1-A.
 Alpha  occ. eigenvalues --  -19.71059 -10.67053  -1.20056  -0.79655  -0.60661
 Alpha  occ. eigenvalues --   -0.51637  -0.49664  -0.41224  -0.35760
 Alpha virt. eigenvalues --    0.05366   0.08834   0.12000   0.12165   0.14866
 Alpha virt. eigenvalues --    0.16875   0.17927   0.28979   0.33114   0.33294
 Alpha virt. eigenvalues --    0.37458   0.38633   0.39961   0.40261   0.42581

 Mulliken charges:
               1
     1  C    0.058614
     2  O   -0.363842
     3  H    0.052954
     4  H    0.048454
     5  H    0.073167
     6  H    0.130652
 Sum of Mulliken charges =   0.00000

 Dipole moment (field-independent basis, Debye):
    X=             -0.8748    Y=             -1.3673    Z=              0.0945  Tot=              1.6260
 Quadrupole moment (field-independent basis, Debye-Ang):
   XX=            -13.1873   YY=            -12.3342   ZZ=            -13.6748
   XY=             -1.9719   XZ=              0.0918   YZ=             -0.0585

 Normal termination of Gaussian 09 at Thu Aug 27 00:00:19 2020.
