 Gaussian 09, Revision D.01,
 Gaussian 09:  ES64L-G09RevD.01 24-Apr-2013

 --------------------
 #p B2PLYPD3/Def2QZVP
 --------------------

 --------
 methanol
 --------
 Symbolic Z-matrix:
 Charge =  0 Multiplicity = 1

                         Standard orientation:
 ---------------------------------------------------------------------
 Center     Atomic      Atomic             Coordinates (Angstroms)
 Number     Number       Type             X           Y           Z
 ---------------------------------------------------------------------
      1          6           0        0.705255    0.000203    0.024367
      2          8           0       -0.757079   -0.181844   -0.013525
      3          1           0        1.024122    0.343996    0.814358
      4          1           0        0.938543    0.709260   -0.771239
      5          1           0        1.024264   -0.757121   -0.178141
      6          1           0       -1.161826    1.157399    0.097022
 ---------------------------------------------------------------------

 SCF Done:  E(RB2PLYPD3) =  -115.379764709     A.U. after   11 cycles
 E2(B2PLYPD3) =    -0.1565048179D+00 E(B2PLYPD3) =    -0.11553626952681D+03

 The electronic state is 1-A.
 Alpha  occ. eigenvalues --  -19.75066 -10.61071  -1.10082  -0.81966  -0.57829
 Alpha  occ. eigenvalues --   -0.52151  -0.47708  -0.40166  -0.35061
 Alpha virt. eigenvalues --   -0.01238   0.07519   0.12536   0.12799   0.14206
 Alpha virt. eigenvalues --    0.17483   0.18053   0.22491   0.29263   0.31791
 Alpha virt. eigenvalues --    0.33691   0.37002   0.41432   0.42628   0.45911

 Mulliken charges:
               1
     1  C    0.035520
     2  O   -0.500631
     3  H    0.060260
     4  H    0.041068
     5  H    0.131042
     6  H    0.232740
 Sum of Mulliken charges =   0.00000

 Dipole moment (field-independent basis, Debye):
    X=              1.3295    Y=              1.6712    Z=              0.2104  Tot=              2.1459
 Quadrupole moment (field-independent basis, Debye-Ang):
   XX=            -13.3145   YY=            -11.1906   ZZ=            -13.8140
   XY=             -2.4731   XZ=             -0.0140   YZ=              0.2679

 Normal termination of Gaussian 09 at Wed Aug 26 23:09:44 2020.
