 Gaussian 09, Revision D.01,
 Gaussian 09:  ES64L-G09RevD.01 24-Apr-2013

 --------------------
 #p B2PLYPD3/Def2QZVP
 --------------------

 --------
 methanol
 --------
 Symbolic Z-matrix:
 Charge =  0 Multiplicity = 1

                         Standard orientation:
 ---------------------------------------------------------------------
 Center     Atomic      Atomic             Coordinates (Angstroms)
 Number     Number       Type             X           Y           Z
 ---------------------------------------------------------------------
      1          6           0        0.661084   -0.028001    0.002970
      2          8           0       -0.755152    0.103929   -0.002502
      3          1           0        0.999709   -0.653409   -0.863027
      4          1           0        1.062338   -0.448297    0.941058
      5          1           0        1.120111    1.056652   -0.111254
      6          1           0       -1.107447   -0.618376    0.035416
 ---------------------------------------------------------------------

 SCF Done:  E(RB2PLYPD3) =  -115.516159829     A.U. after   10 cycles
 E2(B2PLYPD3) =    -0.1452268061D+00 E(B2PLYPD3) =    -0.11566138663532D+03

 The electronic state is 1-A.
 Alpha  occ. eigenvalues --  -19.71179 -10.67404  -1.20331  -0.79556  -0.60864
 Alpha  occ. eigenvalues --   -0.51885  -0.49405  -0.40835  -0.36010
 Alpha virt. eigenvalues --    0.05340   0.08746   0.11910   0.12201   0.14707
 Alpha virt. eigenvalues --    0.17236   0.17966   0.28907   0.32848   0.33334
 Alpha virt. eigenvalues --    0.36253   0.38641   0.39822   0.40301   0.42781

 Mulliken charges:
               1
     1  C    0.060149
     2  O   -0.357188
     3  H    0.050763
     4  H    0.056003
     5  H    0.065601
     6  H    0.124672
 Sum of Mulliken charges =   0.00000

 Dipole moment (field-independent basis, Debye):
    X=              0.8990    Y=             -1.4057    Z=              0.0872  Tot=              1.6709
 Quadrupole moment (field-independent basis, Debye-Ang):
   XX=            -13.0514   YY=            -12.4789   ZZ=            -13.6930
   XY=              2.0266   XZ=             -0.0375   YZ=             -0.0469

 Normal termination of Gaussian 09 at Thu Aug 27 00:03:54 2020.
