 Gaussian 09, Revision D.01,
 Gaussian 09:  ES64L-G09RevD.01 24-Apr-2013

 --------------------
 #p B2PLYPD3/Def2QZVP
 --------------------

 --------
 methanol
 --------
 Symbolic Z-matrix:
 Charge =  0 Multiplicity = 1

                         Standard orientation:
 ---------------------------------------------------------------------
 Center     Atomic      Atomic             Coordinates (Angstroms)
 Number     Number       Type             X           Y           Z
 ---------------------------------------------------------------------
      1          6           0        0.665318   -0.015528    0.012460
      2          8           0       -0.755849    0.102997   -0.013470
      3          1           0        0.970625   -0.746967   -0.828717
      4          1           0        1.056140   -0.300299    0.981118
      5          1           0        1.044230    0.994267   -0.235076
      6          1           0       -1.016113   -0.677809    0.115678
 ---------------------------------------------------------------------

 SCF Done:  E(RB2PLYPD3) =  -115.529640976     A.U. after   10 cycles
 E2(B2PLYPD3) =    -0.1456702981D+00 E(B2PLYPD3) =    -0.11567531127361D+03

 The electronic state is 1-A.
 Alpha  occ. eigenvalues --  -19.71421 -10.66631  -1.19714  -0.79165  -0.60018
 Alpha  occ. eigenvalues --   -0.52162  -0.49714  -0.41849  -0.35848
 Alpha virt. eigenvalues --    0.05288   0.08830   0.11901   0.12261   0.14525
 Alpha virt. eigenvalues --    0.17249   0.18012   0.28822   0.32396   0.33244
 Alpha virt. eigenvalues --    0.36973   0.38388   0.40348   0.41083   0.43584

 Mulliken charges:
               1
     1  C    0.060727
     2  O   -0.379644
     3  H    0.043086
     4  H    0.057357
     5  H    0.070517
     6  H    0.147957
 Sum of Mulliken charges =   0.00000

 Dipole moment (field-independent basis, Debye):
    X=              1.0487    Y=             -1.3541    Z=              0.2796  Tot=              1.7354
 Quadrupole moment (field-independent basis, Debye-Ang):
   XX=            -13.5590   YY=            -12.2975   ZZ=            -13.5243
   XY=              1.9982   XZ=             -0.1752   YZ=             -0.2180

 Normal termination of Gaussian 09 at Wed Aug 26 15:16:29 2020.
