 Gaussian 09, Revision D.01,
 Gaussian 09:  ES64L-G09RevD.01 24-Apr-2013

 --------------------
 #p B2PLYPD3/Def2QZVP
 --------------------

 --------
 methanol
 --------
 Symbolic Z-matrix:
 Charge =  0 Multiplicity = 1

                         Standard orientation:
 ---------------------------------------------------------------------
 Center     Atomic      Atomic             Coordinates (Angstroms)
 Number     Number       Type             X           Y           Z
 ---------------------------------------------------------------------
      1          6           0        0.660869    0.023328    0.006298
      2          8           0       -0.744583   -0.143246   -0.000858
      3          1           0        1.034277    0.492619    0.871244
      4          1           0        1.070860    0.537780   -0.846085
      5          1           0        1.055758   -0.925620   -0.040780
      6          1           0       -1.169446    0.901223   -0.015308
 ---------------------------------------------------------------------

 SCF Done:  E(RB2PLYPD3) =  -115.526843001     A.U. after   11 cycles
 E2(B2PLYPD3) =    -0.1501597484D+00 E(B2PLYPD3) =    -0.11567700274962D+03

 The electronic state is 1-A.
 Alpha  occ. eigenvalues --  -19.73979 -10.64029  -1.13789  -0.78646  -0.56826
 Alpha  occ. eigenvalues --   -0.51924  -0.49624  -0.40839  -0.35230
 Alpha virt. eigenvalues --    0.03438   0.07755   0.12625   0.12673   0.15009
 Alpha virt. eigenvalues --    0.17278   0.18476   0.28254   0.29790   0.33625
 Alpha virt. eigenvalues --    0.34432   0.38682   0.40079   0.41798   0.43830

 Mulliken charges:
               1
     1  C    0.074950
     2  O   -0.483320
     3  H    0.047950
     4  H    0.042143
     5  H    0.066112
     6  H    0.252164
 Sum of Mulliken charges =   0.00000

 Dipole moment (field-independent basis, Debye):
    X=              0.8926    Y=              1.6081    Z=             -0.0101  Tot=              1.8392
 Quadrupole moment (field-independent basis, Debye-Ang):
   XX=            -12.9712   YY=            -11.9676   ZZ=            -13.8960
   XY=             -2.3827   XZ=              0.0106   YZ=              0.0218

 Normal termination of Gaussian 09 at Thu Aug 27 00:02:00 2020.
