 Gaussian 09, Revision D.01,
 Gaussian 09:  ES64L-G09RevD.01 24-Apr-2013

 --------------------
 #p B2PLYPD3/Def2QZVP
 --------------------

 --------
 methanol
 --------
 Symbolic Z-matrix:
 Charge =  0 Multiplicity = 1

                         Standard orientation:
 ---------------------------------------------------------------------
 Center     Atomic      Atomic             Coordinates (Angstroms)
 Number     Number       Type             X           Y           Z
 ---------------------------------------------------------------------
      1          6           0        0.662509    0.030951    0.005577
      2          8           0       -0.742078   -0.141799   -0.011005
      3          1           0        1.032930    0.411405    0.891654
      4          1           0        1.041273    0.644039   -0.802482
      5          1           0        1.102101   -0.945293   -0.092770
      6          1           0       -1.214738    0.838537    0.058178
 ---------------------------------------------------------------------

 SCF Done:  E(RB2PLYPD3) =  -115.535491437     A.U. after   11 cycles
 E2(B2PLYPD3) =    -0.1493447283D+00 E(B2PLYPD3) =    -0.11568483616576D+03

 The electronic state is 1-A.
 Alpha  occ. eigenvalues --  -19.73583 -10.64456  -1.14040  -0.78568  -0.57199
 Alpha  occ. eigenvalues --   -0.52032  -0.49575  -0.40451  -0.35252
 Alpha virt. eigenvalues --    0.03913   0.07752   0.12526   0.12738   0.14993
 Alpha virt. eigenvalues --    0.17315   0.18393   0.28923   0.30466   0.33615
 Alpha virt. eigenvalues --    0.34228   0.38906   0.39583   0.41906   0.44120

 Mulliken charges:
               1
     1  C    0.075860
     2  O   -0.485816
     3  H    0.050715
     4  H    0.043799
     5  H    0.064344
     6  H    0.251098
 Sum of Mulliken charges =   0.00000

 Dipole moment (field-independent basis, Debye):
    X=              0.8072    Y=              1.6053    Z=              0.1565  Tot=              1.8036
 Quadrupole moment (field-independent basis, Debye-Ang):
   XX=            -12.7078   YY=            -12.1537   ZZ=            -13.8938
   XY=             -2.4199   XZ=             -0.1175   YZ=              0.0873

 Normal termination of Gaussian 09 at Thu Aug 27 00:12:57 2020.
