 Gaussian 09, Revision D.01,
 Gaussian 09:  ES64L-G09RevD.01 24-Apr-2013

 --------------------
 #p B2PLYPD3/Def2QZVP
 --------------------

 --------
 methanol
 --------
 Symbolic Z-matrix:
 Charge =  0 Multiplicity = 1

                         Standard orientation:
 ---------------------------------------------------------------------
 Center     Atomic      Atomic             Coordinates (Angstroms)
 Number     Number       Type             X           Y           Z
 ---------------------------------------------------------------------
      1          6           0        0.661253    0.016459    0.007691
      2          8           0       -0.749030   -0.161357   -0.005972
      3          1           0        1.030865    0.439899    0.852653
      4          1           0        0.970149    0.607606   -0.823377
      5          1           0        1.142386   -0.846228   -0.078456
      6          1           0       -1.118679    0.990828    0.050813
 ---------------------------------------------------------------------

 SCF Done:  E(RB2PLYPD3) =  -115.498909827     A.U. after   11 cycles
 E2(B2PLYPD3) =    -0.1517088837D+00 E(B2PLYPD3) =    -0.11565061871070D+03

 The electronic state is 1-A.
 Alpha  occ. eigenvalues --  -19.74455 -10.63051  -1.12858  -0.79379  -0.55642
 Alpha  occ. eigenvalues --   -0.52409  -0.49958  -0.40701  -0.35137
 Alpha virt. eigenvalues --    0.02102   0.07678   0.12586   0.12874   0.14609
 Alpha virt. eigenvalues --    0.18095   0.18279   0.25944   0.29534   0.33194
 Alpha virt. eigenvalues --    0.34032   0.39062   0.41155   0.42232   0.43320

 Mulliken charges:
               1
     1  C    0.094088
     2  O   -0.489542
     3  H    0.042359
     4  H    0.037051
     5  H    0.061192
     6  H    0.254851
 Sum of Mulliken charges =   0.00000

 Dipole moment (field-independent basis, Debye):
    X=              1.0604    Y=              1.6721    Z=              0.1148  Tot=              1.9833
 Quadrupole moment (field-independent basis, Debye-Ang):
   XX=            -13.1871   YY=            -11.7338   ZZ=            -13.8791
   XY=             -2.4668   XZ=             -0.0264   YZ=              0.1031

 Normal termination of Gaussian 09 at Wed Aug 26 12:32:05 2020.
