 Gaussian 09, Revision D.01,
 Gaussian 09:  ES64L-G09RevD.01 24-Apr-2013

 --------------------
 #p B2PLYPD3/Def2QZVP
 --------------------

 --------
 methanol
 --------
 Symbolic Z-matrix:
 Charge =  0 Multiplicity = 1

                         Standard orientation:
 ---------------------------------------------------------------------
 Center     Atomic      Atomic             Coordinates (Angstroms)
 Number     Number       Type             X           Y           Z
 ---------------------------------------------------------------------
      1          6           0        0.650813    0.036095    0.004059
      2          8           0       -0.732990   -0.155925   -0.015376
      3          1           0        1.016961    0.398890    0.853231
      4          1           0        1.010704    0.683487   -0.758830
      5          1           0        1.150978   -0.934201   -0.085032
      6          1           0       -1.219607    0.882657    0.089286
 ---------------------------------------------------------------------

 SCF Done:  E(RB2PLYPD3) =  -115.517069819     A.U. after   11 cycles
 E2(B2PLYPD3) =    -0.1501801472D+00 E(B2PLYPD3) =    -0.11566724996569D+03

 The electronic state is 1-A.
 Alpha  occ. eigenvalues --  -19.74037 -10.63767  -1.14041  -0.78680  -0.56919
 Alpha  occ. eigenvalues --   -0.52496  -0.49581  -0.40119  -0.35104
 Alpha virt. eigenvalues --    0.03031   0.07632   0.12526   0.12940   0.15078
 Alpha virt. eigenvalues --    0.17549   0.18388   0.27587   0.29638   0.33500
 Alpha virt. eigenvalues --    0.34990   0.38601   0.39683   0.42407   0.44340

 Mulliken charges:
               1
     1  C    0.084434
     2  O   -0.483877
     3  H    0.046348
     4  H    0.039546
     5  H    0.057944
     6  H    0.255605
 Sum of Mulliken charges =   0.00000

 Dipole moment (field-independent basis, Debye):
    X=              0.7691    Y=              1.6921    Z=              0.2425  Tot=              1.8744
 Quadrupole moment (field-independent basis, Debye-Ang):
   XX=            -12.6949   YY=            -12.0307   ZZ=            -13.9852
   XY=             -2.4510   XZ=             -0.1293   YZ=              0.1100

 Normal termination of Gaussian 09 at Wed Aug 26 13:54:45 2020.
