 Gaussian 09, Revision D.01,
 Gaussian 09:  ES64L-G09RevD.01 24-Apr-2013

 --------------------
 #p B2PLYPD3/Def2QZVP
 --------------------

 --------
 methanol
 --------
 Symbolic Z-matrix:
 Charge =  0 Multiplicity = 1

                         Standard orientation:
 ---------------------------------------------------------------------
 Center     Atomic      Atomic             Coordinates (Angstroms)
 Number     Number       Type             X           Y           Z
 ---------------------------------------------------------------------
      1          6           0       -0.675156    0.035274    0.004481
      2          8           0        0.739968   -0.205108   -0.006436
      3          1           0       -1.030514    0.539175   -0.728710
      4          1           0       -0.840168    0.596621    0.733040
      5          1           0       -1.269713   -0.803075    0.041160
      6          1           0        1.271584    1.096499   -0.020884
 ---------------------------------------------------------------------

 SCF Done:  E(RB2PLYPD3) =  -115.422871913     A.U. after   12 cycles
 E2(B2PLYPD3) =    -0.1555106048D+00 E(B2PLYPD3) =    -0.11557838251747D+03

 The electronic state is 1-A.
 Alpha  occ. eigenvalues --  -19.75161 -10.61275  -1.11104  -0.80987  -0.54766
 Alpha  occ. eigenvalues --   -0.53129  -0.48962  -0.39515  -0.35001
 Alpha virt. eigenvalues --   -0.01588   0.07364   0.12600   0.13263   0.14388
 Alpha virt. eigenvalues --    0.17784   0.18741   0.22239   0.29871   0.32515
 Alpha virt. eigenvalues --    0.33865   0.39439   0.39895   0.43268   0.43902

 Mulliken charges:
               1
     1  C    0.108702
     2  O   -0.491958
     3  H    0.037974
     4  H    0.050030
     5  H    0.056564
     6  H    0.238688
 Sum of Mulliken charges =   0.00000

 Dipole moment (field-independent basis, Debye):
    X=             -1.0704    Y=              1.8679    Z=             -0.0065  Tot=              2.1528
 Quadrupole moment (field-independent basis, Debye-Ang):
   XX=            -12.5959   YY=            -11.4560   ZZ=            -14.1091
   XY=              2.6649   XZ=              0.1039   YZ=              0.0173

 Normal termination of Gaussian 09 at Wed Aug 26 23:15:08 2020.
