 Gaussian 09, Revision D.01,
 Gaussian 09:  ES64L-G09RevD.01 24-Apr-2013

 --------------------
 #p B2PLYPD3/Def2QZVP
 --------------------

 --------
 methanol
 --------
 Symbolic Z-matrix:
 Charge =  0 Multiplicity = 1

                         Standard orientation:
 ---------------------------------------------------------------------
 Center     Atomic      Atomic             Coordinates (Angstroms)
 Number     Number       Type             X           Y           Z
 ---------------------------------------------------------------------
      1          6           0       -0.670255    0.000106    0.006732
      2          8           0        0.744228    0.083622   -0.027901
      3          1           0       -1.029415   -0.266235    1.033152
      4          1           0       -1.016455   -0.846625   -0.775351
      5          1           0       -1.007253    1.000372   -0.259700
      6          1           0        1.120827   -0.557123    0.184721
 ---------------------------------------------------------------------

 SCF Done:  E(RB2PLYPD3) =  -115.494992392     A.U. after   11 cycles
 E2(B2PLYPD3) =    -0.1446171746D+00 E(B2PLYPD3) =    -0.11563960956664D+03

 The electronic state is 1-A.
 Alpha  occ. eigenvalues --  -19.70357 -10.67546  -1.21072  -0.80592  -0.60645
 Alpha  occ. eigenvalues --   -0.51154  -0.50757  -0.41080  -0.35387
 Alpha virt. eigenvalues --    0.05366   0.09008   0.11789   0.12245   0.14631
 Alpha virt. eigenvalues --    0.16764   0.17727   0.28949   0.32363   0.33286
 Alpha virt. eigenvalues --    0.36782   0.38980   0.40173   0.40295   0.42690

 Mulliken charges:
               1
     1  C    0.059203
     2  O   -0.326413
     3  H    0.050836
     4  H    0.039187
     5  H    0.086484
     6  H    0.090702
 Sum of Mulliken charges =   0.00000

 Dipole moment (field-independent basis, Debye):
    X=             -0.8359    Y=             -1.1480    Z=              0.4805  Tot=              1.4992
 Quadrupole moment (field-independent basis, Debye-Ang):
   XX=            -13.1445   YY=            -12.4799   ZZ=            -13.5540
   XY=             -2.0034   XZ=              0.5028   YZ=             -0.3283

 Normal termination of Gaussian 09 at Wed Aug 26 14:00:48 2020.
