 Gaussian 09, Revision D.01,
 Gaussian 09:  ES64L-G09RevD.01 24-Apr-2013

 --------------------
 #p B2PLYPD3/Def2QZVP
 --------------------

 --------
 methanol
 --------
 Symbolic Z-matrix:
 Charge =  0 Multiplicity = 1

                         Standard orientation:
 ---------------------------------------------------------------------
 Center     Atomic      Atomic             Coordinates (Angstroms)
 Number     Number       Type             X           Y           Z
 ---------------------------------------------------------------------
      1          6           0        0.640807    0.045025    0.005992
      2          8           0       -0.730368   -0.170644   -0.006541
      3          1           0        1.006313    0.425613    0.832589
      4          1           0        1.005942    0.596295   -0.773314
      5          1           0        1.161424   -0.903887   -0.073436
      6          1           0       -1.175583    0.976979    0.030539
 ---------------------------------------------------------------------

 SCF Done:  E(RB2PLYPD3) =  -115.492888090     A.U. after   11 cycles
 E2(B2PLYPD3) =    -0.1516535963D+00 E(B2PLYPD3) =    -0.11564454168629D+03

 The electronic state is 1-A.
 Alpha  occ. eigenvalues --  -19.74681 -10.62879  -1.13906  -0.79023  -0.55921
 Alpha  occ. eigenvalues --   -0.53453  -0.49706  -0.39632  -0.35357
 Alpha virt. eigenvalues --    0.01714   0.07578   0.12680   0.12907   0.14937
 Alpha virt. eigenvalues --    0.17901   0.18508   0.25245   0.29411   0.33662
 Alpha virt. eigenvalues --    0.35420   0.38563   0.40153   0.43347   0.44023

 Mulliken charges:
               1
     1  C    0.092487
     2  O   -0.477871
     3  H    0.044770
     4  H    0.039356
     5  H    0.047895
     6  H    0.253363
 Sum of Mulliken charges =   0.00000

 Dipole moment (field-independent basis, Debye):
    X=              0.8669    Y=              1.7667    Z=              0.0893  Tot=              1.9699
 Quadrupole moment (field-independent basis, Debye-Ang):
   XX=            -12.9506   YY=            -11.8731   ZZ=            -13.9224
   XY=             -2.4014   XZ=             -0.0367   YZ=              0.0407

 Normal termination of Gaussian 09 at Wed Aug 26 16:15:54 2020.
