 Gaussian 09, Revision D.01,
 Gaussian 09:  ES64L-G09RevD.01 24-Apr-2013

 --------------------
 #p B2PLYPD3/Def2QZVP
 --------------------

 --------
 methanol
 --------
 Symbolic Z-matrix:
 Charge =  0 Multiplicity = 1

                         Standard orientation:
 ---------------------------------------------------------------------
 Center     Atomic      Atomic             Coordinates (Angstroms)
 Number     Number       Type             X           Y           Z
 ---------------------------------------------------------------------
      1          6           0       -0.674387    0.000012   -0.018459
      2          8           0        0.756085   -0.180971    0.007540
      3          1           0       -1.051638    0.490914   -0.769670
      4          1           0       -0.940768    0.597983    0.841896
      5          1           0       -1.168134   -0.755681    0.048336
      6          1           0        1.158186    1.114479   -0.070126
 ---------------------------------------------------------------------

 SCF Done:  E(RB2PLYPD3) =  -115.430805765     A.U. after   11 cycles
 E2(B2PLYPD3) =    -0.1550197937D+00 E(B2PLYPD3) =    -0.11558582555910D+03

 The electronic state is 1-A.
 Alpha  occ. eigenvalues --  -19.75270 -10.61904  -1.11199  -0.81145  -0.55314
 Alpha  occ. eigenvalues --   -0.51697  -0.49667  -0.40304  -0.34857
 Alpha virt. eigenvalues --   -0.00698   0.07437   0.12610   0.12961   0.14363
 Alpha virt. eigenvalues --    0.18158   0.18626   0.23072   0.29730   0.32294
 Alpha virt. eigenvalues --    0.33873   0.38099   0.40275   0.42857   0.44192

 Mulliken charges:
               1
     1  C    0.093946
     2  O   -0.488686
     3  H    0.037985
     4  H    0.034088
     5  H    0.073582
     6  H    0.249085
 Sum of Mulliken charges =   0.00000

 Dipole moment (field-independent basis, Debye):
    X=             -1.1589    Y=              1.7205    Z=             -0.1753  Tot=              2.0818
 Quadrupole moment (field-independent basis, Debye-Ang):
   XX=            -13.0578   YY=            -11.4063   ZZ=            -14.0259
   XY=              2.5977   XZ=              0.0440   YZ=             -0.1816

 Normal termination of Gaussian 09 at Wed Aug 26 22:29:12 2020.
