 Gaussian 09, Revision D.01,
 Gaussian 09:  ES64L-G09RevD.01 24-Apr-2013

 --------------------
 #p B2PLYPD3/Def2QZVP
 --------------------

 --------
 methanol
 --------
 Symbolic Z-matrix:
 Charge =  0 Multiplicity = 1

                         Standard orientation:
 ---------------------------------------------------------------------
 Center     Atomic      Atomic             Coordinates (Angstroms)
 Number     Number       Type             X           Y           Z
 ---------------------------------------------------------------------
      1          6           0       -0.670569   -0.037147    0.001293
      2          8           0        0.743052    0.140368   -0.007551
      3          1           0       -0.983272   -0.471769    0.869373
      4          1           0       -0.996796   -0.572142   -0.833589
      5          1           0       -1.090638    0.974597   -0.024375
      6          1           0        1.149707   -0.830749    0.041245
 ---------------------------------------------------------------------

 SCF Done:  E(RB2PLYPD3) =  -115.539337054     A.U. after   11 cycles
 E2(B2PLYPD3) =    -0.1486903822D+00 E(B2PLYPD3) =    -0.11568802743566D+03

 The electronic state is 1-A.
 Alpha  occ. eigenvalues --  -19.73075 -10.64176  -1.14308  -0.78850  -0.57448
 Alpha  occ. eigenvalues --   -0.53212  -0.48965  -0.40825  -0.35437
 Alpha virt. eigenvalues --    0.04307   0.08063   0.12410   0.12582   0.14856
 Alpha virt. eigenvalues --    0.17331   0.18152   0.29101   0.31591   0.33523
 Alpha virt. eigenvalues --    0.33921   0.38529   0.40132   0.42722   0.44467

 Mulliken charges:
               1
     1  C    0.081671
     2  O   -0.485544
     3  H    0.050460
     4  H    0.049873
     5  H    0.062149
     6  H    0.241391
 Sum of Mulliken charges =   0.00000

 Dipole moment (field-independent basis, Debye):
    X=             -0.9417    Y=             -1.6359    Z=              0.1054  Tot=              1.8905
 Quadrupole moment (field-independent basis, Debye-Ang):
   XX=            -13.0722   YY=            -12.0392   ZZ=            -13.7217
   XY=             -2.2797   XZ=              0.0873   YZ=             -0.0439

 Normal termination of Gaussian 09 at Thu Aug 27 00:10:43 2020.
