 Gaussian 09, Revision D.01,
 Gaussian 09:  ES64L-G09RevD.01 24-Apr-2013

 --------------------
 #p B2PLYPD3/Def2QZVP
 --------------------

 --------
 methanol
 --------
 Symbolic Z-matrix:
 Charge =  0 Multiplicity = 1

                         Standard orientation:
 ---------------------------------------------------------------------
 Center     Atomic      Atomic             Coordinates (Angstroms)
 Number     Number       Type             X           Y           Z
 ---------------------------------------------------------------------
      1          6           0        0.664016    0.022889   -0.012151
      2          8           0       -0.728958   -0.151314   -0.002934
      3          1           0        0.983552    0.450890    0.935805
      4          1           0        0.940490    0.601300   -0.835035
      5          1           0        1.108466   -0.853629   -0.047519
      6          1           0       -1.184941    0.874621    0.043122
 ---------------------------------------------------------------------

 SCF Done:  E(RB2PLYPD3) =  -115.521246209     A.U. after   11 cycles
 E2(B2PLYPD3) =    -0.1494706321D+00 E(B2PLYPD3) =    -0.11567071684157D+03

 The electronic state is 1-A.
 Alpha  occ. eigenvalues --  -19.73354 -10.63427  -1.13972  -0.78917  -0.56552
 Alpha  occ. eigenvalues --   -0.52767  -0.50799  -0.40288  -0.34782
 Alpha virt. eigenvalues --    0.03452   0.07964   0.12384   0.13057   0.14584
 Alpha virt. eigenvalues --    0.17617   0.18233   0.28517   0.29734   0.33059
 Alpha virt. eigenvalues --    0.34294   0.39277   0.41782   0.42254   0.43506

 Mulliken charges:
               1
     1  C    0.081003
     2  O   -0.489555
     3  H    0.040639
     4  H    0.045221
     5  H    0.068432
     6  H    0.254259
 Sum of Mulliken charges =   0.00000

 Dipole moment (field-independent basis, Debye):
    X=              0.8451    Y=              1.5725    Z=              0.0311  Tot=              1.7855
 Quadrupole moment (field-independent basis, Debye-Ang):
   XX=            -12.9318   YY=            -12.0570   ZZ=            -13.7127
   XY=             -2.6087   XZ=             -0.1295   YZ=             -0.0215

 Normal termination of Gaussian 09 at Wed Aug 26 15:58:37 2020.
