 Gaussian 09, Revision D.01,
 Gaussian 09:  ES64L-G09RevD.01 24-Apr-2013

 --------------------
 #p B2PLYPD3/Def2QZVP
 --------------------

 --------
 methanol
 --------
 Symbolic Z-matrix:
 Charge =  0 Multiplicity = 1

                         Standard orientation:
 ---------------------------------------------------------------------
 Center     Atomic      Atomic             Coordinates (Angstroms)
 Number     Number       Type             X           Y           Z
 ---------------------------------------------------------------------
      1          6           0        0.675569    0.019158    0.000774
      2          8           0       -0.747137   -0.134819   -0.002311
      3          1           0        1.008571    0.518457    0.884962
      4          1           0        1.053551    0.551115   -0.854254
      5          1           0        1.049203   -0.944570   -0.013200
      6          1           0       -1.187642    0.838605   -0.003664
 ---------------------------------------------------------------------

 SCF Done:  E(RB2PLYPD3) =  -115.539636971     A.U. after   11 cycles
 E2(B2PLYPD3) =    -0.1490923187D+00 E(B2PLYPD3) =    -0.11568872928972D+03

 The electronic state is 1-A.
 Alpha  occ. eigenvalues --  -19.73232 -10.64484  -1.13784  -0.78749  -0.57233
 Alpha  occ. eigenvalues --   -0.51743  -0.49661  -0.41044  -0.35149
 Alpha virt. eigenvalues --    0.04174   0.07913   0.12527   0.12609   0.14903
 Alpha virt. eigenvalues --    0.17140   0.18204   0.29070   0.31389   0.33342
 Alpha virt. eigenvalues --    0.33721   0.38986   0.40123   0.41423   0.43868

 Mulliken charges:
               1
     1  C    0.076604
     2  O   -0.490265
     3  H    0.048296
     4  H    0.046712
     5  H    0.072572
     6  H    0.246081
 Sum of Mulliken charges =   0.00000

 Dipole moment (field-independent basis, Debye):
    X=              0.9028    Y=              1.5687    Z=              0.0040  Tot=              1.8099
 Quadrupole moment (field-independent basis, Debye-Ang):
   XX=            -12.9059   YY=            -12.0307   ZZ=            -13.8410
   XY=             -2.3810   XZ=             -0.0316   YZ=              0.0013

 Normal termination of Gaussian 09 at Wed Aug 26 23:53:42 2020.
