 Gaussian 09, Revision D.01,
 Gaussian 09:  ES64L-G09RevD.01 24-Apr-2013

 --------------------
 #p B2PLYPD3/Def2QZVP
 --------------------

 --------
 methanol
 --------
 Symbolic Z-matrix:
 Charge =  0 Multiplicity = 1

                         Standard orientation:
 ---------------------------------------------------------------------
 Center     Atomic      Atomic             Coordinates (Angstroms)
 Number     Number       Type             X           Y           Z
 ---------------------------------------------------------------------
      1          6           0        0.655400    0.030943    0.003068
      2          8           0       -0.735261   -0.149566   -0.006116
      3          1           0        0.982473    0.490473    0.863661
      4          1           0        1.025623    0.586356   -0.816329
      5          1           0        1.127779   -0.934735   -0.034253
      6          1           0       -1.186183    0.868773    0.017440
 ---------------------------------------------------------------------

 SCF Done:  E(RB2PLYPD3) =  -115.530157082     A.U. after   11 cycles
 E2(B2PLYPD3) =    -0.1494930143D+00 E(B2PLYPD3) =    -0.11567965009592D+03

 The electronic state is 1-A.
 Alpha  occ. eigenvalues --  -19.73686 -10.63963  -1.14276  -0.78518  -0.57133
 Alpha  occ. eigenvalues --   -0.52506  -0.49778  -0.40437  -0.35119
 Alpha virt. eigenvalues --    0.03570   0.07813   0.12612   0.12743   0.14961
 Alpha virt. eigenvalues --    0.17596   0.18211   0.28632   0.29890   0.33419
 Alpha virt. eigenvalues --    0.34739   0.39215   0.39897   0.42320   0.44013

 Mulliken charges:
               1
     1  C    0.081373
     2  O   -0.483760
     3  H    0.045791
     4  H    0.042091
     5  H    0.061964
     6  H    0.252541
 Sum of Mulliken charges =   0.00000

 Dipole moment (field-independent basis, Debye):
    X=              0.8210    Y=              1.6572    Z=              0.0635  Tot=              1.8505
 Quadrupole moment (field-independent basis, Debye-Ang):
   XX=            -12.8658   YY=            -12.0342   ZZ=            -13.8908
   XY=             -2.4264   XZ=             -0.0610   YZ=              0.0353

 Normal termination of Gaussian 09 at Wed Aug 26 10:42:45 2020.
