 Gaussian 09, Revision D.01,
 Gaussian 09:  ES64L-G09RevD.01 24-Apr-2013

 --------------------
 #p B2PLYPD3/Def2QZVP
 --------------------

 --------
 methanol
 --------
 Symbolic Z-matrix:
 Charge =  0 Multiplicity = 1

                         Standard orientation:
 ---------------------------------------------------------------------
 Center     Atomic      Atomic             Coordinates (Angstroms)
 Number     Number       Type             X           Y           Z
 ---------------------------------------------------------------------
      1          6           0        0.647173    0.022242    0.038337
      2          8           0       -0.722174   -0.131867   -0.034417
      3          1           0        0.832228    0.371657    0.893102
      4          1           0        1.061104    0.666329   -0.829940
      5          1           0        1.048193   -0.948075   -0.109293
      6          1           0       -1.047174    0.831569    0.091446
 ---------------------------------------------------------------------

 SCF Done:  E(RB2PLYPD3) =  -115.523251757     A.U. after   11 cycles
 E2(B2PLYPD3) =    -0.1478023728D+00 E(B2PLYPD3) =    -0.11567105412956D+03

 The electronic state is 1-A.
 Alpha  occ. eigenvalues --  -19.72845 -10.63760  -1.16770  -0.78861  -0.59316
 Alpha  occ. eigenvalues --   -0.53609  -0.49932  -0.40997  -0.35008
 Alpha virt. eigenvalues --    0.04411   0.08411   0.12268   0.12529   0.14836
 Alpha virt. eigenvalues --    0.17506   0.18026   0.28959   0.31663   0.33059
 Alpha virt. eigenvalues --    0.35387   0.38370   0.40510   0.41864   0.45512

 Mulliken charges:
               1
     1  C    0.069755
     2  O   -0.455409
     3  H    0.056239
     4  H    0.029004
     5  H    0.063418
     6  H    0.236993
 Sum of Mulliken charges =   0.00000

 Dipole moment (field-independent basis, Debye):
    X=              0.8672    Y=              1.5160    Z=              0.3735  Tot=              1.7860
 Quadrupole moment (field-independent basis, Debye-Ang):
   XX=            -13.5838   YY=            -11.9976   ZZ=            -13.5737
   XY=             -2.2228   XZ=             -0.2683   YZ=              0.2981

 Normal termination of Gaussian 09 at Wed Aug 26 22:52:48 2020.
