 Gaussian 09, Revision D.01,
 Gaussian 09:  ES64L-G09RevD.01 24-Apr-2013

 --------------------
 #p B2PLYPD3/Def2QZVP
 --------------------

 --------
 methanol
 --------
 Symbolic Z-matrix:
 Charge =  0 Multiplicity = 1

                         Standard orientation:
 ---------------------------------------------------------------------
 Center     Atomic      Atomic             Coordinates (Angstroms)
 Number     Number       Type             X           Y           Z
 ---------------------------------------------------------------------
      1          6           0        0.663501    0.025893    0.004487
      2          8           0       -0.746407   -0.142101   -0.005257
      3          1           0        0.973087    0.526419    0.871502
      4          1           0        1.033897    0.553886   -0.856469
      5          1           0        1.150992   -0.928076   -0.005036
      6          1           0       -1.167723    0.829223    0.005142
 ---------------------------------------------------------------------

 SCF Done:  E(RB2PLYPD3) =  -115.541594095     A.U. after   11 cycles
 E2(B2PLYPD3) =    -0.1487795022D+00 E(B2PLYPD3) =    -0.11569037359759D+03

 The electronic state is 1-A.
 Alpha  occ. eigenvalues --  -19.73317 -10.64592  -1.14407  -0.78633  -0.57267
 Alpha  occ. eigenvalues --   -0.52239  -0.49885  -0.40697  -0.35249
 Alpha virt. eigenvalues --    0.04213   0.07882   0.12530   0.12680   0.14740
 Alpha virt. eigenvalues --    0.17720   0.18159   0.29135   0.31233   0.33319
 Alpha virt. eigenvalues --    0.33842   0.39452   0.40088   0.41678   0.43765

 Mulliken charges:
               1
     1  C    0.078645
     2  O   -0.483672
     3  H    0.047559
     4  H    0.044390
     5  H    0.065672
     6  H    0.247406
 Sum of Mulliken charges =   0.00000

 Dipole moment (field-independent basis, Debye):
    X=              0.8913    Y=              1.6038    Z=              0.0425  Tot=              1.8353
 Quadrupole moment (field-independent basis, Debye-Ang):
   XX=            -12.8882   YY=            -12.1475   ZZ=            -13.8340
   XY=             -2.4341   XZ=             -0.0471   YZ=              0.0315

 Normal termination of Gaussian 09 at Thu Aug 27 00:15:08 2020.
