 Gaussian 09, Revision D.01,
 Gaussian 09:  ES64L-G09RevD.01 24-Apr-2013

 --------------------
 #p B2PLYPD3/Def2QZVP
 --------------------

 --------
 methanol
 --------
 Symbolic Z-matrix:
 Charge =  0 Multiplicity = 1

                         Standard orientation:
 ---------------------------------------------------------------------
 Center     Atomic      Atomic             Coordinates (Angstroms)
 Number     Number       Type             X           Y           Z
 ---------------------------------------------------------------------
      1          6           0        0.642412    0.041871    0.015298
      2          8           0       -0.716703   -0.169828   -0.008395
      3          1           0        0.935305    0.420981    0.793286
      4          1           0        0.940469    0.657110   -0.736972
      5          1           0        1.109716   -0.954147   -0.110790
      6          1           0       -1.106336    0.983449    0.029849
 ---------------------------------------------------------------------

 SCF Done:  E(RB2PLYPD3) =  -115.476723035     A.U. after   11 cycles
 E2(B2PLYPD3) =    -0.1510574112D+00 E(B2PLYPD3) =    -0.11562778044662D+03

 The electronic state is 1-A.
 Alpha  occ. eigenvalues --  -19.74200 -10.62178  -1.14586  -0.79302  -0.57194
 Alpha  occ. eigenvalues --   -0.54427  -0.49196  -0.40056  -0.35101
 Alpha virt. eigenvalues --    0.01903   0.07905   0.12295   0.12962   0.15148
 Alpha virt. eigenvalues --    0.17661   0.17956   0.25662   0.29511   0.33281
 Alpha virt. eigenvalues --    0.35938   0.37951   0.39926   0.43917   0.45492

 Mulliken charges:
               1
     1  C    0.092219
     2  O   -0.473636
     3  H    0.050942
     4  H    0.032716
     5  H    0.052246
     6  H    0.245512
 Sum of Mulliken charges =   0.00000

 Dipole moment (field-independent basis, Debye):
    X=              0.9214    Y=              1.8063    Z=              0.1312  Tot=              2.0320
 Quadrupole moment (field-independent basis, Debye-Ang):
   XX=            -13.4166   YY=            -11.5346   ZZ=            -13.8696
   XY=             -2.2075   XZ=              0.0148   YZ=              0.0951

 Normal termination of Gaussian 09 at Wed Aug 26 19:12:48 2020.
