 Gaussian 09, Revision D.01,
 Gaussian 09:  ES64L-G09RevD.01 24-Apr-2013

 --------------------
 #p B2PLYPD3/Def2QZVP
 --------------------

 --------
 methanol
 --------
 Symbolic Z-matrix:
 Charge =  0 Multiplicity = 1

                         Standard orientation:
 ---------------------------------------------------------------------
 Center     Atomic      Atomic             Coordinates (Angstroms)
 Number     Number       Type             X           Y           Z
 ---------------------------------------------------------------------
      1          6           0       -0.651211   -0.060859    0.022220
      2          8           0        0.750310    0.077360   -0.036650
      3          1           0       -0.893200   -0.140215    1.111859
      4          1           0       -1.047200   -0.877766   -0.698972
      5          1           0       -1.261196    1.094850   -0.358121
      6          1           0        1.106380   -0.330590    0.105115
 ---------------------------------------------------------------------

 SCF Done:  E(RB2PLYPD3) =  -115.052843094     A.U. after   11 cycles
 E2(B2PLYPD3) =    -0.1436433192D+00 E(B2PLYPD3) =    -0.11519648641350D+03

 The electronic state is 1-A.
 Alpha  occ. eigenvalues --  -19.68566 -10.70466  -1.30875  -0.84228  -0.62777
 Alpha  occ. eigenvalues --   -0.53446  -0.48987  -0.38164  -0.37196
 Alpha virt. eigenvalues --    0.04652   0.09502   0.10794   0.11714   0.13756
 Alpha virt. eigenvalues --    0.17099   0.18030   0.28033   0.30415   0.32417
 Alpha virt. eigenvalues --    0.33161   0.37503   0.39989   0.40702   0.43256

 Mulliken charges:
               1
     1  C    0.048690
     2  O   -0.104560
     3  H    0.069652
     4  H    0.067876
     5  H    0.049408
     6  H   -0.131065
 Sum of Mulliken charges =   0.00000

 Dipole moment (field-independent basis, Debye):
    X=             -0.8428    Y=             -1.1627    Z=              0.4432  Tot=              1.5029
 Quadrupole moment (field-independent basis, Debye-Ang):
   XX=            -12.8779   YY=            -13.0546   ZZ=            -13.2484
   XY=             -1.5315   XZ=              0.6517   YZ=              0.0646

 Normal termination of Gaussian 09 at Wed Aug 26 22:53:27 2020.
