 Gaussian 09, Revision D.01,
 Gaussian 09:  ES64L-G09RevD.01 24-Apr-2013

 --------------------
 #p B2PLYPD3/Def2QZVP
 --------------------

 --------
 methanol
 --------
 Symbolic Z-matrix:
 Charge =  0 Multiplicity = 1

                         Standard orientation:
 ---------------------------------------------------------------------
 Center     Atomic      Atomic             Coordinates (Angstroms)
 Number     Number       Type             X           Y           Z
 ---------------------------------------------------------------------
      1          6           0        0.633307    0.073395    0.006807
      2          8           0       -0.714243   -0.205247   -0.002781
      3          1           0        0.980099    0.446509    0.771859
      4          1           0        0.969532    0.576766   -0.723637
      5          1           0        1.279232   -0.853513   -0.071131
      6          1           0       -1.314764    1.031844    0.004315
 ---------------------------------------------------------------------

 SCF Done:  E(RB2PLYPD3) =  -115.426043831     A.U. after   11 cycles
 E2(B2PLYPD3) =    -0.1541497393D+00 E(B2PLYPD3) =    -0.11558019357042D+03

 The electronic state is 1-A.
 Alpha  occ. eigenvalues --  -19.75331 -10.61670  -1.13442  -0.80381  -0.54955
 Alpha  occ. eigenvalues --   -0.54354  -0.49626  -0.38033  -0.35569
 Alpha virt. eigenvalues --   -0.01145   0.07187   0.12863   0.13166   0.14798
 Alpha virt. eigenvalues --    0.18331   0.18628   0.22251   0.29407   0.33806
 Alpha virt. eigenvalues --    0.35231   0.37939   0.40716   0.42993   0.45329

 Mulliken charges:
               1
     1  C    0.097158
     2  O   -0.474017
     3  H    0.052800
     4  H    0.044176
     5  H    0.035202
     6  H    0.244681
 Sum of Mulliken charges =   0.00000

 Dipole moment (field-independent basis, Debye):
    X=              0.7645    Y=              1.8999    Z=              0.0322  Tot=              2.0482
 Quadrupole moment (field-independent basis, Debye-Ang):
   XX=            -12.3764   YY=            -11.9673   ZZ=            -13.9753
   XY=             -2.5384   XZ=              0.0086   YZ=             -0.0069

 Normal termination of Gaussian 09 at Wed Aug 26 23:56:10 2020.
