 Gaussian 09, Revision D.01,
 Gaussian 09:  ES64L-G09RevD.01 24-Apr-2013

 --------------------
 #p B2PLYPD3/Def2QZVP
 --------------------

 --------
 methanol
 --------
 Symbolic Z-matrix:
 Charge =  0 Multiplicity = 1

                         Standard orientation:
 ---------------------------------------------------------------------
 Center     Atomic      Atomic             Coordinates (Angstroms)
 Number     Number       Type             X           Y           Z
 ---------------------------------------------------------------------
      1          6           0       -0.669561   -0.021101   -0.006595
      2          8           0        0.752939    0.127655    0.001236
      3          1           0       -1.002073   -0.564038    0.902236
      4          1           0       -1.060789   -0.488950   -0.899666
      5          1           0       -1.100323    0.939505    0.051192
      6          1           0        1.157040   -0.781151   -0.024082
 ---------------------------------------------------------------------

 SCF Done:  E(RB2PLYPD3) =  -115.549641405     A.U. after   10 cycles
 E2(B2PLYPD3) =    -0.1479563856D+00 E(B2PLYPD3) =    -0.11569759779103D+03

 The electronic state is 1-A.
 Alpha  occ. eigenvalues --  -19.72865 -10.65349  -1.15115  -0.78767  -0.57801
 Alpha  occ. eigenvalues --   -0.51725  -0.50040  -0.40925  -0.35395
 Alpha virt. eigenvalues --    0.04777   0.08036   0.12290   0.12686   0.14651
 Alpha virt. eigenvalues --    0.17391   0.18327   0.29046   0.32990   0.33363
 Alpha virt. eigenvalues --    0.33953   0.38824   0.40297   0.41019   0.43942

 Mulliken charges:
               1
     1  C    0.070207
     2  O   -0.472675
     3  H    0.045727
     4  H    0.051357
     5  H    0.070670
     6  H    0.234713
 Sum of Mulliken charges =   0.00000

 Dipole moment (field-independent basis, Debye):
    X=             -0.9109    Y=             -1.4984    Z=             -0.0601  Tot=              1.7546
 Quadrupole moment (field-independent basis, Debye-Ang):
   XX=            -12.9296   YY=            -12.2802   ZZ=            -13.7497
   XY=             -2.3782   XZ=              0.0105   YZ=              0.0697

 Normal termination of Gaussian 09 at Wed Aug 26 12:55:06 2020.
