 Gaussian 09, Revision D.01,
 Gaussian 09:  ES64L-G09RevD.01 24-Apr-2013

 --------------------
 #p B2PLYPD3/Def2QZVP
 --------------------

 --------
 methanol
 --------
 Symbolic Z-matrix:
 Charge =  0 Multiplicity = 1

                         Standard orientation:
 ---------------------------------------------------------------------
 Center     Atomic      Atomic             Coordinates (Angstroms)
 Number     Number       Type             X           Y           Z
 ---------------------------------------------------------------------
      1          6           0       -0.669795   -0.027984   -0.008946
      2          8           0        0.739454    0.139296    0.006623
      3          1           0       -1.059633   -0.534712    0.857494
      4          1           0       -0.993706   -0.529932   -0.843834
      5          1           0       -1.049176    0.963340   -0.004704
      6          1           0        1.205653   -0.845158   -0.008265
 ---------------------------------------------------------------------

 SCF Done:  E(RB2PLYPD3) =  -115.535083642     A.U. after   11 cycles
 E2(B2PLYPD3) =    -0.1492808012D+00 E(B2PLYPD3) =    -0.11568436444280D+03

 The electronic state is 1-A.
 Alpha  occ. eigenvalues --  -19.73365 -10.64186  -1.13871  -0.78662  -0.57413
 Alpha  occ. eigenvalues --   -0.52159  -0.49334  -0.40747  -0.35153
 Alpha virt. eigenvalues --    0.03956   0.07883   0.12488   0.12693   0.15061
 Alpha virt. eigenvalues --    0.17095   0.18234   0.29014   0.30720   0.33497
 Alpha virt. eigenvalues --    0.34149   0.38979   0.39581   0.41905   0.44438

 Mulliken charges:
               1
     1  C    0.077549
     2  O   -0.488756
     3  H    0.045380
     4  H    0.049518
     5  H    0.068510
     6  H    0.247799
 Sum of Mulliken charges =   0.00000

 Dipole moment (field-independent basis, Debye):
    X=             -0.8417    Y=             -1.6088    Z=             -0.0677  Tot=              1.8169
 Quadrupole moment (field-independent basis, Debye-Ang):
   XX=            -12.8366   YY=            -12.0229   ZZ=            -13.8629
   XY=             -2.3603   XZ=             -0.0326   YZ=              0.0592

 Normal termination of Gaussian 09 at Wed Aug 26 23:47:24 2020.
