 Gaussian 09, Revision D.01,
 Gaussian 09:  ES64L-G09RevD.01 24-Apr-2013

 --------------------
 #p B2PLYPD3/Def2QZVP
 --------------------

 --------
 methanol
 --------
 Symbolic Z-matrix:
 Charge =  0 Multiplicity = 1

                         Standard orientation:
 ---------------------------------------------------------------------
 Center     Atomic      Atomic             Coordinates (Angstroms)
 Number     Number       Type             X           Y           Z
 ---------------------------------------------------------------------
      1          6           0        0.680045    0.009040    0.013540
      2          8           0       -0.745398   -0.145637   -0.009743
      3          1           0        1.040174    0.395813    0.885251
      4          1           0        0.999106    0.663874   -0.819235
      5          1           0        1.013940   -0.879234   -0.135871
      6          1           0       -1.170301    0.930405    0.066559
 ---------------------------------------------------------------------

 SCF Done:  E(RB2PLYPD3) =  -115.507866139     A.U. after   11 cycles
 E2(B2PLYPD3) =    -0.1507949641D+00 E(B2PLYPD3) =    -0.11565866110259D+03

 The electronic state is 1-A.
 Alpha  occ. eigenvalues --  -19.73786 -10.63360  -1.12709  -0.79305  -0.56775
 Alpha  occ. eigenvalues --   -0.51781  -0.49623  -0.41138  -0.34954
 Alpha virt. eigenvalues --    0.03034   0.07832   0.12521   0.12776   0.14807
 Alpha virt. eigenvalues --    0.17153   0.18209   0.27668   0.29651   0.33161
 Alpha virt. eigenvalues --    0.33820   0.38096   0.41081   0.41802   0.44098

 Mulliken charges:
               1
     1  C    0.082646
     2  O   -0.497595
     3  H    0.050317
     4  H    0.037279
     5  H    0.076458
     6  H    0.250895
 Sum of Mulliken charges =   0.00000

 Dipole moment (field-independent basis, Debye):
    X=              0.9927    Y=              1.5884    Z=              0.1681  Tot=              1.8806
 Quadrupole moment (field-independent basis, Debye-Ang):
   XX=            -13.0946   YY=            -11.7769   ZZ=            -13.8205
   XY=             -2.4384   XZ=             -0.0587   YZ=              0.1840

 Normal termination of Gaussian 09 at Wed Aug 26 14:31:44 2020.
