 Gaussian 09, Revision D.01,
 Gaussian 09:  ES64L-G09RevD.01 24-Apr-2013

 --------------------
 #p B2PLYPD3/Def2QZVP
 --------------------

 --------
 methanol
 --------
 Symbolic Z-matrix:
 Charge =  0 Multiplicity = 1

                         Standard orientation:
 ---------------------------------------------------------------------
 Center     Atomic      Atomic             Coordinates (Angstroms)
 Number     Number       Type             X           Y           Z
 ---------------------------------------------------------------------
      1          6           0       -0.671135   -0.016929    0.014234
      2          8           0        0.749762    0.101045   -0.010192
      3          1           0       -1.007355   -0.478577    0.950912
      4          1           0       -1.051629   -0.601242   -0.920562
      5          1           0       -1.053092    1.009249   -0.067142
      6          1           0        1.140794   -0.636218    0.032926
 ---------------------------------------------------------------------

 SCF Done:  E(RB2PLYPD3) =  -115.531694480     A.U. after   10 cycles
 E2(B2PLYPD3) =    -0.1454831883D+00 E(B2PLYPD3) =    -0.11567717766810D+03

 The electronic state is 1-A.
 Alpha  occ. eigenvalues --  -19.71161 -10.66905  -1.18864  -0.79696  -0.59932
 Alpha  occ. eigenvalues --   -0.51625  -0.50114  -0.40855  -0.35618
 Alpha virt. eigenvalues --    0.05389   0.08676   0.12018   0.12355   0.14576
 Alpha virt. eigenvalues --    0.16987   0.18069   0.28961   0.32922   0.33105
 Alpha virt. eigenvalues --    0.36987   0.39324   0.39633   0.40366   0.43090

 Mulliken charges:
               1
     1  C    0.063294
     2  O   -0.394661
     3  H    0.056540
     4  H    0.043859
     5  H    0.077417
     6  H    0.153550
 Sum of Mulliken charges =   0.00000

 Dipole moment (field-independent basis, Debye):
    X=             -0.8673    Y=             -1.3277    Z=              0.1430  Tot=              1.5923
 Quadrupole moment (field-independent basis, Debye-Ang):
   XX=            -12.9986   YY=            -12.4776   ZZ=            -13.6068
   XY=             -2.1597   XZ=              0.0841   YZ=             -0.1272

 Normal termination of Gaussian 09 at Wed Aug 26 11:30:20 2020.
