 Gaussian 09, Revision D.01,
 Gaussian 09:  ES64L-G09RevD.01 24-Apr-2013

 --------------------
 #p B2PLYPD3/Def2QZVP
 --------------------

 --------
 methanol
 --------
 Symbolic Z-matrix:
 Charge =  0 Multiplicity = 1

                         Standard orientation:
 ---------------------------------------------------------------------
 Center     Atomic      Atomic             Coordinates (Angstroms)
 Number     Number       Type             X           Y           Z
 ---------------------------------------------------------------------
      1          6           0        0.677465   -0.010899    0.005464
      2          8           0       -0.754414    0.100727   -0.023554
      3          1           0        1.038394   -0.755882   -0.805420
      4          1           0        1.016285   -0.316986    1.005018
      5          1           0        1.044907    0.981900   -0.183550
      6          1           0       -1.129066   -0.649452    0.139596
 ---------------------------------------------------------------------

 SCF Done:  E(RB2PLYPD3) =  -115.537913154     A.U. after   10 cycles
 E2(B2PLYPD3) =    -0.1458234787D+00 E(B2PLYPD3) =    -0.11568373663224D+03

 The electronic state is 1-A.
 Alpha  occ. eigenvalues --  -19.71315 -10.66637  -1.18065  -0.79567  -0.59478
 Alpha  occ. eigenvalues --   -0.51346  -0.50256  -0.41232  -0.35558
 Alpha virt. eigenvalues --    0.05340   0.08616   0.11995   0.12427   0.14598
 Alpha virt. eigenvalues --    0.16981   0.17997   0.29018   0.32523   0.33158
 Alpha virt. eigenvalues --    0.37029   0.39237   0.39634   0.40404   0.43438

 Mulliken charges:
               1
     1  C    0.067180
     2  O   -0.413965
     3  H    0.045936
     4  H    0.053394
     5  H    0.079669
     6  H    0.167786
 Sum of Mulliken charges =   0.00000

 Dipole moment (field-independent basis, Debye):
    X=              0.9377    Y=             -1.3144    Z=              0.3464  Tot=              1.6513
 Quadrupole moment (field-independent basis, Debye-Ang):
   XX=            -13.0798   YY=            -12.3830   ZZ=            -13.6059
   XY=              2.1401   XZ=             -0.3959   YZ=             -0.2131

 Normal termination of Gaussian 09 at Thu Aug 27 00:11:30 2020.
