 Gaussian 09, Revision D.01,
 Gaussian 09:  ES64L-G09RevD.01 24-Apr-2013

 --------------------
 #p B2PLYPD3/Def2QZVP
 --------------------

 --------
 methanol
 --------
 Symbolic Z-matrix:
 Charge =  0 Multiplicity = 1

                         Standard orientation:
 ---------------------------------------------------------------------
 Center     Atomic      Atomic             Coordinates (Angstroms)
 Number     Number       Type             X           Y           Z
 ---------------------------------------------------------------------
      1          6           0        0.666152    0.026171    0.004443
      2          8           0       -0.743302   -0.145732   -0.004092
      3          1           0        1.075300    0.470370    0.842226
      4          1           0        0.995583    0.588737   -0.837255
      5          1           0        1.075475   -0.934409   -0.049662
      6          1           0       -1.196854    0.884133    0.050775
 ---------------------------------------------------------------------

 SCF Done:  E(RB2PLYPD3) =  -115.526770143     A.U. after   11 cycles
 E2(B2PLYPD3) =    -0.1500317878D+00 E(B2PLYPD3) =    -0.11567680193091D+03

 The electronic state is 1-A.
 Alpha  occ. eigenvalues --  -19.73807 -10.63908  -1.13505  -0.78799  -0.56877
 Alpha  occ. eigenvalues --   -0.52062  -0.49445  -0.40799  -0.35163
 Alpha virt. eigenvalues --    0.03472   0.07762   0.12596   0.12726   0.15018
 Alpha virt. eigenvalues --    0.17293   0.18341   0.28425   0.29843   0.33365
 Alpha virt. eigenvalues --    0.34375   0.39107   0.39576   0.42061   0.44231

 Mulliken charges:
               1
     1  C    0.080376
     2  O   -0.488867
     3  H    0.046907
     4  H    0.043780
     5  H    0.066104
     6  H    0.251699
 Sum of Mulliken charges =   0.00000

 Dipole moment (field-independent basis, Debye):
    X=              0.8811    Y=              1.6312    Z=              0.1113  Tot=              1.8573
 Quadrupole moment (field-independent basis, Debye-Ang):
   XX=            -12.8367   YY=            -11.9684   ZZ=            -13.9136
   XY=             -2.4067   XZ=             -0.0207   YZ=              0.0794

 Normal termination of Gaussian 09 at Wed Aug 26 10:21:32 2020.
