 Gaussian 09, Revision D.01,
 Gaussian 09:  ES64L-G09RevD.01 24-Apr-2013

 --------------------
 #p B2PLYPD3/Def2QZVP
 --------------------

 --------
 methanol
 --------
 Symbolic Z-matrix:
 Charge =  0 Multiplicity = 1

                         Standard orientation:
 ---------------------------------------------------------------------
 Center     Atomic      Atomic             Coordinates (Angstroms)
 Number     Number       Type             X           Y           Z
 ---------------------------------------------------------------------
      1          6           0        0.672379    0.046185    0.009937
      2          8           0       -0.734856   -0.147113   -0.013939
      3          1           0        1.009027    0.329982    0.894603
      4          1           0        1.023714    0.695383   -0.752318
      5          1           0        1.074246   -0.964856   -0.157778
      6          1           0       -1.262414    0.839279    0.067384
 ---------------------------------------------------------------------

 SCF Done:  E(RB2PLYPD3) =  -115.523543843     A.U. after   11 cycles
 E2(B2PLYPD3) =    -0.1498362472D+00 E(B2PLYPD3) =    -0.11567338009031D+03

 The electronic state is 1-A.
 Alpha  occ. eigenvalues --  -19.73462 -10.63981  -1.13295  -0.78772  -0.56764
 Alpha  occ. eigenvalues --   -0.53070  -0.48773  -0.39949  -0.35324
 Alpha virt. eigenvalues --    0.03636   0.07731   0.12348   0.12827   0.15044
 Alpha virt. eigenvalues --    0.17003   0.18428   0.28655   0.29856   0.33730
 Alpha virt. eigenvalues --    0.34111   0.38149   0.39526   0.42839   0.44694

 Mulliken charges:
               1
     1  C    0.079032
     2  O   -0.495376
     3  H    0.056790
     4  H    0.047921
     5  H    0.061367
     6  H    0.250266
 Sum of Mulliken charges =   0.00000

 Dipole moment (field-independent basis, Debye):
    X=              0.7871    Y=              1.6394    Z=              0.1904  Tot=              1.8285
 Quadrupole moment (field-independent basis, Debye-Ang):
   XX=            -12.5971   YY=            -12.1445   ZZ=            -13.8184
   XY=             -2.3979   XZ=             -0.1336   YZ=              0.0750

 Normal termination of Gaussian 09 at Wed Aug 26 15:44:42 2020.
