 Gaussian 09, Revision D.01,
 Gaussian 09:  ES64L-G09RevD.01 24-Apr-2013

 --------------------
 #p B2PLYPD3/Def2QZVP
 --------------------

 --------
 methanol
 --------
 Symbolic Z-matrix:
 Charge =  0 Multiplicity = 1

                         Standard orientation:
 ---------------------------------------------------------------------
 Center     Atomic      Atomic             Coordinates (Angstroms)
 Number     Number       Type             X           Y           Z
 ---------------------------------------------------------------------
      1          6           0       -0.673658   -0.006832    0.001826
      2          8           0        0.766106    0.089648   -0.004410
      3          1           0       -1.029795   -0.576067    0.946295
      4          1           0       -1.130418   -0.536284   -0.940056
      5          1           0       -1.063676    1.032605    0.033774
      6          1           0        1.136987   -0.596450   -0.015684
 ---------------------------------------------------------------------

 SCF Done:  E(RB2PLYPD3) =  -115.499657726     A.U. after   10 cycles
 E2(B2PLYPD3) =    -0.1452668393D+00 E(B2PLYPD3) =    -0.11564492456566D+03

 The electronic state is 1-A.
 Alpha  occ. eigenvalues --  -19.70868 -10.68133  -1.20390  -0.79992  -0.60454
 Alpha  occ. eigenvalues --   -0.50613  -0.50015  -0.41165  -0.35822
 Alpha virt. eigenvalues --    0.05385   0.08626   0.11879   0.12176   0.14590
 Alpha virt. eigenvalues --    0.16981   0.18010   0.28824   0.31924   0.33165
 Alpha virt. eigenvalues --    0.36484   0.38456   0.39258   0.39880   0.42316

 Mulliken charges:
               1
     1  C    0.057235
     2  O   -0.339799
     3  H    0.049580
     4  H    0.048857
     5  H    0.083569
     6  H    0.100557
 Sum of Mulliken charges =   0.00000

 Dipole moment (field-independent basis, Debye):
    X=             -0.9374    Y=             -1.2590    Z=             -0.0014  Tot=              1.5696
 Quadrupole moment (field-independent basis, Debye-Ang):
   XX=            -12.9208   YY=            -12.5124   ZZ=            -13.7373
   XY=             -2.0810   XZ=              0.0324   YZ=              0.0155

 Normal termination of Gaussian 09 at Wed Aug 26 12:45:36 2020.
