 Gaussian 09, Revision D.01,
 Gaussian 09:  ES64L-G09RevD.01 24-Apr-2013

 --------------------
 #p B2PLYPD3/Def2QZVP
 --------------------

 --------
 methanol
 --------
 Symbolic Z-matrix:
 Charge =  0 Multiplicity = 1

                         Standard orientation:
 ---------------------------------------------------------------------
 Center     Atomic      Atomic             Coordinates (Angstroms)
 Number     Number       Type             X           Y           Z
 ---------------------------------------------------------------------
      1          6           0       -0.662050   -0.038082   -0.007714
      2          8           0        0.738244    0.097420   -0.017105
      3          1           0       -0.950229   -0.394506    1.025725
      4          1           0       -0.980112   -0.697389   -0.832677
      5          1           0       -1.125117    1.064543   -0.106843
      6          1           0        1.121804   -0.523519    0.096919
 ---------------------------------------------------------------------

 SCF Done:  E(RB2PLYPD3) =  -115.465101115     A.U. after   10 cycles
 E2(B2PLYPD3) =    -0.1440846223D+00 E(B2PLYPD3) =    -0.11560918573736D+03

 The electronic state is 1-A.
 Alpha  occ. eigenvalues --  -19.69856 -10.67732  -1.22614  -0.80884  -0.61274
 Alpha  occ. eigenvalues --   -0.52874  -0.49711  -0.39909  -0.35963
 Alpha virt. eigenvalues --    0.05378   0.09189   0.11896   0.11993   0.14307
 Alpha virt. eigenvalues --    0.16997   0.17844   0.28785   0.32943   0.33238
 Alpha virt. eigenvalues --    0.35736   0.38933   0.40252   0.40734   0.43176

 Mulliken charges:
               1
     1  C    0.058794
     2  O   -0.287920
     3  H    0.049982
     4  H    0.059759
     5  H    0.067005
     6  H    0.052381
 Sum of Mulliken charges =   0.00000

 Dipole moment (field-independent basis, Debye):
    X=             -0.8124    Y=             -1.2968    Z=              0.2211  Tot=              1.5461
 Quadrupole moment (field-independent basis, Debye-Ang):
   XX=            -13.0493   YY=            -12.6321   ZZ=            -13.4587
   XY=             -1.9808   XZ=              0.3890   YZ=             -0.0099

 Normal termination of Gaussian 09 at Wed Aug 26 16:33:01 2020.
