 Gaussian 09, Revision D.01,
 Gaussian 09:  ES64L-G09RevD.01 24-Apr-2013

 --------------------
 #p B2PLYPD3/Def2QZVP
 --------------------

 --------
 methanol
 --------
 Symbolic Z-matrix:
 Charge =  0 Multiplicity = 1

                         Standard orientation:
 ---------------------------------------------------------------------
 Center     Atomic      Atomic             Coordinates (Angstroms)
 Number     Number       Type             X           Y           Z
 ---------------------------------------------------------------------
      1          6           0       -0.673989    0.024696   -0.006484
      2          8           0        0.741651   -0.142010    0.000466
      3          1           0       -1.058759    0.490646   -0.838701
      4          1           0       -0.970238    0.573310    0.852359
      5          1           0       -1.042130   -0.947870    0.051894
      6          1           0        1.181850    0.871822   -0.030374
 ---------------------------------------------------------------------

 SCF Done:  E(RB2PLYPD3) =  -115.530413829     A.U. after   11 cycles
 E2(B2PLYPD3) =    -0.1496291614D+00 E(B2PLYPD3) =    -0.11568004299003D+03

 The electronic state is 1-A.
 Alpha  occ. eigenvalues --  -19.73433 -10.63834  -1.13514  -0.78849  -0.57174
 Alpha  occ. eigenvalues --   -0.52321  -0.49248  -0.40995  -0.35120
 Alpha virt. eigenvalues --    0.03759   0.07923   0.12526   0.12668   0.14977
 Alpha virt. eigenvalues --    0.17132   0.18182   0.28874   0.30308   0.33230
 Alpha virt. eigenvalues --    0.34171   0.39134   0.39702   0.42231   0.44397

 Mulliken charges:
               1
     1  C    0.081483
     2  O   -0.491435
     3  H    0.048589
     4  H    0.044669
     5  H    0.069093
     6  H    0.247602
 Sum of Mulliken charges =   0.00000

 Dipole moment (field-independent basis, Debye):
    X=             -0.9193    Y=              1.6212    Z=             -0.0672  Tot=              1.8649
 Quadrupole moment (field-independent basis, Debye-Ang):
   XX=            -12.9724   YY=            -11.9108   ZZ=            -13.8381
   XY=              2.3524   XZ=              0.0348   YZ=             -0.0737

 Normal termination of Gaussian 09 at Thu Aug 27 00:01:11 2020.
