 Gaussian 09, Revision D.01,
 Gaussian 09:  ES64L-G09RevD.01 24-Apr-2013

 --------------------
 #p B2PLYPD3/Def2QZVP
 --------------------

 --------
 methanol
 --------
 Symbolic Z-matrix:
 Charge =  0 Multiplicity = 1

                         Standard orientation:
 ---------------------------------------------------------------------
 Center     Atomic      Atomic             Coordinates (Angstroms)
 Number     Number       Type             X           Y           Z
 ---------------------------------------------------------------------
      1          6           0        0.627956    0.002623    0.012850
      2          8           0       -0.735454    0.085417   -0.031876
      3          1           0        1.064536   -0.953186   -0.666368
      4          1           0        0.971439   -0.233660    1.002396
      5          1           0        1.154834    1.012974   -0.300626
      6          1           0       -1.074910   -0.525208    0.142509
 ---------------------------------------------------------------------

 SCF Done:  E(RB2PLYPD3) =  -115.437233526     A.U. after   10 cycles
 E2(B2PLYPD3) =    -0.1438985247D+00 E(B2PLYPD3) =    -0.11558113205055D+03

 The electronic state is 1-A.
 Alpha  occ. eigenvalues --  -19.70673 -10.68218  -1.25235  -0.81441  -0.63028
 Alpha  occ. eigenvalues --   -0.51466  -0.51375  -0.40727  -0.35221
 Alpha virt. eigenvalues --    0.05234   0.09083   0.11610   0.12299   0.14933
 Alpha virt. eigenvalues --    0.17050   0.17841   0.28653   0.31790   0.34790
 Alpha virt. eigenvalues --    0.35875   0.36762   0.40354   0.41359   0.43016

 Mulliken charges:
               1
     1  C    0.054971
     2  O   -0.242031
     3  H    0.014825
     4  H    0.050590
     5  H    0.075924
     6  H    0.045722
 Sum of Mulliken charges =   0.00000

 Dipole moment (field-independent basis, Debye):
    X=              0.6770    Y=             -1.1033    Z=              0.5331  Tot=              1.3999
 Quadrupole moment (field-independent basis, Debye-Ang):
   XX=            -13.1041   YY=            -12.5995   ZZ=            -13.8155
   XY=              2.0197   XZ=             -0.3785   YZ=             -0.3635

 Normal termination of Gaussian 09 at Wed Aug 26 23:51:23 2020.
