 Gaussian 09, Revision D.01,
 Gaussian 09:  ES64L-G09RevD.01 24-Apr-2013

 --------------------
 #p B2PLYPD3/Def2QZVP
 --------------------

 --------
 methanol
 --------
 Symbolic Z-matrix:
 Charge =  0 Multiplicity = 1

                         Standard orientation:
 ---------------------------------------------------------------------
 Center     Atomic      Atomic             Coordinates (Angstroms)
 Number     Number       Type             X           Y           Z
 ---------------------------------------------------------------------
      1          6           0        0.664727   -0.011487    0.007725
      2          8           0       -0.741362    0.102443   -0.000674
      3          1           0        0.992732   -0.590396   -0.931526
      4          1           0        0.987601   -0.552646    0.933965
      5          1           0        1.090597    1.004105   -0.036685
      6          1           0       -1.128395   -0.611682   -0.006709
 ---------------------------------------------------------------------

 SCF Done:  E(RB2PLYPD3) =  -115.522486271     A.U. after   10 cycles
 E2(B2PLYPD3) =    -0.1448906792D+00 E(B2PLYPD3) =    -0.11566737695052D+03

 The electronic state is 1-A.
 Alpha  occ. eigenvalues --  -19.70798 -10.67002  -1.19979  -0.79967  -0.60371
 Alpha  occ. eigenvalues --   -0.51727  -0.50775  -0.40744  -0.35379
 Alpha virt. eigenvalues --    0.05382   0.08886   0.12018   0.12358   0.14557
 Alpha virt. eigenvalues --    0.17148   0.17706   0.28991   0.32841   0.33333
 Alpha virt. eigenvalues --    0.37378   0.39518   0.39651   0.40134   0.43225

 Mulliken charges:
               1
     1  C    0.065905
     2  O   -0.369428
     3  H    0.041018
     4  H    0.049325
     5  H    0.080004
     6  H    0.133176
 Sum of Mulliken charges =   0.00000

 Dipole moment (field-independent basis, Debye):
    X=              0.8285    Y=             -1.3099    Z=              0.0143  Tot=              1.5499
 Quadrupole moment (field-independent basis, Debye-Ang):
   XX=            -13.0477   YY=            -12.4391   ZZ=            -13.6478
   XY=              2.1974   XZ=              0.0341   YZ=             -0.0481

 Normal termination of Gaussian 09 at Thu Aug 27 00:10:17 2020.
