 Gaussian 09, Revision D.01,
 Gaussian 09:  ES64L-G09RevD.01 24-Apr-2013

 --------------------
 #p B2PLYPD3/Def2QZVP
 --------------------

 --------
 methanol
 --------
 Symbolic Z-matrix:
 Charge =  0 Multiplicity = 1

                         Standard orientation:
 ---------------------------------------------------------------------
 Center     Atomic      Atomic             Coordinates (Angstroms)
 Number     Number       Type             X           Y           Z
 ---------------------------------------------------------------------
      1          6           0        0.617963    0.048408   -0.030768
      2          8           0       -0.722708   -0.184231    0.012782
      3          1           0        1.048485    0.570023    0.785078
      4          1           0        1.038066    0.447174   -0.724250
      5          1           0        1.167818   -0.898651    0.060499
      6          1           0       -1.180481    1.064859   -0.038975
 ---------------------------------------------------------------------

 SCF Done:  E(RB2PLYPD3) =  -115.441951093     A.U. after   11 cycles
 E2(B2PLYPD3) =    -0.1537912164D+00 E(B2PLYPD3) =    -0.11559574230913D+03

 The electronic state is 1-A.
 Alpha  occ. eigenvalues --  -19.75727 -10.62402  -1.14613  -0.79995  -0.56271
 Alpha  occ. eigenvalues --   -0.52667  -0.50355  -0.38848  -0.35175
 Alpha virt. eigenvalues --   -0.00429   0.07305   0.12616   0.13166   0.15104
 Alpha virt. eigenvalues --    0.18027   0.18775   0.22838   0.29511   0.33858
 Alpha virt. eigenvalues --    0.36197   0.37493   0.39527   0.42388   0.45630

 Mulliken charges:
               1
     1  C    0.079696
     2  O   -0.454317
     3  H    0.031472
     4  H    0.055291
     5  H    0.039448
     6  H    0.248410
 Sum of Mulliken charges =   0.00000

 Dipole moment (field-independent basis, Debye):
    X=              0.8066    Y=              1.8274    Z=             -0.1867  Tot=              2.0062
 Quadrupole moment (field-independent basis, Debye-Ang):
   XX=            -12.9545   YY=            -11.7227   ZZ=            -14.1403
   XY=             -2.3358   XZ=             -0.0365   YZ=             -0.1809

 Normal termination of Gaussian 09 at Wed Aug 26 23:31:12 2020.
