 Gaussian 09, Revision D.01,
 Gaussian 09:  ES64L-G09RevD.01 24-Apr-2013

 --------------------
 #p B2PLYPD3/Def2QZVP
 --------------------

 --------
 methanol
 --------
 Symbolic Z-matrix:
 Charge =  0 Multiplicity = 1

                         Standard orientation:
 ---------------------------------------------------------------------
 Center     Atomic      Atomic             Coordinates (Angstroms)
 Number     Number       Type             X           Y           Z
 ---------------------------------------------------------------------
      1          6           0        0.661807    0.015794    0.006408
      2          8           0       -0.753576   -0.150380   -0.017108
      3          1           0        0.993526    0.420758    0.861148
      4          1           0        1.047785    0.626894   -0.803465
      5          1           0        1.115521   -0.892967   -0.044041
      6          1           0       -1.099062    0.953595    0.084770
 ---------------------------------------------------------------------

 SCF Done:  E(RB2PLYPD3) =  -115.512808839     A.U. after   11 cycles
 E2(B2PLYPD3) =    -0.1509162220D+00 E(B2PLYPD3) =    -0.11566372506136D+03

 The electronic state is 1-A.
 Alpha  occ. eigenvalues --  -19.74256 -10.63493  -1.13269  -0.79224  -0.56315
 Alpha  occ. eigenvalues --   -0.52106  -0.49661  -0.41192  -0.35253
 Alpha virt. eigenvalues --    0.02906   0.07739   0.12550   0.12760   0.14791
 Alpha virt. eigenvalues --    0.17781   0.18332   0.27273   0.29597   0.33419
 Alpha virt. eigenvalues --    0.33910   0.39003   0.40615   0.41707   0.43745

 Mulliken charges:
               1
     1  C    0.090356
     2  O   -0.487583
     3  H    0.043516
     4  H    0.038146
     5  H    0.062489
     6  H    0.253076
 Sum of Mulliken charges =   0.00000

 Dipole moment (field-independent basis, Debye):
    X=              1.0669    Y=              1.6501    Z=              0.2339  Tot=              1.9789
 Quadrupole moment (field-independent basis, Debye-Ang):
   XX=            -13.2526   YY=            -11.7548   ZZ=            -13.8945
   XY=             -2.3399   XZ=             -0.1363   YZ=              0.1435

 Normal termination of Gaussian 09 at Wed Aug 26 11:06:18 2020.
