 Gaussian 09, Revision D.01,
 Gaussian 09:  ES64L-G09RevD.01 24-Apr-2013

 --------------------
 #p B2PLYPD3/Def2QZVP
 --------------------

 --------
 methanol
 --------
 Symbolic Z-matrix:
 Charge =  0 Multiplicity = 1

                         Standard orientation:
 ---------------------------------------------------------------------
 Center     Atomic      Atomic             Coordinates (Angstroms)
 Number     Number       Type             X           Y           Z
 ---------------------------------------------------------------------
      1          6           0        0.668190   -0.015057    0.005676
      2          8           0       -0.748042    0.071860   -0.015871
      3          1           0        1.050900   -0.772357   -0.830632
      4          1           0        1.062566   -0.320848    1.041465
      5          1           0        1.006489    1.087632   -0.226116
      6          1           0       -1.144761   -0.478966    0.108200
 ---------------------------------------------------------------------

 SCF Done:  E(RB2PLYPD3) =  -115.402402192     A.U. after   11 cycles
 E2(B2PLYPD3) =    -0.1440456970D+00 E(B2PLYPD3) =    -0.11554644788851D+03

 The electronic state is 1-A.
 Alpha  occ. eigenvalues --  -19.69447 -10.68994  -1.24075  -0.81782  -0.61434
 Alpha  occ. eigenvalues --   -0.51160  -0.49936  -0.40124  -0.35992
 Alpha virt. eigenvalues --    0.05308   0.09177   0.11695   0.11850   0.14522
 Alpha virt. eigenvalues --    0.16559   0.17869   0.28795   0.32514   0.33017
 Alpha virt. eigenvalues --    0.36281   0.37582   0.38950   0.40521   0.42078

 Mulliken charges:
               1
     1  C    0.047286
     2  O   -0.236898
     3  H    0.049156
     4  H    0.055947
     5  H    0.081896
     6  H    0.002613
 Sum of Mulliken charges =   0.00000

 Dipole moment (field-independent basis, Debye):
    X=              0.8033    Y=             -1.1293    Z=              0.2986  Tot=              1.4177
 Quadrupole moment (field-independent basis, Debye-Ang):
   XX=            -12.9427   YY=            -12.6469   ZZ=            -13.5356
   XY=              1.8104   XZ=             -0.3326   YZ=             -0.1672

 Normal termination of Gaussian 09 at Wed Aug 26 11:07:55 2020.
