 Gaussian 09, Revision D.01,
 Gaussian 09:  ES64L-G09RevD.01 24-Apr-2013

 --------------------
 #p B2PLYPD3/Def2QZVP
 --------------------

 --------
 methanol
 --------
 Symbolic Z-matrix:
 Charge =  0 Multiplicity = 1

                         Standard orientation:
 ---------------------------------------------------------------------
 Center     Atomic      Atomic             Coordinates (Angstroms)
 Number     Number       Type             X           Y           Z
 ---------------------------------------------------------------------
      1          6           0        0.672562   -0.015070    0.017285
      2          8           0       -0.744894    0.101478   -0.019951
      3          1           0        1.097342   -0.660696   -0.843573
      4          1           0        0.949206   -0.427004    0.942849
      5          1           0        1.002252    1.037924   -0.097172
      6          1           0       -1.125024   -0.671628    0.053793
 ---------------------------------------------------------------------

 SCF Done:  E(RB2PLYPD3) =  -115.538976088     A.U. after   10 cycles
 E2(B2PLYPD3) =    -0.1458058009D+00 E(B2PLYPD3) =    -0.11568478188904D+03

 The electronic state is 1-A.
 Alpha  occ. eigenvalues --  -19.71361 -10.66245  -1.18181  -0.79496  -0.60012
 Alpha  occ. eigenvalues --   -0.51928  -0.49542  -0.41220  -0.35514
 Alpha virt. eigenvalues --    0.05311   0.08670   0.12086   0.12287   0.14914
 Alpha virt. eigenvalues --    0.16820   0.17900   0.29114   0.32826   0.33428
 Alpha virt. eigenvalues --    0.37495   0.38446   0.39725   0.40596   0.43879

 Mulliken charges:
               1
     1  C    0.066266
     2  O   -0.415206
     3  H    0.042066
     4  H    0.057498
     5  H    0.075514
     6  H    0.173862
 Sum of Mulliken charges =   0.00000

 Dipole moment (field-independent basis, Debye):
    X=              0.8703    Y=             -1.3943    Z=              0.2317  Tot=              1.6599
 Quadrupole moment (field-independent basis, Debye-Ang):
   XX=            -13.1486   YY=            -12.2514   ZZ=            -13.6663
   XY=              2.0546   XZ=             -0.2035   YZ=             -0.1658

 Normal termination of Gaussian 09 at Wed Aug 26 12:22:46 2020.
