 Gaussian 09, Revision D.01,
 Gaussian 09:  ES64L-G09RevD.01 24-Apr-2013

 --------------------
 #p B2PLYPD3/Def2QZVP
 --------------------

 --------
 methanol
 --------
 Symbolic Z-matrix:
 Charge =  0 Multiplicity = 1

                         Standard orientation:
 ---------------------------------------------------------------------
 Center     Atomic      Atomic             Coordinates (Angstroms)
 Number     Number       Type             X           Y           Z
 ---------------------------------------------------------------------
      1          6           0        0.655313    0.022781    0.004830
      2          8           0       -0.740234   -0.137819   -0.005161
      3          1           0        1.023116    0.480357    0.860743
      4          1           0        0.987395    0.609812   -0.832830
      5          1           0        1.103665   -0.960139   -0.056291
      6          1           0       -1.124185    0.835834    0.040687
 ---------------------------------------------------------------------

 SCF Done:  E(RB2PLYPD3) =  -115.542709309     A.U. after   10 cycles
 E2(B2PLYPD3) =    -0.1484503598D+00 E(B2PLYPD3) =    -0.11569115966869D+03

 The electronic state is 1-A.
 Alpha  occ. eigenvalues --  -19.73298 -10.64455  -1.15235  -0.78528  -0.58090
 Alpha  occ. eigenvalues --   -0.52285  -0.49779  -0.41063  -0.35175
 Alpha virt. eigenvalues --    0.04249   0.08068   0.12480   0.12623   0.14999
 Alpha virt. eigenvalues --    0.17550   0.18061   0.29172   0.31575   0.33304
 Alpha virt. eigenvalues --    0.34688   0.39055   0.39851   0.41909   0.44431

 Mulliken charges:
               1
     1  C    0.078638
     2  O   -0.472298
     3  H    0.045160
     4  H    0.040394
     5  H    0.064454
     6  H    0.243652
 Sum of Mulliken charges =   0.00000

 Dipole moment (field-independent basis, Debye):
    X=              0.8834    Y=              1.6140    Z=              0.1077  Tot=              1.8430
 Quadrupole moment (field-independent basis, Debye-Ang):
   XX=            -13.1255   YY=            -11.9967   ZZ=            -13.8693
   XY=             -2.2920   XZ=             -0.0316   YZ=              0.0780

 Normal termination of Gaussian 09 at Wed Aug 26 23:57:26 2020.
