 Gaussian 09, Revision D.01,
 Gaussian 09:  ES64L-G09RevD.01 24-Apr-2013

 --------------------
 #p B2PLYPD3/Def2QZVP
 --------------------

 --------
 methanol
 --------
 Symbolic Z-matrix:
 Charge =  0 Multiplicity = 1

                         Standard orientation:
 ---------------------------------------------------------------------
 Center     Atomic      Atomic             Coordinates (Angstroms)
 Number     Number       Type             X           Y           Z
 ---------------------------------------------------------------------
      1          6           0        0.659489    0.019167    0.012176
      2          8           0       -0.742353   -0.145741   -0.024227
      3          1           0        0.991659    0.354914    0.880901
      4          1           0        1.054718    0.695172   -0.779213
      5          1           0        1.079344   -0.911121   -0.099833
      6          1           0       -1.143826    0.911958    0.118904
 ---------------------------------------------------------------------

 SCF Done:  E(RB2PLYPD3) =  -115.517264925     A.U. after   11 cycles
 E2(B2PLYPD3) =    -0.1502605937D+00 E(B2PLYPD3) =    -0.11566752551918D+03

 The electronic state is 1-A.
 Alpha  occ. eigenvalues --  -19.73987 -10.63637  -1.13810  -0.78972  -0.56900
 Alpha  occ. eigenvalues --   -0.52072  -0.49785  -0.40942  -0.35135
 Alpha virt. eigenvalues --    0.03217   0.07807   0.12501   0.12785   0.14979
 Alpha virt. eigenvalues --    0.17430   0.18361   0.27948   0.29671   0.33378
 Alpha virt. eigenvalues --    0.34486   0.38723   0.40178   0.41626   0.44486

 Mulliken charges:
               1
     1  C    0.084109
     2  O   -0.484066
     3  H    0.047112
     4  H    0.036001
     5  H    0.064412
     6  H    0.252431
 Sum of Mulliken charges =   0.00000

 Dipole moment (field-independent basis, Debye):
    X=              0.9304    Y=              1.6039    Z=              0.3340  Tot=              1.8841
 Quadrupole moment (field-independent basis, Debye-Ang):
   XX=            -13.1038   YY=            -11.8724   ZZ=            -13.8699
   XY=             -2.3790   XZ=             -0.2025   YZ=              0.2111

 Normal termination of Gaussian 09 at Wed Aug 26 11:19:23 2020.
