 Gaussian 09, Revision D.01,
 Gaussian 09:  ES64L-G09RevD.01 24-Apr-2013

 --------------------
 #p B2PLYPD3/Def2QZVP
 --------------------

 --------
 methanol
 --------
 Symbolic Z-matrix:
 Charge =  0 Multiplicity = 1

                         Standard orientation:
 ---------------------------------------------------------------------
 Center     Atomic      Atomic             Coordinates (Angstroms)
 Number     Number       Type             X           Y           Z
 ---------------------------------------------------------------------
      1          6           0        0.656287   -0.008066   -0.000755
      2          8           0       -0.749257    0.085121    0.005699
      3          1           0        1.010912   -0.646251   -0.908079
      4          1           0        1.133940   -0.469044    0.968020
      5          1           0        1.025400    1.058686   -0.119229
      6          1           0       -1.113919   -0.575962    0.018221
 ---------------------------------------------------------------------

 SCF Done:  E(RB2PLYPD3) =  -115.480772929     A.U. after   10 cycles
 E2(B2PLYPD3) =    -0.1446360758D+00 E(B2PLYPD3) =    -0.11562540900433D+03

 The electronic state is 1-A.
 Alpha  occ. eigenvalues --  -19.70691 -10.68177  -1.22305  -0.80460  -0.61262
 Alpha  occ. eigenvalues --   -0.50976  -0.50372  -0.40929  -0.35685
 Alpha virt. eigenvalues --    0.05368   0.08863   0.11945   0.12032   0.14794
 Alpha virt. eigenvalues --    0.16843   0.17951   0.28806   0.32696   0.33568
 Alpha virt. eigenvalues --    0.36574   0.38537   0.38905   0.40261   0.42299

 Mulliken charges:
               1
     1  C    0.049763
     2  O   -0.294240
     3  H    0.043275
     4  H    0.047217
     5  H    0.079749
     6  H    0.074236
 Sum of Mulliken charges =   0.00000

 Dipole moment (field-independent basis, Debye):
    X=              0.7944    Y=             -1.2405    Z=             -0.0003  Tot=              1.4730
 Quadrupole moment (field-independent basis, Debye-Ang):
   XX=            -13.0514   YY=            -12.5061   ZZ=            -13.7447
   XY=              1.9775   XZ=              0.0334   YZ=             -0.0443

 Normal termination of Gaussian 09 at Wed Aug 26 15:14:26 2020.
