 Gaussian 09, Revision D.01,
 Gaussian 09:  ES64L-G09RevD.01 24-Apr-2013

 --------------------
 #p B2PLYPD3/Def2QZVP
 --------------------

 --------
 methanol
 --------
 Symbolic Z-matrix:
 Charge =  0 Multiplicity = 1

                         Standard orientation:
 ---------------------------------------------------------------------
 Center     Atomic      Atomic             Coordinates (Angstroms)
 Number     Number       Type             X           Y           Z
 ---------------------------------------------------------------------
      1          6           0       -0.667761   -0.013100    0.010941
      2          8           0        0.758123    0.095288   -0.019925
      3          1           0       -1.010255   -0.429067    0.978755
      4          1           0       -1.096645   -0.667274   -0.874772
      5          1           0       -1.073688    1.028614   -0.093649
      6          1           0        1.122164   -0.615973    0.083419
 ---------------------------------------------------------------------

 SCF Done:  E(RB2PLYPD3) =  -115.516890316     A.U. after   10 cycles
 E2(B2PLYPD3) =    -0.1453509616D+00 E(B2PLYPD3) =    -0.11566224127785D+03

 The electronic state is 1-A.
 Alpha  occ. eigenvalues --  -19.71131 -10.67569  -1.19927  -0.79697  -0.60424
 Alpha  occ. eigenvalues --   -0.51087  -0.50004  -0.41108  -0.35780
 Alpha virt. eigenvalues --    0.05374   0.08669   0.11961   0.12198   0.14643
 Alpha virt. eigenvalues --    0.17066   0.18013   0.28880   0.32659   0.33044
 Alpha virt. eigenvalues --    0.36749   0.38737   0.39471   0.40007   0.42715

 Mulliken charges:
               1
     1  C    0.059585
     2  O   -0.362476
     3  H    0.054862
     4  H    0.044310
     5  H    0.077182
     6  H    0.126537
 Sum of Mulliken charges =   0.00000

 Dipole moment (field-independent basis, Debye):
    X=             -0.9032    Y=             -1.2953    Z=              0.2698  Tot=              1.6020
 Quadrupole moment (field-independent basis, Debye-Ang):
   XX=            -13.0261   YY=            -12.4998   ZZ=            -13.6745
   XY=             -2.0786   XZ=              0.2660   YZ=             -0.1705

 Normal termination of Gaussian 09 at Thu Aug 27 00:14:59 2020.
