 Gaussian 09, Revision D.01,
 Gaussian 09:  ES64L-G09RevD.01 24-Apr-2013

 --------------------
 #p B2PLYPD3/Def2QZVP
 --------------------

 --------
 methanol
 --------
 Symbolic Z-matrix:
 Charge =  0 Multiplicity = 1

                         Standard orientation:
 ---------------------------------------------------------------------
 Center     Atomic      Atomic             Coordinates (Angstroms)
 Number     Number       Type             X           Y           Z
 ---------------------------------------------------------------------
      1          6           0       -0.619160   -0.065777   -0.025811
      2          8           0        0.720100    0.163587   -0.001139
      3          1           0       -0.982795   -0.510711    0.866111
      4          1           0       -1.049996   -0.512943   -0.770356
      5          1           0       -1.227608    0.966519    0.053166
      6          1           0        1.214559   -0.856903    0.015053
 ---------------------------------------------------------------------

 SCF Done:  E(RB2PLYPD3) =  -115.505315277     A.U. after   11 cycles
 E2(B2PLYPD3) =    -0.1499043428D+00 E(B2PLYPD3) =    -0.11565521961982D+03

 The electronic state is 1-A.
 Alpha  occ. eigenvalues --  -19.74452 -10.64323  -1.16030  -0.78320  -0.58154
 Alpha  occ. eigenvalues --   -0.53553  -0.49816  -0.38407  -0.35381
 Alpha virt. eigenvalues --    0.03095   0.07358   0.12524   0.12827   0.14893
 Alpha virt. eigenvalues --    0.17938   0.18866   0.27410   0.29374   0.33806
 Alpha virt. eigenvalues --    0.35409   0.36829   0.40554   0.42407   0.45286

 Mulliken charges:
               1
     1  C    0.070647
     2  O   -0.457018
     3  H    0.043255
     4  H    0.053467
     5  H    0.031309
     6  H    0.258339
 Sum of Mulliken charges =   0.00000

 Dipole moment (field-independent basis, Debye):
    X=             -0.5442    Y=             -1.8018    Z=             -0.0266  Tot=              1.8824
 Quadrupole moment (field-independent basis, Debye-Ang):
   XX=            -12.6714   YY=            -12.4235   ZZ=            -13.9519
   XY=             -2.3151   XZ=              0.1383   YZ=              0.1055

 Normal termination of Gaussian 09 at Wed Aug 26 22:32:52 2020.
