 Gaussian 09, Revision D.01,
 Gaussian 09:  ES64L-G09RevD.01 24-Apr-2013

 --------------------
 #p B2PLYPD3/Def2QZVP
 --------------------

 --------
 methanol
 --------
 Symbolic Z-matrix:
 Charge =  0 Multiplicity = 1

                         Standard orientation:
 ---------------------------------------------------------------------
 Center     Atomic      Atomic             Coordinates (Angstroms)
 Number     Number       Type             X           Y           Z
 ---------------------------------------------------------------------
      1          6           0       -0.674947    0.035595    0.002980
      2          8           0        0.745289   -0.165684   -0.005640
      3          1           0       -1.022091    0.503513   -0.793151
      4          1           0       -0.809623    0.569528    0.827111
      5          1           0       -1.165357   -0.918128    0.039134
      6          1           0        1.084440    0.956991   -0.045855
 ---------------------------------------------------------------------

 SCF Done:  E(RB2PLYPD3) =  -115.500939938     A.U. after   11 cycles
 E2(B2PLYPD3) =    -0.1511136224D+00 E(B2PLYPD3) =    -0.11565205356081D+03

 The electronic state is 1-A.
 Alpha  occ. eigenvalues --  -19.73804 -10.62923  -1.12846  -0.79241  -0.56016
 Alpha  occ. eigenvalues --   -0.54414  -0.48417  -0.40899  -0.35140
 Alpha virt. eigenvalues --    0.02774   0.07876   0.12407   0.12627   0.14494
 Alpha virt. eigenvalues --    0.17719   0.18023   0.26996   0.29573   0.32415
 Alpha virt. eigenvalues --    0.33988   0.39169   0.40430   0.42713   0.44166

 Mulliken charges:
               1
     1  C    0.094073
     2  O   -0.493853
     3  H    0.042315
     4  H    0.051769
     5  H    0.059315
     6  H    0.246383
 Sum of Mulliken charges =   0.00000

 Dipole moment (field-independent basis, Debye):
    X=             -1.1439    Y=              1.7489    Z=             -0.0628  Tot=              2.0907
 Quadrupole moment (field-independent basis, Debye-Ang):
   XX=            -13.4435   YY=            -11.6494   ZZ=            -13.7755
   XY=              2.3347   XZ=              0.1331   YZ=             -0.0441

 Normal termination of Gaussian 09 at Wed Aug 26 21:39:01 2020.
