 Gaussian 09, Revision D.01,
 Gaussian 09:  ES64L-G09RevD.01 24-Apr-2013

 --------------------
 #p B2PLYPD3/Def2QZVP
 --------------------

 --------
 methanol
 --------
 Symbolic Z-matrix:
 Charge =  0 Multiplicity = 1

                         Standard orientation:
 ---------------------------------------------------------------------
 Center     Atomic      Atomic             Coordinates (Angstroms)
 Number     Number       Type             X           Y           Z
 ---------------------------------------------------------------------
      1          6           0        0.676199    0.019218   -0.001820
      2          8           0       -0.745640   -0.144374    0.004891
      3          1           0        1.022243    0.547373    0.858254
      4          1           0        1.023103    0.529625   -0.845288
      5          1           0        1.059784   -0.923913   -0.011193
      6          1           0       -1.197204    0.886600   -0.029982
 ---------------------------------------------------------------------

 SCF Done:  E(RB2PLYPD3) =  -115.526465349     A.U. after   11 cycles
 E2(B2PLYPD3) =    -0.1500717358D+00 E(B2PLYPD3) =    -0.11567653708529D+03

 The electronic state is 1-A.
 Alpha  occ. eigenvalues --  -19.73608 -10.63879  -1.13052  -0.78889  -0.56720
 Alpha  occ. eigenvalues --   -0.51848  -0.49578  -0.40985  -0.35054
 Alpha virt. eigenvalues --    0.03508   0.07808   0.12636   0.12648   0.14910
 Alpha virt. eigenvalues --    0.17239   0.18166   0.28551   0.29898   0.33439
 Alpha virt. eigenvalues --    0.33724   0.39083   0.40278   0.41698   0.43980

 Mulliken charges:
               1
     1  C    0.083315
     2  O   -0.497049
     3  H    0.046050
     4  H    0.045578
     5  H    0.071326
     6  H    0.250781
 Sum of Mulliken charges =   0.00000

 Dipole moment (field-independent basis, Debye):
    X=              0.9282    Y=              1.6156    Z=             -0.0793  Tot=              1.8649
 Quadrupole moment (field-independent basis, Debye-Ang):
   XX=            -12.8971   YY=            -11.9044   ZZ=            -13.8819
   XY=             -2.4312   XZ=              0.0392   YZ=             -0.0424

 Normal termination of Gaussian 09 at Thu Aug 27 00:01:15 2020.
