 Gaussian 09, Revision D.01,
 Gaussian 09:  ES64L-G09RevD.01 24-Apr-2013

 --------------------
 #p B2PLYPD3/Def2QZVP
 --------------------

 --------
 methanol
 --------
 Symbolic Z-matrix:
 Charge =  0 Multiplicity = 1

                         Standard orientation:
 ---------------------------------------------------------------------
 Center     Atomic      Atomic             Coordinates (Angstroms)
 Number     Number       Type             X           Y           Z
 ---------------------------------------------------------------------
      1          6           0        0.666189   -0.019312   -0.003886
      2          8           0       -0.747349    0.106969   -0.001847
      3          1           0        1.015477   -0.580298   -0.878698
      4          1           0        1.063562   -0.504990    0.905202
      5          1           0        1.015825    1.046306   -0.024916
      6          1           0       -1.113203   -0.700896    0.036508
 ---------------------------------------------------------------------

 SCF Done:  E(RB2PLYPD3) =  -115.546826947     A.U. after   10 cycles
 E2(B2PLYPD3) =    -0.1462230396D+00 E(B2PLYPD3) =    -0.11569304998695D+03

 The electronic state is 1-A.
 Alpha  occ. eigenvalues --  -19.71849 -10.66248  -1.17866  -0.78991  -0.59891
 Alpha  occ. eigenvalues --   -0.51773  -0.49381  -0.41319  -0.35571
 Alpha virt. eigenvalues --    0.05221   0.08570   0.12088   0.12337   0.15003
 Alpha virt. eigenvalues --    0.16932   0.17999   0.29089   0.33154   0.33603
 Alpha virt. eigenvalues --    0.37606   0.37939   0.39921   0.40646   0.42923

 Mulliken charges:
               1
     1  C    0.063728
     2  O   -0.423494
     3  H    0.051177
     4  H    0.048839
     5  H    0.070925
     6  H    0.188825
 Sum of Mulliken charges =   0.00000

 Dipole moment (field-independent basis, Debye):
    X=              0.8755    Y=             -1.4569    Z=              0.0642  Tot=              1.7009
 Quadrupole moment (field-independent basis, Debye-Ang):
   XX=            -13.1746   YY=            -12.2101   ZZ=            -13.7555
   XY=              2.0432   XZ=             -0.0543   YZ=             -0.0219

 Normal termination of Gaussian 09 at Thu Aug 27 00:13:19 2020.
