 Gaussian 09, Revision D.01,
 Gaussian 09:  ES64L-G09RevD.01 24-Apr-2013

 --------------------
 #p B2PLYPD3/Def2QZVP
 --------------------

 --------
 methanol
 --------
 Symbolic Z-matrix:
 Charge =  0 Multiplicity = 1

                         Standard orientation:
 ---------------------------------------------------------------------
 Center     Atomic      Atomic             Coordinates (Angstroms)
 Number     Number       Type             X           Y           Z
 ---------------------------------------------------------------------
      1          6           0       -0.662846    0.017749   -0.004331
      2          8           0        0.742916   -0.132416   -0.005135
      3          1           0       -1.022391    0.602059   -0.846199
      4          1           0       -1.066276    0.478823    0.893914
      5          1           0       -1.071592   -0.943050   -0.034519
      6          1           0        1.194003    0.815003    0.053869
 ---------------------------------------------------------------------

 SCF Done:  E(RB2PLYPD3) =  -115.543250336     A.U. after   11 cycles
 E2(B2PLYPD3) =    -0.1486552381D+00 E(B2PLYPD3) =    -0.11569190557386D+03

 The electronic state is 1-A.
 Alpha  occ. eigenvalues --  -19.73291 -10.64823  -1.14646  -0.78551  -0.57724
 Alpha  occ. eigenvalues --   -0.51546  -0.50041  -0.40837  -0.35072
 Alpha virt. eigenvalues --    0.04295   0.07892   0.12535   0.12656   0.15006
 Alpha virt. eigenvalues --    0.17246   0.18278   0.29122   0.31781   0.33375
 Alpha virt. eigenvalues --    0.34242   0.38948   0.39950   0.41172   0.43742

 Mulliken charges:
               1
     1  C    0.072755
     2  O   -0.479499
     3  H    0.044979
     4  H    0.043258
     5  H    0.071634
     6  H    0.246873
 Sum of Mulliken charges =   0.00000

 Dipole moment (field-independent basis, Debye):
    X=             -0.8036    Y=              1.5421    Z=              0.0993  Tot=              1.7417
 Quadrupole moment (field-independent basis, Debye-Ang):
   XX=            -12.8006   YY=            -12.1393   ZZ=            -13.9114
   XY=              2.4053   XZ=              0.0986   YZ=              0.0409

 Normal termination of Gaussian 09 at Wed Aug 26 23:59:43 2020.
