 Gaussian 09, Revision D.01,
 Gaussian 09:  ES64L-G09RevD.01 24-Apr-2013

 --------------------
 #p B2PLYPD3/Def2QZVP
 --------------------

 --------
 methanol
 --------
 Symbolic Z-matrix:
 Charge =  0 Multiplicity = 1

                         Standard orientation:
 ---------------------------------------------------------------------
 Center     Atomic      Atomic             Coordinates (Angstroms)
 Number     Number       Type             X           Y           Z
 ---------------------------------------------------------------------
      1          6           0        0.663244   -0.010361    0.001654
      2          8           0       -0.748908    0.093904   -0.006908
      3          1           0        1.050198   -0.668100   -0.874814
      4          1           0        1.054156   -0.424145    0.999968
      5          1           0        1.045610    1.012684   -0.125563
      6          1           0       -1.138168   -0.609500    0.045749
 ---------------------------------------------------------------------

 SCF Done:  E(RB2PLYPD3) =  -115.517584716     A.U. after   10 cycles
 E2(B2PLYPD3) =    -0.1451104421D+00 E(B2PLYPD3) =    -0.11566269515791D+03

 The electronic state is 1-A.
 Alpha  occ. eigenvalues --  -19.71038 -10.67458  -1.20147  -0.79977  -0.60459
 Alpha  occ. eigenvalues --   -0.51066  -0.50579  -0.40832  -0.35592
 Alpha virt. eigenvalues --    0.05400   0.08736   0.11966   0.12324   0.14664
 Alpha virt. eigenvalues --    0.16953   0.18036   0.28898   0.33004   0.33294
 Alpha virt. eigenvalues --    0.36820   0.39181   0.39721   0.39812   0.42658

 Mulliken charges:
               1
     1  C    0.057927
     2  O   -0.358597
     3  H    0.044224
     4  H    0.048732
     5  H    0.080415
     6  H    0.127299
 Sum of Mulliken charges =   0.00000

 Dipole moment (field-independent basis, Debye):
    X=              0.8136    Y=             -1.2721    Z=              0.1009  Tot=              1.5134
 Quadrupole moment (field-independent basis, Debye-Ang):
   XX=            -12.9693   YY=            -12.5155   ZZ=            -13.6844
   XY=              2.1130   XZ=             -0.1534   YZ=             -0.0845

 Normal termination of Gaussian 09 at Thu Aug 27 00:00:12 2020.
