 Gaussian 09, Revision D.01,
 Gaussian 09:  ES64L-G09RevD.01 24-Apr-2013

 --------------------
 #p B2PLYPD3/Def2QZVP
 --------------------

 --------
 methanol
 --------
 Symbolic Z-matrix:
 Charge =  0 Multiplicity = 1

                         Standard orientation:
 ---------------------------------------------------------------------
 Center     Atomic      Atomic             Coordinates (Angstroms)
 Number     Number       Type             X           Y           Z
 ---------------------------------------------------------------------
      1          6           0       -0.653705    0.019968    0.012271
      2          8           0        0.738729   -0.206638   -0.006906
      3          1           0       -1.093218    0.534789   -0.698917
      4          1           0       -0.858568    0.544779    0.745535
      5          1           0       -1.200835   -0.770667   -0.017200
      6          1           0        1.165015    1.224397   -0.047796
 ---------------------------------------------------------------------

 SCF Done:  E(RB2PLYPD3) =  -115.389650863     A.U. after   12 cycles
 E2(B2PLYPD3) =    -0.1575144033D+00 E(B2PLYPD3) =    -0.11554716526612D+03

 The electronic state is 1-A.
 Alpha  occ. eigenvalues --  -19.75913 -10.60518  -1.11982  -0.81741  -0.55858
 Alpha  occ. eigenvalues --   -0.52666  -0.49319  -0.39097  -0.35056
 Alpha virt. eigenvalues --   -0.03561   0.07362   0.12630   0.13218   0.14490
 Alpha virt. eigenvalues --    0.18023   0.18696   0.21641   0.29913   0.32594
 Alpha virt. eigenvalues --    0.34684   0.38540   0.40001   0.43574   0.44622

 Mulliken charges:
               1
     1  C    0.120124
     2  O   -0.467669
     3  H    0.026001
     4  H    0.045440
     5  H    0.049554
     6  H    0.226550
 Sum of Mulliken charges =   0.00000

 Dipole moment (field-independent basis, Debye):
    X=             -1.2048    Y=              1.8383    Z=             -0.0291  Tot=              2.1981
 Quadrupole moment (field-independent basis, Debye-Ang):
   XX=            -13.0782   YY=            -11.1079   ZZ=            -14.1451
   XY=              2.4297   XZ=              0.0992   YZ=              0.0407

 Normal termination of Gaussian 09 at Wed Aug 26 21:59:54 2020.
