 Gaussian 09, Revision D.01,
 Gaussian 09:  ES64L-G09RevD.01 24-Apr-2013

 --------------------
 #p B2PLYPD3/Def2QZVP
 --------------------

 --------
 methanol
 --------
 Symbolic Z-matrix:
 Charge =  0 Multiplicity = 1

                         Standard orientation:
 ---------------------------------------------------------------------
 Center     Atomic      Atomic             Coordinates (Angstroms)
 Number     Number       Type             X           Y           Z
 ---------------------------------------------------------------------
      1          6           0        0.661944    0.027839   -0.014345
      2          8           0       -0.746580   -0.165010    0.003764
      3          1           0        0.996785    0.538552    0.854783
      4          1           0        1.049075    0.512597   -0.792959
      5          1           0        1.155689   -0.869323    0.022177
      6          1           0       -1.200573    0.971218   -0.028040
 ---------------------------------------------------------------------

 SCF Done:  E(RB2PLYPD3) =  -115.497557732     A.U. after   11 cycles
 E2(B2PLYPD3) =    -0.1519183564D+00 E(B2PLYPD3) =    -0.11564947608830D+03

 The electronic state is 1-A.
 Alpha  occ. eigenvalues --  -19.74570 -10.63153  -1.12609  -0.79356  -0.55585
 Alpha  occ. eigenvalues --   -0.52121  -0.49751  -0.40402  -0.35158
 Alpha virt. eigenvalues --    0.01935   0.07532   0.12722   0.12878   0.14756
 Alpha virt. eigenvalues --    0.17891   0.18432   0.25612   0.29577   0.33310
 Alpha virt. eigenvalues --    0.34283   0.39275   0.40167   0.41922   0.43974

 Mulliken charges:
               1
     1  C    0.092543
     2  O   -0.491595
     3  H    0.040070
     4  H    0.044267
     5  H    0.059070
     6  H    0.255645
 Sum of Mulliken charges =   0.00000

 Dipole moment (field-independent basis, Debye):
    X=              0.9490    Y=              1.7017    Z=             -0.0921  Tot=              1.9506
 Quadrupole moment (field-independent basis, Debye-Ang):
   XX=            -12.7963   YY=            -11.8650   ZZ=            -13.9620
   XY=             -2.5344   XZ=             -0.0350   YZ=             -0.1036

 Normal termination of Gaussian 09 at Wed Aug 26 11:41:08 2020.
