 Gaussian 09, Revision D.01,
 Gaussian 09:  ES64L-G09RevD.01 24-Apr-2013

 --------------------
 #p B2PLYPD3/Def2QZVP
 --------------------

 --------
 methanol
 --------
 Symbolic Z-matrix:
 Charge =  0 Multiplicity = 1

                         Standard orientation:
 ---------------------------------------------------------------------
 Center     Atomic      Atomic             Coordinates (Angstroms)
 Number     Number       Type             X           Y           Z
 ---------------------------------------------------------------------
      1          6           0        0.657037   -0.008965    0.003078
      2          8           0       -0.744556    0.099526   -0.005495
      3          1           0        1.012919   -0.671834   -0.864477
      4          1           0        1.033167   -0.433241    0.975009
      5          1           0        1.048285    1.009197   -0.126114
      6          1           0       -1.080146   -0.646541    0.041074
 ---------------------------------------------------------------------

 SCF Done:  E(RB2PLYPD3) =  -115.526632477     A.U. after   10 cycles
 E2(B2PLYPD3) =    -0.1450629994D+00 E(B2PLYPD3) =    -0.11567169547606D+03

 The electronic state is 1-A.
 Alpha  occ. eigenvalues --  -19.71222 -10.66836  -1.20323  -0.79638  -0.60566
 Alpha  occ. eigenvalues --   -0.51573  -0.50623  -0.41366  -0.35515
 Alpha virt. eigenvalues --    0.05351   0.08866   0.12043   0.12312   0.14767
 Alpha virt. eigenvalues --    0.17118   0.17862   0.28918   0.32951   0.33681
 Alpha virt. eigenvalues --    0.37271   0.39330   0.39701   0.40313   0.43193

 Mulliken charges:
               1
     1  C    0.061421
     2  O   -0.366081
     3  H    0.040613
     4  H    0.047727
     5  H    0.076679
     6  H    0.139642
 Sum of Mulliken charges =   0.00000

 Dipole moment (field-independent basis, Debye):
    X=              0.8651    Y=             -1.3300    Z=              0.0977  Tot=              1.5896
 Quadrupole moment (field-independent basis, Debye-Ang):
   XX=            -13.2536   YY=            -12.3380   ZZ=            -13.6791
   XY=              2.0834   XZ=             -0.1013   YZ=             -0.0921

 Normal termination of Gaussian 09 at Wed Aug 26 11:51:33 2020.
