 Gaussian 09, Revision D.01,
 Gaussian 09:  ES64L-G09RevD.01 24-Apr-2013

 --------------------
 #p B2PLYPD3/Def2QZVP
 --------------------

 --------
 methanol
 --------
 Symbolic Z-matrix:
 Charge =  0 Multiplicity = 1

                         Standard orientation:
 ---------------------------------------------------------------------
 Center     Atomic      Atomic             Coordinates (Angstroms)
 Number     Number       Type             X           Y           Z
 ---------------------------------------------------------------------
      1          6           0        0.660253   -0.026024    0.000292
      2          8           0       -0.740702    0.127390   -0.005837
      3          1           0        0.990743   -0.606437   -0.834598
      4          1           0        1.028488   -0.472293    0.873311
      5          1           0        1.058658    1.005701   -0.046085
      6          1           0       -1.113789   -0.789945    0.052321
 ---------------------------------------------------------------------

 SCF Done:  E(RB2PLYPD3) =  -115.549115375     A.U. after   10 cycles
 E2(B2PLYPD3) =    -0.1475880061D+00 E(B2PLYPD3) =    -0.11569670338084D+03

 The electronic state is 1-A.
 Alpha  occ. eigenvalues --  -19.72770 -10.64859  -1.15974  -0.78640  -0.58840
 Alpha  occ. eigenvalues --   -0.52483  -0.49317  -0.41200  -0.35361
 Alpha virt. eigenvalues --    0.04716   0.08296   0.12257   0.12573   0.15073
 Alpha virt. eigenvalues --    0.17229   0.18033   0.29183   0.33164   0.33511
 Alpha virt. eigenvalues --    0.34969   0.38308   0.39972   0.41923   0.44497

 Mulliken charges:
               1
     1  C    0.074214
     2  O   -0.462331
     3  H    0.045895
     4  H    0.047449
     5  H    0.064788
     6  H    0.229986
 Sum of Mulliken charges =   0.00000

 Dipole moment (field-independent basis, Debye):
    X=              0.8875    Y=             -1.5827    Z=              0.1227  Tot=              1.8187
 Quadrupole moment (field-independent basis, Debye-Ang):
   XX=            -13.1954   YY=            -12.0357   ZZ=            -13.8011
   XY=              2.1591   XZ=             -0.0648   YZ=             -0.0624

 Normal termination of Gaussian 09 at Thu Aug 27 00:04:50 2020.
