 Gaussian 09, Revision D.01,
 Gaussian 09:  ES64L-G09RevD.01 24-Apr-2013

 --------------------
 #p B2PLYPD3/Def2QZVP
 --------------------

 --------
 methanol
 --------
 Symbolic Z-matrix:
 Charge =  0 Multiplicity = 1

                         Standard orientation:
 ---------------------------------------------------------------------
 Center     Atomic      Atomic             Coordinates (Angstroms)
 Number     Number       Type             X           Y           Z
 ---------------------------------------------------------------------
      1          6           0       -0.677919    0.012553   -0.033377
      2          8           0        0.767607   -0.176047    0.012125
      3          1           0       -1.030090    0.527488   -0.758729
      4          1           0       -1.217165    0.474018    0.835147
      5          1           0       -1.043416   -0.817809    0.003516
      6          1           0        1.217327    1.149357    0.023328
 ---------------------------------------------------------------------

 SCF Done:  E(RB2PLYPD3) =  -115.416315780     A.U. after   11 cycles
 E2(B2PLYPD3) =    -0.1568611876D+00 E(B2PLYPD3) =    -0.11557317696757D+03

 The electronic state is 1-A.
 Alpha  occ. eigenvalues --  -19.75966 -10.62384  -1.10741  -0.81097  -0.56312
 Alpha  occ. eigenvalues --   -0.50250  -0.48533  -0.40430  -0.35233
 Alpha virt. eigenvalues --   -0.01348   0.07112   0.12620   0.12961   0.14696
 Alpha virt. eigenvalues --    0.17393   0.18786   0.22191   0.29131   0.32691
 Alpha virt. eigenvalues --    0.33431   0.37556   0.39593   0.41250   0.44742

 Mulliken charges:
               1
     1  C    0.077586
     2  O   -0.484489
     3  H    0.049775
     4  H    0.031502
     5  H    0.083878
     6  H    0.241748
 Sum of Mulliken charges =   0.00000

 Dipole moment (field-independent basis, Debye):
    X=             -1.1374    Y=              1.6780    Z=             -0.1175  Tot=              2.0305
 Quadrupole moment (field-independent basis, Debye-Ang):
   XX=            -12.8911   YY=            -11.3831   ZZ=            -14.2185
   XY=              2.5058   XZ=              0.0581   YZ=             -0.1568

 Normal termination of Gaussian 09 at Wed Aug 26 22:40:05 2020.
