 Gaussian 09, Revision D.01,
 Gaussian 09:  ES64L-G09RevD.01 24-Apr-2013

 --------------------
 #p B2PLYPD3/Def2QZVP
 --------------------

 --------
 methanol
 --------
 Symbolic Z-matrix:
 Charge =  0 Multiplicity = 1

                         Standard orientation:
 ---------------------------------------------------------------------
 Center     Atomic      Atomic             Coordinates (Angstroms)
 Number     Number       Type             X           Y           Z
 ---------------------------------------------------------------------
      1          6           0        0.681725    0.050773   -0.033379
      2          8           0       -0.735798   -0.180870    0.007849
      3          1           0        1.010830    0.409052    0.890348
      4          1           0        0.766661    0.632513   -0.727655
      5          1           0        1.215147   -0.850085   -0.078598
      6          1           0       -1.196600    0.950841    0.053389
 ---------------------------------------------------------------------

 SCF Done:  E(RB2PLYPD3) =  -115.472842720     A.U. after   11 cycles
 E2(B2PLYPD3) =    -0.1518752458D+00 E(B2PLYPD3) =    -0.11562471796616D+03

 The electronic state is 1-A.
 Alpha  occ. eigenvalues --  -19.73781 -10.62347  -1.12102  -0.79631  -0.57320
 Alpha  occ. eigenvalues --   -0.53155  -0.48741  -0.40019  -0.34852
 Alpha virt. eigenvalues --    0.02086   0.07667   0.12343   0.12922   0.14371
 Alpha virt. eigenvalues --    0.17551   0.18390   0.25858   0.29424   0.32199
 Alpha virt. eigenvalues --    0.33258   0.39730   0.40933   0.42045   0.44430

 Mulliken charges:
               1
     1  C    0.079446
     2  O   -0.506206
     3  H    0.045300
     4  H    0.070872
     5  H    0.062677
     6  H    0.247912
 Sum of Mulliken charges =   0.00000

 Dipole moment (field-independent basis, Debye):
    X=              1.0390    Y=              1.7360    Z=              0.0227  Tot=              2.0233
 Quadrupole moment (field-independent basis, Debye-Ang):
   XX=            -12.9419   YY=            -11.8229   ZZ=            -13.7625
   XY=             -2.6667   XZ=              0.0513   YZ=             -0.1259

 Normal termination of Gaussian 09 at Wed Aug 26 22:01:51 2020.
