 Gaussian 09, Revision D.01,
 Gaussian 09:  ES64L-G09RevD.01 24-Apr-2013

 --------------------
 #p B2PLYPD3/Def2QZVP
 --------------------

 --------
 methanol
 --------
 Symbolic Z-matrix:
 Charge =  0 Multiplicity = 1

                         Standard orientation:
 ---------------------------------------------------------------------
 Center     Atomic      Atomic             Coordinates (Angstroms)
 Number     Number       Type             X           Y           Z
 ---------------------------------------------------------------------
      1          6           0        0.665495    0.034404    0.002130
      2          8           0       -0.746698   -0.145115   -0.001612
      3          1           0        1.016800    0.513814    0.852653
      4          1           0        1.009897    0.553911   -0.842994
      5          1           0        1.145783   -0.950111   -0.019312
      6          1           0       -1.191863    0.836883    0.009772
 ---------------------------------------------------------------------

 SCF Done:  E(RB2PLYPD3) =  -115.537146369     A.U. after   11 cycles
 E2(B2PLYPD3) =    -0.1491738458D+00 E(B2PLYPD3) =    -0.11568632021465D+03

 The electronic state is 1-A.
 Alpha  occ. eigenvalues --  -19.73469 -10.64452  -1.13971  -0.78698  -0.57099
 Alpha  occ. eigenvalues --   -0.52443  -0.49350  -0.40554  -0.35371
 Alpha virt. eigenvalues --    0.04050   0.07784   0.12553   0.12653   0.14843
 Alpha virt. eigenvalues --    0.17580   0.18243   0.29036   0.30728   0.33558
 Alpha virt. eigenvalues --    0.33794   0.38765   0.39984   0.42209   0.43964

 Mulliken charges:
               1
     1  C    0.080365
     2  O   -0.488144
     3  H    0.049335
     4  H    0.047735
     5  H    0.061875
     6  H    0.248834
 Sum of Mulliken charges =   0.00000

 Dipole moment (field-independent basis, Debye):
    X=              0.8786    Y=              1.6467    Z=              0.0282  Tot=              1.8666
 Quadrupole moment (field-independent basis, Debye-Ang):
   XX=            -12.7923   YY=            -12.1391   ZZ=            -13.8555
   XY=             -2.4016   XZ=             -0.0101   YZ=              0.0198

 Normal termination of Gaussian 09 at Wed Aug 26 14:00:35 2020.
