 Gaussian 09, Revision D.01,
 Gaussian 09:  ES64L-G09RevD.01 24-Apr-2013

 --------------------
 #p B2PLYPD3/Def2QZVP
 --------------------

 --------
 methanol
 --------
 Symbolic Z-matrix:
 Charge =  0 Multiplicity = 1

                         Standard orientation:
 ---------------------------------------------------------------------
 Center     Atomic      Atomic             Coordinates (Angstroms)
 Number     Number       Type             X           Y           Z
 ---------------------------------------------------------------------
      1          6           0        0.670452   -0.011744   -0.006496
      2          8           0       -0.747769    0.112695    0.001569
      3          1           0        1.000270   -0.564179   -0.897126
      4          1           0        0.985455   -0.544708    0.938991
      5          1           0        1.080909    0.973488   -0.004360
      6          1           0       -1.107194   -0.695692   -0.011080
 ---------------------------------------------------------------------

 SCF Done:  E(RB2PLYPD3) =  -115.546533559     A.U. after   10 cycles
 E2(B2PLYPD3) =    -0.1460042183D+00 E(B2PLYPD3) =    -0.11569253777694D+03

 The electronic state is 1-A.
 Alpha  occ. eigenvalues --  -19.71611 -10.66052  -1.17717  -0.79278  -0.59303
 Alpha  occ. eigenvalues --   -0.51750  -0.50591  -0.41301  -0.35337
 Alpha virt. eigenvalues --    0.05241   0.08632   0.12098   0.12507   0.14601
 Alpha virt. eigenvalues --    0.17281   0.17834   0.29100   0.32876   0.33221
 Alpha virt. eigenvalues --    0.36733   0.39383   0.40224   0.40465   0.43995

 Mulliken charges:
               1
     1  C    0.070933
     2  O   -0.429552
     3  H    0.048449
     4  H    0.044186
     5  H    0.077307
     6  H    0.188677
 Sum of Mulliken charges =   0.00000

 Dipole moment (field-independent basis, Debye):
    X=              0.9325    Y=             -1.4039    Z=             -0.0526  Tot=              1.6862
 Quadrupole moment (field-independent basis, Debye-Ang):
   XX=            -13.1792   YY=            -12.2667   ZZ=            -13.6598
   XY=              2.2448   XZ=             -0.0265   YZ=              0.0555

 Normal termination of Gaussian 09 at Thu Aug 27 00:01:15 2020.
