 Gaussian 09, Revision D.01,
 Gaussian 09:  ES64L-G09RevD.01 24-Apr-2013

 --------------------
 #p B2PLYPD3/Def2QZVP
 --------------------

 --------
 methanol
 --------
 Symbolic Z-matrix:
 Charge =  0 Multiplicity = 1

                         Standard orientation:
 ---------------------------------------------------------------------
 Center     Atomic      Atomic             Coordinates (Angstroms)
 Number     Number       Type             X           Y           Z
 ---------------------------------------------------------------------
      1          6           0        0.663990    0.020894    0.010821
      2          8           0       -0.749235   -0.137707   -0.009722
      3          1           0        0.975714    0.497191    0.871908
      4          1           0        1.046069    0.564804   -0.861369
      5          1           0        1.105328   -0.936029   -0.021813
      6          1           0       -1.117173    0.850322    0.024127
 ---------------------------------------------------------------------

 SCF Done:  E(RB2PLYPD3) =  -115.540709551     A.U. after   11 cycles
 E2(B2PLYPD3) =    -0.1488378271D+00 E(B2PLYPD3) =    -0.11568954737824D+03

 The electronic state is 1-A.
 Alpha  occ. eigenvalues --  -19.73359 -10.64466  -1.14560  -0.78722  -0.57443
 Alpha  occ. eigenvalues --   -0.52218  -0.49743  -0.41196  -0.35294
 Alpha virt. eigenvalues --    0.04230   0.07998   0.12465   0.12617   0.14789
 Alpha virt. eigenvalues --    0.17602   0.18164   0.29074   0.31308   0.33349
 Alpha virt. eigenvalues --    0.33956   0.39065   0.40329   0.41584   0.44084

 Mulliken charges:
               1
     1  C    0.078754
     2  O   -0.479685
     3  H    0.048403
     4  H    0.041588
     5  H    0.066419
     6  H    0.244520
 Sum of Mulliken charges =   0.00000

 Dipole moment (field-independent basis, Debye):
    X=              0.9694    Y=              1.5891    Z=              0.1105  Tot=              1.8647
 Quadrupole moment (field-independent basis, Debye-Ang):
   XX=            -13.1595   YY=            -12.0167   ZZ=            -13.8029
   XY=             -2.3316   XZ=             -0.0661   YZ=              0.0909

 Normal termination of Gaussian 09 at Wed Aug 26 09:51:16 2020.
