 Gaussian 09, Revision D.01,
 Gaussian 09:  ES64L-G09RevD.01 24-Apr-2013

 --------------------
 #p B2PLYPD3/Def2QZVP
 --------------------

 --------
 methanol
 --------
 Symbolic Z-matrix:
 Charge =  0 Multiplicity = 1

                         Standard orientation:
 ---------------------------------------------------------------------
 Center     Atomic      Atomic             Coordinates (Angstroms)
 Number     Number       Type             X           Y           Z
 ---------------------------------------------------------------------
      1          6           0        0.679650   -0.009144   -0.000418
      2          8           0       -0.754943    0.097377   -0.010939
      3          1           0        1.030058   -0.692041   -0.852742
      4          1           0        1.028210   -0.426342    0.987838
      5          1           0        1.050533    1.014181   -0.115302
      6          1           0       -1.147155   -0.619951    0.070231
 ---------------------------------------------------------------------

 SCF Done:  E(RB2PLYPD3) =  -115.526063127     A.U. after   10 cycles
 E2(B2PLYPD3) =    -0.1454074047D+00 E(B2PLYPD3) =    -0.11567147053151D+03

 The electronic state is 1-A.
 Alpha  occ. eigenvalues --  -19.70876 -10.67196  -1.18830  -0.79822  -0.59867
 Alpha  occ. eigenvalues --   -0.51077  -0.50297  -0.41048  -0.35541
 Alpha virt. eigenvalues --    0.05386   0.08707   0.12003   0.12277   0.14604
 Alpha virt. eigenvalues --    0.16920   0.17824   0.29040   0.32337   0.33081
 Alpha virt. eigenvalues --    0.37426   0.39263   0.39603   0.39811   0.42703

 Mulliken charges:
               1
     1  C    0.066865
     2  O   -0.389490
     3  H    0.048386
     4  H    0.050963
     5  H    0.082773
     6  H    0.140503
 Sum of Mulliken charges =   0.00000

 Dipole moment (field-independent basis, Debye):
    X=              0.9181    Y=             -1.3116    Z=              0.1665  Tot=              1.6096
 Quadrupole moment (field-independent basis, Debye-Ang):
   XX=            -12.9870   YY=            -12.3865   ZZ=            -13.6746
   XY=              2.1329   XZ=             -0.2160   YZ=             -0.1008

 Normal termination of Gaussian 09 at Thu Aug 27 00:00:20 2020.
