 Gaussian 09, Revision D.01,
 Gaussian 09:  ES64L-G09RevD.01 24-Apr-2013

 --------------------
 #p B2PLYPD3/Def2QZVP
 --------------------

 --------
 methanol
 --------
 Symbolic Z-matrix:
 Charge =  0 Multiplicity = 1

                         Standard orientation:
 ---------------------------------------------------------------------
 Center     Atomic      Atomic             Coordinates (Angstroms)
 Number     Number       Type             X           Y           Z
 ---------------------------------------------------------------------
      1          6           0        0.670766    0.010967    0.003512
      2          8           0       -0.754721   -0.128270   -0.004459
      3          1           0        1.059865    0.492229    0.878864
      4          1           0        1.017674    0.593402   -0.863734
      5          1           0        1.069378   -0.946939   -0.042728
      6          1           0       -1.133740    0.821662    0.042196
 ---------------------------------------------------------------------

 SCF Done:  E(RB2PLYPD3) =  -115.546115149     A.U. after   10 cycles
 E2(B2PLYPD3) =    -0.1484675328D+00 E(B2PLYPD3) =    -0.11569458268130D+03

 The electronic state is 1-A.
 Alpha  occ. eigenvalues --  -19.73136 -10.64943  -1.14640  -0.78802  -0.57775
 Alpha  occ. eigenvalues --   -0.51366  -0.49916  -0.41542  -0.35228
 Alpha virt. eigenvalues --    0.04511   0.08020   0.12448   0.12560   0.14896
 Alpha virt. eigenvalues --    0.17353   0.18117   0.29141   0.32458   0.33252
 Alpha virt. eigenvalues --    0.33802   0.38917   0.40180   0.40932   0.44045

 Mulliken charges:
               1
     1  C    0.075716
     2  O   -0.477803
     3  H    0.046635
     4  H    0.042854
     5  H    0.073086
     6  H    0.239513
 Sum of Mulliken charges =   0.00000

 Dipole moment (field-independent basis, Debye):
    X=              0.9633    Y=              1.5401    Z=              0.1006  Tot=              1.8193
 Quadrupole moment (field-independent basis, Debye-Ang):
   XX=            -13.0749   YY=            -12.0239   ZZ=            -13.8699
   XY=             -2.3097   XZ=             -0.0382   YZ=              0.0793

 Normal termination of Gaussian 09 at Thu Aug 27 00:05:30 2020.
