 Gaussian 09, Revision D.01,
 Gaussian 09:  ES64L-G09RevD.01 24-Apr-2013

 --------------------
 #p B2PLYPD3/Def2QZVP
 --------------------

 --------
 methanol
 --------
 Symbolic Z-matrix:
 Charge =  0 Multiplicity = 1

                         Standard orientation:
 ---------------------------------------------------------------------
 Center     Atomic      Atomic             Coordinates (Angstroms)
 Number     Number       Type             X           Y           Z
 ---------------------------------------------------------------------
      1          6           0       -0.637245   -0.002754    0.004698
      2          8           0        0.717294   -0.196450    0.001388
      3          1           0       -1.048066    0.533039   -0.788663
      4          1           0       -0.956885    0.562178    0.821195
      5          1           0       -1.145056   -0.674138   -0.024335
      6          1           0        1.235127    1.167042   -0.047484
 ---------------------------------------------------------------------

 SCF Done:  E(RB2PLYPD3) =  -115.378448251     A.U. after   11 cycles
 E2(B2PLYPD3) =    -0.1560532500D+00 E(B2PLYPD3) =    -0.11553450150091D+03

 The electronic state is 1-A.
 Alpha  occ. eigenvalues --  -19.75620 -10.60895  -1.13492  -0.81555  -0.55383
 Alpha  occ. eigenvalues --   -0.52373  -0.51173  -0.38836  -0.34362
 Alpha virt. eigenvalues --   -0.03128   0.07425   0.12936   0.13171   0.14789
 Alpha virt. eigenvalues --    0.18240   0.18765   0.21877   0.29757   0.32914
 Alpha virt. eigenvalues --    0.35415   0.38656   0.40538   0.42209   0.45277

 Mulliken charges:
               1
     1  C    0.037355
     2  O   -0.462932
     3  H    0.027166
     4  H    0.033327
     5  H    0.118382
     6  H    0.246702
 Sum of Mulliken charges =   0.00000

 Dipole moment (field-independent basis, Debye):
    X=             -0.8764    Y=              1.7061    Z=             -0.0825  Tot=              1.9198
 Quadrupole moment (field-independent basis, Debye-Ang):
   XX=            -12.7645   YY=            -11.3897   ZZ=            -14.1029
   XY=              2.7994   XZ=              0.0214   YZ=             -0.0196

 Normal termination of Gaussian 09 at Wed Aug 26 18:59:35 2020.
