 Gaussian 09, Revision D.01,
 Gaussian 09:  ES64L-G09RevD.01 24-Apr-2013

 --------------------
 #p B2PLYPD3/Def2QZVP
 --------------------

 --------
 methanol
 --------
 Symbolic Z-matrix:
 Charge =  0 Multiplicity = 1

                         Standard orientation:
 ---------------------------------------------------------------------
 Center     Atomic      Atomic             Coordinates (Angstroms)
 Number     Number       Type             X           Y           Z
 ---------------------------------------------------------------------
      1          6           0        0.673069    0.025376    0.004621
      2          8           0       -0.749205   -0.145138   -0.002342
      3          1           0        1.009943    0.493454    0.870154
      4          1           0        1.033693    0.539214   -0.851913
      5          1           0        1.069792   -0.922677   -0.028019
      6          1           0       -1.158201    0.898856    0.000786
 ---------------------------------------------------------------------

 SCF Done:  E(RB2PLYPD3) =  -115.527509913     A.U. after   11 cycles
 E2(B2PLYPD3) =    -0.1501105359D+00 E(B2PLYPD3) =    -0.11567762044941D+03

 The electronic state is 1-A.
 Alpha  occ. eigenvalues --  -19.73710 -10.63867  -1.13214  -0.78907  -0.56507
 Alpha  occ. eigenvalues --   -0.52371  -0.49314  -0.41002  -0.35295
 Alpha virt. eigenvalues --    0.03574   0.07830   0.12548   0.12666   0.14797
 Alpha virt. eigenvalues --    0.17340   0.18327   0.28463   0.29907   0.33538
 Alpha virt. eigenvalues --    0.33676   0.39045   0.40329   0.42087   0.43825

 Mulliken charges:
               1
     1  C    0.081745
     2  O   -0.493127
     3  H    0.049328
     4  H    0.045875
     5  H    0.066598
     6  H    0.249581
 Sum of Mulliken charges =   0.00000

 Dipole moment (field-independent basis, Debye):
    X=              0.9894    Y=              1.6201    Z=              0.0186  Tot=              1.8984
 Quadrupole moment (field-independent basis, Debye-Ang):
   XX=            -13.0564   YY=            -11.9282   ZZ=            -13.7995
   XY=             -2.3819   XZ=             -0.0139   YZ=              0.0262

 Normal termination of Gaussian 09 at Thu Aug 27 00:00:56 2020.
