 Gaussian 09, Revision D.01,
 Gaussian 09:  ES64L-G09RevD.01 24-Apr-2013

 --------------------
 #p B2PLYPD3/Def2QZVP
 --------------------

 --------
 methanol
 --------
 Symbolic Z-matrix:
 Charge =  0 Multiplicity = 1

                         Standard orientation:
 ---------------------------------------------------------------------
 Center     Atomic      Atomic             Coordinates (Angstroms)
 Number     Number       Type             X           Y           Z
 ---------------------------------------------------------------------
      1          6           0       -0.665830   -0.023402   -0.028068
      2          8           0        0.754486    0.023996    0.078863
      3          1           0       -0.852291   -0.987920   -0.588225
      4          1           0       -1.112559    1.071607   -0.448887
      5          1           0       -1.058571   -0.119927    1.055055
      6          1           0        0.982509   -0.015319   -0.480445
 ---------------------------------------------------------------------

 SCF Done:  E(RB2PLYPD3) =  -115.222210814     A.U. after   11 cycles
 E2(B2PLYPD3) =    -0.1436520997D+00 E(B2PLYPD3) =    -0.11536586291331D+03

 The electronic state is 1-A.
 Alpha  occ. eigenvalues --  -19.68802 -10.69154  -1.29296  -0.81682  -0.61504
 Alpha  occ. eigenvalues --   -0.52325  -0.50253  -0.41347  -0.36381
 Alpha virt. eigenvalues --    0.05152   0.09350   0.11203   0.11837   0.13611
 Alpha virt. eigenvalues --    0.17018   0.17981   0.27727   0.31844   0.32186
 Alpha virt. eigenvalues --    0.34555   0.37328   0.39359   0.41223   0.44071

 Mulliken charges:
               1
     1  C    0.046768
     2  O   -0.169603
     3  H    0.062476
     4  H    0.046674
     5  H    0.076100
     6  H   -0.062414
 Sum of Mulliken charges =   0.00000

 Dipole moment (field-independent basis, Debye):
    X=             -1.0689    Y=             -0.2234    Z=             -1.0996  Tot=              1.5497
 Quadrupole moment (field-independent basis, Debye-Ang):
   XX=            -13.6658   YY=            -13.1316   ZZ=            -12.6429
   XY=             -0.1954   XZ=             -1.8938   YZ=              0.1391

 Normal termination of Gaussian 09 at Wed Aug 26 23:23:29 2020.
