 Gaussian 09, Revision D.01,
 Gaussian 09:  ES64L-G09RevD.01 24-Apr-2013

 --------------------
 #p B2PLYPD3/Def2QZVP
 --------------------

 --------
 methanol
 --------
 Symbolic Z-matrix:
 Charge =  0 Multiplicity = 1

                         Standard orientation:
 ---------------------------------------------------------------------
 Center     Atomic      Atomic             Coordinates (Angstroms)
 Number     Number       Type             X           Y           Z
 ---------------------------------------------------------------------
      1          6           0       -0.623953    0.023249    0.023786
      2          8           0        0.733931   -0.134926   -0.027293
      3          1           0       -1.006240    0.767956   -0.796611
      4          1           0       -1.075838    0.370034    0.853120
      5          1           0       -1.210877   -0.959934   -0.144463
      6          1           0        1.165221    0.761855    0.163583
 ---------------------------------------------------------------------

 SCF Done:  E(RB2PLYPD3) =  -115.532724847     A.U. after   10 cycles
 E2(B2PLYPD3) =    -0.1481001986D+00 E(B2PLYPD3) =    -0.11568082504545D+03

 The electronic state is 1-A.
 Alpha  occ. eigenvalues --  -19.73805 -10.65809  -1.17379  -0.78206  -0.60030
 Alpha  occ. eigenvalues --   -0.51634  -0.50225  -0.39992  -0.34865
 Alpha virt. eigenvalues --    0.04384   0.07683   0.12376   0.12681   0.15046
 Alpha virt. eigenvalues --    0.17902   0.18428   0.29030   0.32064   0.32765
 Alpha virt. eigenvalues --    0.35600   0.37359   0.38983   0.41332   0.44279

 Mulliken charges:
               1
     1  C    0.064317
     2  O   -0.438946
     3  H    0.022622
     4  H    0.050256
     5  H    0.055232
     6  H    0.246518
 Sum of Mulliken charges =   0.00000

 Dipole moment (field-independent basis, Debye):
    X=             -0.5776    Y=              1.5312    Z=              0.5152  Tot=              1.7157
 Quadrupole moment (field-independent basis, Debye-Ang):
   XX=            -12.7489   YY=            -12.4890   ZZ=            -14.0671
   XY=              2.3601   XZ=              0.1768   YZ=              0.3290

 Normal termination of Gaussian 09 at Wed Aug 26 19:40:04 2020.
