 Gaussian 09, Revision D.01,
 Gaussian 09:  ES64L-G09RevD.01 24-Apr-2013

 --------------------
 #p B2PLYPD3/Def2QZVP
 --------------------

 --------
 methanol
 --------
 Symbolic Z-matrix:
 Charge =  0 Multiplicity = 1

                         Standard orientation:
 ---------------------------------------------------------------------
 Center     Atomic      Atomic             Coordinates (Angstroms)
 Number     Number       Type             X           Y           Z
 ---------------------------------------------------------------------
      1          6           0        0.698781   -0.031136    0.016092
      2          8           0       -0.770497    0.074236   -0.017756
      3          1           0        1.086732   -0.849112   -0.732085
      4          1           0        1.052461   -0.183200    1.014221
      5          1           0        1.003014    1.120460   -0.333885
      6          1           0       -1.170919   -0.495223    0.097251
 ---------------------------------------------------------------------

 SCF Done:  E(RB2PLYPD3) =  -115.415463594     A.U. after   11 cycles
 E2(B2PLYPD3) =    -0.1448437884D+00 E(B2PLYPD3) =    -0.11556030738209D+03

 The electronic state is 1-A.
 Alpha  occ. eigenvalues --  -19.69307 -10.69030  -1.22035  -0.81007  -0.61081
 Alpha  occ. eigenvalues --   -0.51620  -0.47879  -0.40090  -0.36542
 Alpha virt. eigenvalues --    0.05204   0.08903   0.11131   0.12012   0.14490
 Alpha virt. eigenvalues --    0.16408   0.18016   0.28508   0.30700   0.33220
 Alpha virt. eigenvalues --    0.34729   0.37186   0.40492   0.41142   0.41548

 Mulliken charges:
               1
     1  C    0.048406
     2  O   -0.275203
     3  H    0.060511
     4  H    0.077287
     5  H    0.074766
     6  H    0.014233
 Sum of Mulliken charges =   0.00000

 Dipole moment (field-independent basis, Debye):
    X=              1.0166    Y=             -1.2429    Z=              0.3412  Tot=              1.6416
 Quadrupole moment (field-independent basis, Debye-Ang):
   XX=            -12.8470   YY=            -12.5599   ZZ=            -13.5148
   XY=              1.7112   XZ=             -0.2523   YZ=             -0.1054

 Normal termination of Gaussian 09 at Wed Aug 26 18:39:24 2020.
