 Gaussian 09, Revision D.01,
 Gaussian 09:  ES64L-G09RevD.01 24-Apr-2013

 --------------------
 #p B2PLYPD3/Def2QZVP
 --------------------

 --------
 methanol
 --------
 Symbolic Z-matrix:
 Charge =  0 Multiplicity = 1

                         Standard orientation:
 ---------------------------------------------------------------------
 Center     Atomic      Atomic             Coordinates (Angstroms)
 Number     Number       Type             X           Y           Z
 ---------------------------------------------------------------------
      1          6           0        0.682044    0.037290    0.025564
      2          8           0       -0.750944   -0.173887   -0.023727
      3          1           0        0.966646    0.293165    0.787960
      4          1           0        1.068475    0.716764   -0.698634
      5          1           0        1.063828   -0.916633   -0.144595
      6          1           0       -1.183660    1.074064    0.091696
 ---------------------------------------------------------------------

 SCF Done:  E(RB2PLYPD3) =  -115.425760605     A.U. after   11 cycles
 E2(B2PLYPD3) =    -0.1545866179D+00 E(B2PLYPD3) =    -0.11558034722294D+03

 The electronic state is 1-A.
 Alpha  occ. eigenvalues --  -19.75055 -10.61986  -1.11217  -0.81101  -0.55814
 Alpha  occ. eigenvalues --   -0.53164  -0.47836  -0.40203  -0.35634
 Alpha virt. eigenvalues --    0.00279   0.07503   0.12236   0.12974   0.14947
 Alpha virt. eigenvalues --    0.17184   0.18432   0.23428   0.29358   0.33278
 Alpha virt. eigenvalues --    0.33733   0.38337   0.38743   0.42618   0.45161

 Mulliken charges:
               1
     1  C    0.046075
     2  O   -0.491983
     3  H    0.102589
     4  H    0.044627
     5  H    0.060507
     6  H    0.238186
 Sum of Mulliken charges =   0.00000

 Dipole moment (field-independent basis, Debye):
    X=              1.1611    Y=              1.7335    Z=              0.2941  Tot=              2.1070
 Quadrupole moment (field-independent basis, Debye-Ang):
   XX=            -13.1397   YY=            -11.4128   ZZ=            -13.9310
   XY=             -2.2969   XZ=             -0.0889   YZ=              0.1809

 Normal termination of Gaussian 09 at Wed Aug 26 23:55:22 2020.
