 Gaussian 09, Revision D.01,
 Gaussian 09:  ES64L-G09RevD.01 24-Apr-2013

 --------------------
 #p B2PLYPD3/Def2QZVP
 --------------------

 --------
 methanol
 --------
 Symbolic Z-matrix:
 Charge =  0 Multiplicity = 1

                         Standard orientation:
 ---------------------------------------------------------------------
 Center     Atomic      Atomic             Coordinates (Angstroms)
 Number     Number       Type             X           Y           Z
 ---------------------------------------------------------------------
      1          6           0        0.649980    0.009014   -0.012324
      2          8           0       -0.754748   -0.177228    0.002934
      3          1           0        1.011256    0.521742    0.834627
      4          1           0        1.061999    0.452990   -0.808309
      5          1           0        1.137120   -0.768005    0.048013
      6          1           0       -1.072269    1.157014   -0.023858
 ---------------------------------------------------------------------

 SCF Done:  E(RB2PLYPD3) =  -115.434065702     A.U. after   12 cycles
 E2(B2PLYPD3) =    -0.1553202286D+00 E(B2PLYPD3) =    -0.11558938593049D+03

 The electronic state is 1-A.
 Alpha  occ. eigenvalues --  -19.75664 -10.61812  -1.12235  -0.80943  -0.54673
 Alpha  occ. eigenvalues --   -0.52293  -0.50130  -0.39815  -0.35333
 Alpha virt. eigenvalues --   -0.01053   0.07397   0.12652   0.12987   0.14486
 Alpha virt. eigenvalues --    0.18487   0.18623   0.22761   0.29512   0.33314
 Alpha virt. eigenvalues --    0.34280   0.38223   0.40837   0.42417   0.43696

 Mulliken charges:
               1
     1  C    0.095166
     2  O   -0.476387
     3  H    0.033428
     4  H    0.037171
     5  H    0.062333
     6  H    0.248288
 Sum of Mulliken charges =   0.00000

 Dipole moment (field-independent basis, Debye):
    X=              1.2112    Y=              1.6960    Z=             -0.0621  Tot=              2.0850
 Quadrupole moment (field-independent basis, Debye-Ang):
   XX=            -13.3653   YY=            -11.3903   ZZ=            -13.9546
   XY=             -2.4001   XZ=             -0.0257   YZ=             -0.0874

 Normal termination of Gaussian 09 at Wed Aug 26 18:35:59 2020.
