 Gaussian 09, Revision D.01,
 Gaussian 09:  ES64L-G09RevD.01 24-Apr-2013

 --------------------
 #p B2PLYPD3/Def2QZVP
 --------------------

 --------
 methanol
 --------
 Symbolic Z-matrix:
 Charge =  0 Multiplicity = 1

                         Standard orientation:
 ---------------------------------------------------------------------
 Center     Atomic      Atomic             Coordinates (Angstroms)
 Number     Number       Type             X           Y           Z
 ---------------------------------------------------------------------
      1          6           0        0.689230    0.020456   -0.006970
      2          8           0       -0.751267   -0.156858    0.015797
      3          1           0        1.062039    0.543430    0.860584
      4          1           0        1.011467    0.484253   -0.835903
      5          1           0        1.026780   -0.873003   -0.034895
      6          1           0       -1.225534    0.977451   -0.074340
 ---------------------------------------------------------------------

 SCF Done:  E(RB2PLYPD3) =  -115.487585553     A.U. after   11 cycles
 E2(B2PLYPD3) =    -0.1524519901D+00 E(B2PLYPD3) =    -0.11564003754354D+03

 The electronic state is 1-A.
 Alpha  occ. eigenvalues --  -19.74262 -10.62897  -1.11441  -0.79756  -0.55820
 Alpha  occ. eigenvalues --   -0.52033  -0.48888  -0.40794  -0.35158
 Alpha virt. eigenvalues --    0.02023   0.07598   0.12624   0.12788   0.14749
 Alpha virt. eigenvalues --    0.17063   0.18409   0.25776   0.29361   0.33087
 Alpha virt. eigenvalues --    0.33594   0.38711   0.40683   0.41558   0.44241

 Mulliken charges:
               1
     1  C    0.085262
     2  O   -0.506351
     3  H    0.049426
     4  H    0.047360
     5  H    0.074808
     6  H    0.249494
 Sum of Mulliken charges =   0.00000

 Dipole moment (field-independent basis, Debye):
    X=              1.0410    Y=              1.6307    Z=             -0.2106  Tot=              1.9461
 Quadrupole moment (field-independent basis, Debye-Ang):
   XX=            -12.8747   YY=            -11.7515   ZZ=            -13.8346
   XY=             -2.4905   XZ=              0.1136   YZ=             -0.1048

 Normal termination of Gaussian 09 at Wed Aug 26 13:40:25 2020.
