 Gaussian 09, Revision D.01,
 Gaussian 09:  ES64L-G09RevD.01 24-Apr-2013

 --------------------
 #p B2PLYPD3/Def2QZVP
 --------------------

 --------
 methanol
 --------
 Symbolic Z-matrix:
 Charge =  0 Multiplicity = 1

                         Standard orientation:
 ---------------------------------------------------------------------
 Center     Atomic      Atomic             Coordinates (Angstroms)
 Number     Number       Type             X           Y           Z
 ---------------------------------------------------------------------
      1          6           0       -0.669420   -0.011221   -0.004084
      2          8           0        0.733479    0.113671   -0.009711
      3          1           0       -0.954502   -0.505917    0.949618
      4          1           0       -0.941277   -0.634814   -0.888096
      5          1           0       -1.084671    0.962036   -0.029416
      6          1           0        1.129138   -0.663347    0.070088
 ---------------------------------------------------------------------

 SCF Done:  E(RB2PLYPD3) =  -115.543392999     A.U. after   10 cycles
 E2(B2PLYPD3) =    -0.1455118019D+00 E(B2PLYPD3) =    -0.11568890480105D+03

 The electronic state is 1-A.
 Alpha  occ. eigenvalues --  -19.71154 -10.65842  -1.18137  -0.79563  -0.59449
 Alpha  occ. eigenvalues --   -0.52270  -0.51129  -0.40770  -0.35027
 Alpha virt. eigenvalues --    0.05261   0.08794   0.12092   0.12573   0.14549
 Alpha virt. eigenvalues --    0.17198   0.17627   0.29158   0.32800   0.33467
 Alpha virt. eigenvalues --    0.36976   0.39749   0.40160   0.40992   0.44270

 Mulliken charges:
               1
     1  C    0.073872
     2  O   -0.424870
     3  H    0.041549
     4  H    0.045867
     5  H    0.079615
     6  H    0.183967
 Sum of Mulliken charges =   0.00000

 Dipole moment (field-independent basis, Debye):
    X=             -0.8380    Y=             -1.3698    Z=              0.1528  Tot=              1.6131
 Quadrupole moment (field-independent basis, Debye-Ang):
   XX=            -13.1199   YY=            -12.3021   ZZ=            -13.6135
   XY=             -2.3131   XZ=              0.1830   YZ=             -0.0626

 Normal termination of Gaussian 09 at Wed Aug 26 16:10:21 2020.
