 Gaussian 09, Revision D.01,
 Gaussian 09:  ES64L-G09RevD.01 24-Apr-2013

 --------------------
 #p B2PLYPD3/Def2QZVP
 --------------------

 --------
 methanol
 --------
 Symbolic Z-matrix:
 Charge =  0 Multiplicity = 1

                         Standard orientation:
 ---------------------------------------------------------------------
 Center     Atomic      Atomic             Coordinates (Angstroms)
 Number     Number       Type             X           Y           Z
 ---------------------------------------------------------------------
      1          6           0        0.665048    0.028198    0.003864
      2          8           0       -0.740870   -0.141903   -0.011430
      3          1           0        1.004360    0.431695    0.867146
      4          1           0        1.003538    0.634948   -0.802916
      5          1           0        1.074002   -0.964097   -0.064762
      6          1           0       -1.145232    0.863492    0.068791
 ---------------------------------------------------------------------

 SCF Done:  E(RB2PLYPD3) =  -115.533720322     A.U. after   11 cycles
 E2(B2PLYPD3) =    -0.1492259152D+00 E(B2PLYPD3) =    -0.11568294623736D+03

 The electronic state is 1-A.
 Alpha  occ. eigenvalues --  -19.73429 -10.63990  -1.14201  -0.78737  -0.57470
 Alpha  occ. eigenvalues --   -0.52625  -0.49202  -0.41006  -0.35239
 Alpha virt. eigenvalues --    0.03919   0.07990   0.12409   0.12690   0.15016
 Alpha virt. eigenvalues --    0.17303   0.18141   0.29006   0.30596   0.33443
 Alpha virt. eigenvalues --    0.34318   0.38903   0.39751   0.42299   0.44619

 Mulliken charges:
               1
     1  C    0.082810
     2  O   -0.484050
     3  H    0.047556
     4  H    0.043473
     5  H    0.064266
     6  H    0.245945
 Sum of Mulliken charges =   0.00000

 Dipole moment (field-independent basis, Debye):
    X=              0.9241    Y=              1.6398    Z=              0.1798  Tot=              1.8909
 Quadrupole moment (field-independent basis, Debye-Ang):
   XX=            -13.1100   YY=            -11.9113   ZZ=            -13.8352
   XY=             -2.2861   XZ=             -0.1055   YZ=              0.0969

 Normal termination of Gaussian 09 at Wed Aug 26 12:19:27 2020.
