 Gaussian 09, Revision D.01,
 Gaussian 09:  ES64L-G09RevD.01 24-Apr-2013

 --------------------
 #p B2PLYPD3/Def2QZVP
 --------------------

 --------
 methanol
 --------
 Symbolic Z-matrix:
 Charge =  0 Multiplicity = 1

                         Standard orientation:
 ---------------------------------------------------------------------
 Center     Atomic      Atomic             Coordinates (Angstroms)
 Number     Number       Type             X           Y           Z
 ---------------------------------------------------------------------
      1          6           0        0.685303    0.012176    0.001717
      2          8           0       -0.755119   -0.143839   -0.007160
      3          1           0        1.072812    0.458337    0.893849
      4          1           0        0.994167    0.623358   -0.856418
      5          1           0        1.104852   -0.867047   -0.062177
      6          1           0       -1.242699    0.863011    0.071721
 ---------------------------------------------------------------------

 SCF Done:  E(RB2PLYPD3) =  -115.521276252     A.U. after   11 cycles
 E2(B2PLYPD3) =    -0.1502105745D+00 E(B2PLYPD3) =    -0.11567148682606D+03

 The electronic state is 1-A.
 Alpha  occ. eigenvalues --  -19.73577 -10.64253  -1.12404  -0.79296  -0.55902
 Alpha  occ. eigenvalues --   -0.51375  -0.50305  -0.40658  -0.35000
 Alpha virt. eigenvalues --    0.03567   0.07629   0.12463   0.12902   0.14624
 Alpha virt. eigenvalues --    0.17447   0.18297   0.28652   0.29740   0.32619
 Alpha virt. eigenvalues --    0.33594   0.38596   0.40601   0.41697   0.43194

 Mulliken charges:
               1
     1  C    0.081166
     2  O   -0.505450
     3  H    0.047588
     4  H    0.045134
     5  H    0.076252
     6  H    0.255311
 Sum of Mulliken charges =   0.00000

 Dipole moment (field-independent basis, Debye):
    X=              0.9184    Y=              1.5534    Z=              0.1433  Tot=              1.8102
 Quadrupole moment (field-independent basis, Debye-Ang):
   XX=            -12.5985   YY=            -12.1018   ZZ=            -13.8747
   XY=             -2.6215   XZ=             -0.0962   YZ=              0.1023

 Normal termination of Gaussian 09 at Wed Aug 26 15:09:07 2020.
