 Gaussian 09, Revision D.01,
 Gaussian 09:  ES64L-G09RevD.01 24-Apr-2013

 --------------------
 #p B2PLYPD3/Def2QZVP
 --------------------

 --------
 methanol
 --------
 Symbolic Z-matrix:
 Charge =  0 Multiplicity = 1

                         Standard orientation:
 ---------------------------------------------------------------------
 Center     Atomic      Atomic             Coordinates (Angstroms)
 Number     Number       Type             X           Y           Z
 ---------------------------------------------------------------------
      1          6           0        0.652505    0.013309   -0.007353
      2          8           0       -0.749134   -0.150928    0.001303
      3          1           0        1.057989    0.551144    0.829975
      4          1           0        1.069433    0.509314   -0.825792
      5          1           0        1.087049   -0.903153    0.033800
      6          1           0       -1.136431    0.970261   -0.004290
 ---------------------------------------------------------------------

 SCF Done:  E(RB2PLYPD3) =  -115.510312895     A.U. after   11 cycles
 E2(B2PLYPD3) =    -0.1513834765D+00 E(B2PLYPD3) =    -0.11566169637109D+03

 The electronic state is 1-A.
 Alpha  occ. eigenvalues --  -19.74629 -10.63704  -1.13529  -0.78845  -0.56502
 Alpha  occ. eigenvalues --   -0.51322  -0.49926  -0.41032  -0.35072
 Alpha virt. eigenvalues --    0.02471   0.07605   0.12656   0.12789   0.15047
 Alpha virt. eigenvalues --    0.17661   0.18372   0.26525   0.29613   0.33580
 Alpha virt. eigenvalues --    0.34584   0.38642   0.40151   0.41433   0.43741

 Mulliken charges:
               1
     1  C    0.084296
     2  O   -0.480241
     3  H    0.035382
     4  H    0.041090
     5  H    0.063953
     6  H    0.255519
 Sum of Mulliken charges =   0.00000

 Dipole moment (field-independent basis, Debye):
    X=              0.9512    Y=              1.6637    Z=             -0.0286  Tot=              1.9166
 Quadrupole moment (field-independent basis, Debye-Ang):
   XX=            -13.0887   YY=            -11.7422   ZZ=            -14.0741
   XY=             -2.3672   XZ=             -0.0201   YZ=             -0.0495

 Normal termination of Gaussian 09 at Wed Aug 26 14:36:59 2020.
