 Gaussian 09, Revision D.01,
 Gaussian 09:  ES64L-G09RevD.01 24-Apr-2013

 --------------------
 #p B2PLYPD3/Def2QZVP
 --------------------

 --------
 methanol
 --------
 Symbolic Z-matrix:
 Charge =  0 Multiplicity = 1

                         Standard orientation:
 ---------------------------------------------------------------------
 Center     Atomic      Atomic             Coordinates (Angstroms)
 Number     Number       Type             X           Y           Z
 ---------------------------------------------------------------------
      1          6           0        0.694415   -0.004677    0.017388
      2          8           0       -0.739203   -0.149640   -0.011814
      3          1           0        1.017608    0.363760    0.931223
      4          1           0        0.967537    0.763850   -0.785898
      5          1           0        1.037290   -0.800064   -0.228056
      6          1           0       -1.275297    0.897635    0.072915
 ---------------------------------------------------------------------

 SCF Done:  E(RB2PLYPD3) =  -115.483542411     A.U. after   11 cycles
 E2(B2PLYPD3) =    -0.1510875832D+00 E(B2PLYPD3) =    -0.11563462999411D+03

 The electronic state is 1-A.
 Alpha  occ. eigenvalues --  -19.73475 -10.63471  -1.11934  -0.79756  -0.56537
 Alpha  occ. eigenvalues --   -0.51666  -0.50275  -0.40159  -0.34454
 Alpha virt. eigenvalues --    0.02664   0.07730   0.12388   0.13010   0.14511
 Alpha virt. eigenvalues --    0.17272   0.18000   0.27202   0.29502   0.32975
 Alpha virt. eigenvalues --    0.33315   0.37052   0.41128   0.42657   0.43539

 Mulliken charges:
               1
     1  C    0.068705
     2  O   -0.512669
     3  H    0.057787
     4  H    0.030083
     5  H    0.098076
     6  H    0.258017
 Sum of Mulliken charges =   0.00000

 Dipole moment (field-independent basis, Debye):
    X=              0.8567    Y=              1.5452    Z=              0.1813  Tot=              1.7761
 Quadrupole moment (field-independent basis, Debye-Ang):
   XX=            -12.6549   YY=            -11.9702   ZZ=            -13.8149
   XY=             -2.7311   XZ=             -0.1211   YZ=              0.2818

 Normal termination of Gaussian 09 at Wed Aug 26 22:48:59 2020.
