 Gaussian 09, Revision D.01,
 Gaussian 09:  ES64L-G09RevD.01 24-Apr-2013

 --------------------
 #p B2PLYPD3/Def2QZVP
 --------------------

 --------
 methanol
 --------
 Symbolic Z-matrix:
 Charge =  0 Multiplicity = 1

                         Standard orientation:
 ---------------------------------------------------------------------
 Center     Atomic      Atomic             Coordinates (Angstroms)
 Number     Number       Type             X           Y           Z
 ---------------------------------------------------------------------
      1          6           0        0.654665   -0.028561   -0.005290
      2          8           0       -0.743415    0.112954    0.006953
      3          1           0        0.973999   -0.558729   -0.897857
      4          1           0        1.048987   -0.554815    0.899363
      5          1           0        1.136895    1.029674   -0.015694
      6          1           0       -1.140548   -0.648393   -0.009702
 ---------------------------------------------------------------------

 SCF Done:  E(RB2PLYPD3) =  -115.538655277     A.U. after   10 cycles
 E2(B2PLYPD3) =    -0.1456348539D+00 E(B2PLYPD3) =    -0.11568429013082D+03

 The electronic state is 1-A.
 Alpha  occ. eigenvalues --  -19.71643 -10.66730  -1.18998  -0.79213  -0.60472
 Alpha  occ. eigenvalues --   -0.52087  -0.49798  -0.40466  -0.35637
 Alpha virt. eigenvalues --    0.05303   0.08560   0.12174   0.12311   0.14762
 Alpha virt. eigenvalues --    0.17356   0.17963   0.29012   0.33127   0.33873
 Alpha virt. eigenvalues --    0.36525   0.38310   0.39860   0.40680   0.43387

 Mulliken charges:
               1
     1  C    0.064451
     2  O   -0.402708
     3  H    0.051302
     4  H    0.047854
     5  H    0.065587
     6  H    0.173512
 Sum of Mulliken charges =   0.00000

 Dipole moment (field-independent basis, Debye):
    X=              0.7850    Y=             -1.4430    Z=             -0.0640  Tot=              1.6439
 Quadrupole moment (field-independent basis, Debye-Ang):
   XX=            -12.9246   YY=            -12.4837   ZZ=            -13.7395
   XY=              2.1560   XZ=              0.0671   YZ=              0.0431

 Normal termination of Gaussian 09 at Thu Aug 27 00:09:22 2020.
