 Gaussian 09, Revision D.01,
 Gaussian 09:  ES64L-G09RevD.01 24-Apr-2013

 --------------------
 #p B2PLYPD3/Def2QZVP
 --------------------

 --------
 methanol
 --------
 Symbolic Z-matrix:
 Charge =  0 Multiplicity = 1

                         Standard orientation:
 ---------------------------------------------------------------------
 Center     Atomic      Atomic             Coordinates (Angstroms)
 Number     Number       Type             X           Y           Z
 ---------------------------------------------------------------------
      1          6           0        0.652390   -0.001884    0.028995
      2          8           0       -0.758272   -0.048718   -0.056514
      3          1           0        1.065522   -0.260152    1.009724
      4          1           0        1.166623    1.108332   -0.421514
      5          1           0        1.003573   -0.856834   -0.659432
      6          1           0       -1.083882    0.409705    0.349365
 ---------------------------------------------------------------------

 SCF Done:  E(RB2PLYPD3) =  -115.399014634     A.U. after   11 cycles
 E2(B2PLYPD3) =    -0.1445419444D+00 E(B2PLYPD3) =    -0.11554355657853D+03

 The electronic state is 1-A.
 Alpha  occ. eigenvalues --  -19.70431 -10.69001  -1.25082  -0.81364  -0.62057
 Alpha  occ. eigenvalues --   -0.50702  -0.50302  -0.40824  -0.36125
 Alpha virt. eigenvalues --    0.05208   0.08785   0.11233   0.12115   0.14645
 Alpha virt. eigenvalues --    0.16734   0.18443   0.28303   0.31502   0.32863
 Alpha virt. eigenvalues --    0.35063   0.37569   0.40539   0.41034   0.42089

 Mulliken charges:
               1
     1  C    0.035816
     2  O   -0.226756
     3  H    0.066985
     4  H    0.031061
     5  H    0.076921
     6  H    0.015972
 Sum of Mulliken charges =   0.00000

 Dipole moment (field-independent basis, Debye):
    X=              0.8187    Y=              0.7023    Z=              0.9345  Tot=              1.4271
 Quadrupole moment (field-independent basis, Debye-Ang):
   XX=            -13.1353   YY=            -13.0496   ZZ=            -13.2658
   XY=             -1.5577   XZ=             -1.0805   YZ=              0.4144

 Normal termination of Gaussian 09 at Wed Aug 26 22:34:32 2020.
