 Gaussian 09, Revision D.01,
 Gaussian 09:  ES64L-G09RevD.01 24-Apr-2013

 --------------------
 #p B2PLYPD3/Def2QZVP
 --------------------

 --------
 methanol
 --------
 Symbolic Z-matrix:
 Charge =  0 Multiplicity = 1

                         Standard orientation:
 ---------------------------------------------------------------------
 Center     Atomic      Atomic             Coordinates (Angstroms)
 Number     Number       Type             X           Y           Z
 ---------------------------------------------------------------------
      1          6           0       -0.669405   -0.018342   -0.001123
      2          8           0        0.738827    0.128327   -0.005392
      3          1           0       -1.016243   -0.447954    0.939238
      4          1           0       -0.993018   -0.632447   -0.848456
      5          1           0       -1.070753    0.934914   -0.083235
      6          1           0        1.185823   -0.771077    0.042329
 ---------------------------------------------------------------------

 SCF Done:  E(RB2PLYPD3) =  -115.548720126     A.U. after   10 cycles
 E2(B2PLYPD3) =    -0.1477197692D+00 E(B2PLYPD3) =    -0.11569643989552D+03

 The electronic state is 1-A.
 Alpha  occ. eigenvalues --  -19.72603 -10.64964  -1.15149  -0.78770  -0.57915
 Alpha  occ. eigenvalues --   -0.51878  -0.50493  -0.40684  -0.35052
 Alpha virt. eigenvalues --    0.04692   0.08147   0.12357   0.12722   0.14761
 Alpha virt. eigenvalues --    0.17213   0.18118   0.29172   0.33164   0.33526
 Alpha virt. eigenvalues --    0.33843   0.39089   0.40660   0.41124   0.43774

 Mulliken charges:
               1
     1  C    0.073705
     2  O   -0.477345
     3  H    0.047085
     4  H    0.044831
     5  H    0.074205
     6  H    0.237519
 Sum of Mulliken charges =   0.00000

 Dipole moment (field-independent basis, Debye):
    X=             -0.8151    Y=             -1.4912    Z=              0.0782  Tot=              1.7013
 Quadrupole moment (field-independent basis, Debye-Ang):
   XX=            -12.8744   YY=            -12.2243   ZZ=            -13.7501
   XY=             -2.4198   XZ=              0.1117   YZ=             -0.0502

 Normal termination of Gaussian 09 at Thu Aug 27 00:06:29 2020.
