 Gaussian 09, Revision D.01,
 Gaussian 09:  ES64L-G09RevD.01 24-Apr-2013

 --------------------
 #p B2PLYPD3/Def2QZVP
 --------------------

 --------
 methanol
 --------
 Symbolic Z-matrix:
 Charge =  0 Multiplicity = 1

                         Standard orientation:
 ---------------------------------------------------------------------
 Center     Atomic      Atomic             Coordinates (Angstroms)
 Number     Number       Type             X           Y           Z
 ---------------------------------------------------------------------
      1          6           0        0.651647    0.069055   -0.026814
      2          8           0       -0.703795   -0.213584    0.005488
      3          1           0        0.958152    0.491842    0.814463
      4          1           0        0.981274    0.501242   -0.697007
      5          1           0        1.130803   -0.817983    0.015590
      6          1           0       -1.349749    1.119239   -0.016063
 ---------------------------------------------------------------------

 SCF Done:  E(RB2PLYPD3) =  -115.384031962     A.U. after   12 cycles
 E2(B2PLYPD3) =    -0.1563813459D+00 E(B2PLYPD3) =    -0.11554041330764D+03

 The electronic state is 1-A.
 Alpha  occ. eigenvalues --  -19.75451 -10.60276  -1.12764  -0.81338  -0.56524
 Alpha  occ. eigenvalues --   -0.53491  -0.49605  -0.38195  -0.35271
 Alpha virt. eigenvalues --   -0.02891   0.07442   0.12785   0.13175   0.14860
 Alpha virt. eigenvalues --    0.17550   0.18686   0.21296   0.29500   0.33653
 Alpha virt. eigenvalues --    0.35802   0.38907   0.39658   0.43385   0.47064

 Mulliken charges:
               1
     1  C    0.076352
     2  O   -0.464654
     3  H    0.044044
     4  H    0.077219
     5  H    0.046550
     6  H    0.220488
 Sum of Mulliken charges =   0.00000

 Dipole moment (field-independent basis, Debye):
    X=              0.9448    Y=              1.7424    Z=             -0.0774  Tot=              1.9835
 Quadrupole moment (field-independent basis, Debye-Ang):
   XX=            -12.4882   YY=            -11.6564   ZZ=            -13.8625
   XY=             -2.5908   XZ=             -0.0463   YZ=             -0.1344

 Normal termination of Gaussian 09 at Wed Aug 26 18:57:10 2020.
