 Gaussian 09, Revision D.01,
 Gaussian 09:  ES64L-G09RevD.01 24-Apr-2013

 --------------------
 #p B2PLYPD3/Def2QZVP
 --------------------

 --------
 methanol
 --------
 Symbolic Z-matrix:
 Charge =  0 Multiplicity = 1

                         Standard orientation:
 ---------------------------------------------------------------------
 Center     Atomic      Atomic             Coordinates (Angstroms)
 Number     Number       Type             X           Y           Z
 ---------------------------------------------------------------------
      1          6           0        0.669050    0.007999    0.017384
      2          8           0       -0.739020   -0.134766   -0.009776
      3          1           0        1.037574    0.474679    0.881833
      4          1           0        1.008185    0.647858   -0.864695
      5          1           0        1.085353   -0.900753   -0.096653
      6          1           0       -1.233259    0.808351    0.053414
 ---------------------------------------------------------------------

 SCF Done:  E(RB2PLYPD3) =  -115.534703819     A.U. after   11 cycles
 E2(B2PLYPD3) =    -0.1487835505D+00 E(B2PLYPD3) =    -0.11568348736962D+03

 The electronic state is 1-A.
 Alpha  occ. eigenvalues --  -19.73157 -10.64627  -1.14161  -0.78855  -0.57479
 Alpha  occ. eigenvalues --   -0.51317  -0.50753  -0.40603  -0.34704
 Alpha virt. eigenvalues --    0.04105   0.07864   0.12488   0.12807   0.14876
 Alpha virt. eigenvalues --    0.17361   0.18138   0.29235   0.31035   0.33171
 Alpha virt. eigenvalues --    0.34105   0.38299   0.40883   0.41225   0.43834

 Mulliken charges:
               1
     1  C    0.079008
     2  O   -0.488556
     3  H    0.048851
     4  H    0.032235
     5  H    0.076673
     6  H    0.251789
 Sum of Mulliken charges =   0.00000

 Dipole moment (field-independent basis, Debye):
    X=              0.7567    Y=              1.5061    Z=              0.1806  Tot=              1.6952
 Quadrupole moment (field-independent basis, Debye-Ang):
   XX=            -12.6323   YY=            -12.1793   ZZ=            -13.9106
   XY=             -2.5591   XZ=             -0.0420   YZ=              0.1916

 Normal termination of Gaussian 09 at Wed Aug 26 15:49:51 2020.
