 Gaussian 09, Revision D.01,
 Gaussian 09:  ES64L-G09RevD.01 24-Apr-2013

 --------------------
 #p B2PLYPD3/Def2QZVP
 --------------------

 --------
 methanol
 --------
 Symbolic Z-matrix:
 Charge =  0 Multiplicity = 1

                         Standard orientation:
 ---------------------------------------------------------------------
 Center     Atomic      Atomic             Coordinates (Angstroms)
 Number     Number       Type             X           Y           Z
 ---------------------------------------------------------------------
      1          6           0       -0.663668    0.024925    0.001408
      2          8           0        0.740969   -0.138399   -0.000962
      3          1           0       -1.014339    0.545891   -0.843342
      4          1           0       -1.020210    0.507027    0.855687
      5          1           0       -1.047679   -0.960972   -0.020027
      6          1           0        1.136481    0.865699    0.006926
 ---------------------------------------------------------------------

 SCF Done:  E(RB2PLYPD3) =  -115.537040333     A.U. after   11 cycles
 E2(B2PLYPD3) =    -0.1490939913D+00 E(B2PLYPD3) =    -0.11568613432429D+03

 The electronic state is 1-A.
 Alpha  occ. eigenvalues --  -19.73418 -10.64011  -1.14401  -0.78688  -0.57618
 Alpha  occ. eigenvalues --   -0.52441  -0.49371  -0.41126  -0.35242
 Alpha virt. eigenvalues --    0.04003   0.08028   0.12492   0.12638   0.15038
 Alpha virt. eigenvalues --    0.17255   0.18183   0.29015   0.30857   0.33510
 Alpha virt. eigenvalues --    0.34417   0.39009   0.39890   0.42210   0.44362

 Mulliken charges:
               1
     1  C    0.078997
     2  O   -0.480924
     3  H    0.044623
     4  H    0.046152
     5  H    0.065944
     6  H    0.245209
 Sum of Mulliken charges =   0.00000

 Dipole moment (field-independent basis, Debye):
    X=             -0.9235    Y=              1.6214    Z=              0.0186  Tot=              1.8660
 Quadrupole moment (field-independent basis, Debye-Ang):
   XX=            -13.1402   YY=            -11.9124   ZZ=            -13.8255
   XY=              2.2661   XZ=              0.0052   YZ=              0.0161

 Normal termination of Gaussian 09 at Thu Aug 27 00:08:03 2020.
