 Gaussian 09, Revision D.01,
 Gaussian 09:  ES64L-G09RevD.01 24-Apr-2013

 --------------------
 #p B2PLYPD3/Def2QZVP
 --------------------

 --------
 methanol
 --------
 Symbolic Z-matrix:
 Charge =  0 Multiplicity = 1

                         Standard orientation:
 ---------------------------------------------------------------------
 Center     Atomic      Atomic             Coordinates (Angstroms)
 Number     Number       Type             X           Y           Z
 ---------------------------------------------------------------------
      1          6           0       -0.648214   -0.033212    0.018370
      2          8           0        0.739573    0.137948   -0.012145
      3          1           0       -1.014315   -0.445208    0.849998
      4          1           0       -1.023974   -0.597516   -0.848797
      5          1           0       -1.107219    0.972196   -0.068422
      6          1           0        1.118202   -0.833782    0.054163
 ---------------------------------------------------------------------

 SCF Done:  E(RB2PLYPD3) =  -115.538014398     A.U. after   11 cycles
 E2(B2PLYPD3) =    -0.1484900526D+00 E(B2PLYPD3) =    -0.11568650445045D+03

 The electronic state is 1-A.
 Alpha  occ. eigenvalues --  -19.73482 -10.64507  -1.15623  -0.78601  -0.58336
 Alpha  occ. eigenvalues --   -0.52634  -0.49603  -0.40681  -0.35417
 Alpha virt. eigenvalues --    0.04277   0.08021   0.12455   0.12574   0.14990
 Alpha virt. eigenvalues --    0.17568   0.18349   0.29009   0.31507   0.33457
 Alpha virt. eigenvalues --    0.35045   0.38132   0.39752   0.42127   0.45045

 Mulliken charges:
               1
     1  C    0.074318
     2  O   -0.465021
     3  H    0.050710
     4  H    0.039862
     5  H    0.056702
     6  H    0.243428
 Sum of Mulliken charges =   0.00000

 Dipole moment (field-independent basis, Debye):
    X=             -0.8527    Y=             -1.6209    Z=              0.1940  Tot=              1.8417
 Quadrupole moment (field-independent basis, Debye-Ang):
   XX=            -13.1253   YY=            -12.1158   ZZ=            -13.8123
   XY=             -2.2414   XZ=              0.0466   YZ=             -0.1562

 Normal termination of Gaussian 09 at Wed Aug 26 14:05:29 2020.
