 Gaussian 09, Revision D.01,
 Gaussian 09:  ES64L-G09RevD.01 24-Apr-2013

 --------------------
 #p B2PLYPD3/Def2QZVP
 --------------------

 --------
 methanol
 --------
 Symbolic Z-matrix:
 Charge =  0 Multiplicity = 1

                         Standard orientation:
 ---------------------------------------------------------------------
 Center     Atomic      Atomic             Coordinates (Angstroms)
 Number     Number       Type             X           Y           Z
 ---------------------------------------------------------------------
      1          6           0        0.664796    0.020823   -0.001432
      2          8           0       -0.747493   -0.145280   -0.002620
      3          1           0        1.052261    0.486639    0.840953
      4          1           0        0.970337    0.595786   -0.822910
      5          1           0        1.103393   -0.935218   -0.037215
      6          1           0       -1.134822    0.890092    0.048723
 ---------------------------------------------------------------------

 SCF Done:  E(RB2PLYPD3) =  -115.530382825     A.U. after   11 cycles
 E2(B2PLYPD3) =    -0.1496969246D+00 E(B2PLYPD3) =    -0.11568007974982D+03

 The electronic state is 1-A.
 Alpha  occ. eigenvalues --  -19.73701 -10.63899  -1.13819  -0.78868  -0.57095
 Alpha  occ. eigenvalues --   -0.52253  -0.49436  -0.41231  -0.35168
 Alpha virt. eigenvalues --    0.03659   0.07882   0.12532   0.12700   0.14945
 Alpha virt. eigenvalues --    0.17567   0.18110   0.28769   0.30076   0.33259
 Alpha virt. eigenvalues --    0.34179   0.39337   0.39832   0.42072   0.44136

 Mulliken charges:
               1
     1  C    0.086282
     2  O   -0.486650
     3  H    0.042729
     4  H    0.042742
     5  H    0.065605
     6  H    0.249292
 Sum of Mulliken charges =   0.00000

 Dipole moment (field-independent basis, Debye):
    X=              0.9764    Y=              1.6528    Z=              0.0928  Tot=              1.9219
 Quadrupole moment (field-independent basis, Debye-Ang):
   XX=            -13.0992   YY=            -11.8501   ZZ=            -13.9099
   XY=             -2.3361   XZ=             -0.0215   YZ=              0.0504

 Normal termination of Gaussian 09 at Wed Aug 26 09:59:03 2020.
