 Gaussian 09, Revision D.01,
 Gaussian 09:  ES64L-G09RevD.01 24-Apr-2013

 --------------------
 #p B2PLYPD3/Def2QZVP
 --------------------

 --------
 methanol
 --------
 Symbolic Z-matrix:
 Charge =  0 Multiplicity = 1

                         Standard orientation:
 ---------------------------------------------------------------------
 Center     Atomic      Atomic             Coordinates (Angstroms)
 Number     Number       Type             X           Y           Z
 ---------------------------------------------------------------------
      1          6           0        0.668462    0.019943    0.009559
      2          8           0       -0.726809   -0.160447   -0.012557
      3          1           0        0.999135    0.353770    0.926689
      4          1           0        0.922045    0.658710   -0.836859
      5          1           0        1.062547   -0.800430   -0.143030
      6          1           0       -1.180028    0.951866    0.096302
 ---------------------------------------------------------------------

 SCF Done:  E(RB2PLYPD3) =  -115.486574404     A.U. after   11 cycles
 E2(B2PLYPD3) =    -0.1511183706D+00 E(B2PLYPD3) =    -0.11563769277486D+03

 The electronic state is 1-A.
 Alpha  occ. eigenvalues --  -19.73820 -10.62538  -1.13155  -0.79485  -0.55866
 Alpha  occ. eigenvalues --   -0.53038  -0.50542  -0.40125  -0.34787
 Alpha virt. eigenvalues --    0.02277   0.07893   0.12332   0.13131   0.14490
 Alpha virt. eigenvalues --    0.17529   0.18370   0.26327   0.29400   0.33061
 Alpha virt. eigenvalues --    0.34285   0.38510   0.42169   0.42826   0.43520

 Mulliken charges:
               1
     1  C    0.072984
     2  O   -0.491526
     3  H    0.047844
     4  H    0.040634
     5  H    0.075983
     6  H    0.254080
 Sum of Mulliken charges =   0.00000

 Dipole moment (field-independent basis, Debye):
    X=              0.9209    Y=              1.5694    Z=              0.1823  Tot=              1.8287
 Quadrupole moment (field-independent basis, Debye-Ang):
   XX=            -13.0716   YY=            -11.9029   ZZ=            -13.6252
   XY=             -2.6479   XZ=             -0.1483   YZ=              0.1730

 Normal termination of Gaussian 09 at Wed Aug 26 20:38:46 2020.
