 Gaussian 09, Revision D.01,
 Gaussian 09:  ES64L-G09RevD.01 24-Apr-2013

 --------------------
 #p B2PLYPD3/Def2QZVP
 --------------------

 --------
 methanol
 --------
 Symbolic Z-matrix:
 Charge =  0 Multiplicity = 1

                         Standard orientation:
 ---------------------------------------------------------------------
 Center     Atomic      Atomic             Coordinates (Angstroms)
 Number     Number       Type             X           Y           Z
 ---------------------------------------------------------------------
      1          6           0        0.661463    0.011633   -0.004025
      2          8           0       -0.740710   -0.129348    0.002787
      3          1           0        1.034315    0.522857    0.893979
      4          1           0        1.004311    0.540157   -0.877794
      5          1           0        1.034195   -0.932654   -0.012363
      6          1           0       -1.115925    0.834626   -0.001968
 ---------------------------------------------------------------------

 SCF Done:  E(RB2PLYPD3) =  -115.543234831     A.U. after   10 cycles
 E2(B2PLYPD3) =    -0.1482736825D+00 E(B2PLYPD3) =    -0.11569150851360D+03

 The electronic state is 1-A.
 Alpha  occ. eigenvalues --  -19.73096 -10.64450  -1.15244  -0.78724  -0.57978
 Alpha  occ. eigenvalues --   -0.51872  -0.50324  -0.41361  -0.35073
 Alpha virt. eigenvalues --    0.04394   0.08165   0.12402   0.12693   0.14914
 Alpha virt. eigenvalues --    0.17280   0.18160   0.29097   0.32271   0.33258
 Alpha virt. eigenvalues --    0.34432   0.38858   0.40827   0.41184   0.43949

 Mulliken charges:
               1
     1  C    0.072809
     2  O   -0.471688
     3  H    0.041658
     4  H    0.043638
     5  H    0.072356
     6  H    0.241227
 Sum of Mulliken charges =   0.00000

 Dipole moment (field-independent basis, Debye):
    X=              0.9012    Y=              1.5270    Z=             -0.0307  Tot=              1.7733
 Quadrupole moment (field-independent basis, Debye-Ang):
   XX=            -13.2121   YY=            -11.9931   ZZ=            -13.7874
   XY=             -2.3124   XZ=              0.0053   YZ=             -0.0234

 Normal termination of Gaussian 09 at Wed Aug 26 10:43:20 2020.
