 Gaussian 09, Revision D.01,
 Gaussian 09:  ES64L-G09RevD.01 24-Apr-2013

 --------------------
 #p B2PLYPD3/Def2QZVP
 --------------------

 --------
 methanol
 --------
 Symbolic Z-matrix:
 Charge =  0 Multiplicity = 1

                         Standard orientation:
 ---------------------------------------------------------------------
 Center     Atomic      Atomic             Coordinates (Angstroms)
 Number     Number       Type             X           Y           Z
 ---------------------------------------------------------------------
      1          6           0       -0.653299    0.009515    0.009195
      2          8           0        0.735023   -0.157395   -0.016846
      3          1           0       -1.058161    0.621889   -0.793540
      4          1           0       -0.972908    0.468646    0.824906
      5          1           0       -1.064485   -0.886600   -0.019645
      6          1           0        1.135159    0.998139    0.067877
 ---------------------------------------------------------------------

 SCF Done:  E(RB2PLYPD3) =  -115.492303286     A.U. after   11 cycles
 E2(B2PLYPD3) =    -0.1516571714D+00 E(B2PLYPD3) =    -0.11564396045746D+03

 The electronic state is 1-A.
 Alpha  occ. eigenvalues --  -19.74473 -10.62729  -1.13562  -0.79172  -0.56932
 Alpha  occ. eigenvalues --   -0.51807  -0.50020  -0.40954  -0.34768
 Alpha virt. eigenvalues --    0.01811   0.07751   0.12653   0.12867   0.15078
 Alpha virt. eigenvalues --    0.17581   0.18155   0.25643   0.29660   0.33242
 Alpha virt. eigenvalues --    0.35116   0.38839   0.40581   0.41573   0.44614

 Mulliken charges:
               1
     1  C    0.094141
     2  O   -0.482301
     3  H    0.031757
     4  H    0.038504
     5  H    0.065722
     6  H    0.252176
 Sum of Mulliken charges =   0.00000

 Dipole moment (field-independent basis, Debye):
    X=             -0.9534    Y=              1.6740    Z=              0.2247  Tot=              1.9395
 Quadrupole moment (field-independent basis, Debye-Ang):
   XX=            -13.2081   YY=            -11.5480   ZZ=            -14.0127
   XY=              2.3839   XZ=              0.0921   YZ=              0.1528

 Normal termination of Gaussian 09 at Wed Aug 26 13:10:30 2020.
