 Gaussian 09, Revision D.01,
 Gaussian 09:  ES64L-G09RevD.01 24-Apr-2013

 --------------------
 #p B2PLYPD3/Def2QZVP
 --------------------

 --------
 methanol
 --------
 Symbolic Z-matrix:
 Charge =  0 Multiplicity = 1

                         Standard orientation:
 ---------------------------------------------------------------------
 Center     Atomic      Atomic             Coordinates (Angstroms)
 Number     Number       Type             X           Y           Z
 ---------------------------------------------------------------------
      1          6           0       -0.630511    0.033992    0.003153
      2          8           0        0.723286   -0.202478    0.004507
      3          1           0       -1.100750    0.456187   -0.709553
      4          1           0       -0.907138    0.580077    0.759938
      5          1           0       -1.163023   -0.808888   -0.007382
      6          1           0        1.167688    1.188495   -0.097979
 ---------------------------------------------------------------------

 SCF Done:  E(RB2PLYPD3) =  -115.407624940     A.U. after   11 cycles
 E2(B2PLYPD3) =    -0.1564745666D+00 E(B2PLYPD3) =    -0.11556409950665D+03

 The electronic state is 1-A.
 Alpha  occ. eigenvalues --  -19.75943 -10.60872  -1.13486  -0.81065  -0.55305
 Alpha  occ. eigenvalues --   -0.53604  -0.49884  -0.38687  -0.35053
 Alpha virt. eigenvalues --   -0.03039   0.07379   0.12710   0.13157   0.14857
 Alpha virt. eigenvalues --    0.18001   0.18702   0.21606   0.29750   0.33019
 Alpha virt. eigenvalues --    0.36004   0.38463   0.39780   0.43769   0.45111

 Mulliken charges:
               1
     1  C    0.117822
     2  O   -0.455657
     3  H    0.029804
     4  H    0.032717
     5  H    0.045643
     6  H    0.229671
 Sum of Mulliken charges =   0.00000

 Dipole moment (field-independent basis, Debye):
    X=             -1.0648    Y=              1.8108    Z=             -0.1761  Tot=              2.1080
 Quadrupole moment (field-independent basis, Debye-Ang):
   XX=            -13.0751   YY=            -11.3025   ZZ=            -14.1198
   XY=              2.3812   XZ=              0.0589   YZ=             -0.0544

 Normal termination of Gaussian 09 at Wed Aug 26 22:56:19 2020.
