 Gaussian 09, Revision D.01,
 Gaussian 09:  ES64L-G09RevD.01 24-Apr-2013

 --------------------
 #p B2PLYPD3/Def2QZVP
 --------------------

 --------
 methanol
 --------
 Symbolic Z-matrix:
 Charge =  0 Multiplicity = 1

                         Standard orientation:
 ---------------------------------------------------------------------
 Center     Atomic      Atomic             Coordinates (Angstroms)
 Number     Number       Type             X           Y           Z
 ---------------------------------------------------------------------
      1          6           0       -0.667351   -0.028725   -0.007097
      2          8           0        0.740528    0.138879    0.004578
      3          1           0       -1.053376   -0.503131    0.877486
      4          1           0       -1.016548   -0.554221   -0.830096
      5          1           0       -1.054864    0.962194   -0.033132
      6          1           0        1.204668   -0.843522   -0.008302
 ---------------------------------------------------------------------

 SCF Done:  E(RB2PLYPD3) =  -115.536475867     A.U. after   11 cycles
 E2(B2PLYPD3) =    -0.1492677603D+00 E(B2PLYPD3) =    -0.11568574362768D+03

 The electronic state is 1-A.
 Alpha  occ. eigenvalues --  -19.73433 -10.64316  -1.13983  -0.78597  -0.57415
 Alpha  occ. eigenvalues --   -0.52033  -0.49402  -0.40725  -0.35187
 Alpha virt. eigenvalues --    0.03979   0.07857   0.12498   0.12690   0.15062
 Alpha virt. eigenvalues --    0.17117   0.18302   0.28991   0.30764   0.33563
 Alpha virt. eigenvalues --    0.34188   0.38937   0.39609   0.41837   0.44304

 Mulliken charges:
               1
     1  C    0.075606
     2  O   -0.486469
     3  H    0.046701
     4  H    0.048497
     5  H    0.067486
     6  H    0.248179
 Sum of Mulliken charges =   0.00000

 Dipole moment (field-independent basis, Debye):
    X=             -0.8321    Y=             -1.6059    Z=             -0.0572  Tot=              1.8096
 Quadrupole moment (field-independent basis, Debye-Ang):
   XX=            -12.8202   YY=            -12.0568   ZZ=            -13.8736
   XY=             -2.3604   XZ=             -0.0092   YZ=              0.0490

 Normal termination of Gaussian 09 at Wed Aug 26 10:19:08 2020.
