 Gaussian 09, Revision D.01,
 Gaussian 09:  ES64L-G09RevD.01 24-Apr-2013

 --------------------
 #p B2PLYPD3/Def2QZVP
 --------------------

 --------
 methanol
 --------
 Symbolic Z-matrix:
 Charge =  0 Multiplicity = 1

                         Standard orientation:
 ---------------------------------------------------------------------
 Center     Atomic      Atomic             Coordinates (Angstroms)
 Number     Number       Type             X           Y           Z
 ---------------------------------------------------------------------
      1          6           0        0.670161   -0.003401    0.002684
      2          8           0       -0.750561   -0.045032   -0.067277
      3          1           0        1.101312   -0.606496    0.915997
      4          1           0        1.036743    1.233126    0.013292
      5          1           0        1.105933   -0.497486   -0.824278
      6          1           0       -1.260462    0.251518    0.417101
 ---------------------------------------------------------------------

 SCF Done:  E(RB2PLYPD3) =  -115.464680202     A.U. after   11 cycles
 E2(B2PLYPD3) =    -0.1452940634D+00 E(B2PLYPD3) =    -0.11560997426548D+03

 The electronic state is 1-A.
 Alpha  occ. eigenvalues --  -19.70344 -10.69275  -1.20623  -0.81560  -0.60947
 Alpha  occ. eigenvalues --   -0.51416  -0.49926  -0.38930  -0.35283
 Alpha virt. eigenvalues --    0.05213   0.08563   0.11177   0.12698   0.14011
 Alpha virt. eigenvalues --    0.16916   0.18282   0.28664   0.30915   0.32548
 Alpha virt. eigenvalues --    0.34756   0.37679   0.38949   0.41512   0.42865

 Mulliken charges:
               1
     1  C    0.057088
     2  O   -0.320139
     3  H    0.051863
     4  H    0.032157
     5  H    0.096754
     6  H    0.082277
 Sum of Mulliken charges =   0.00000

 Dipole moment (field-independent basis, Debye):
    X=              0.6470    Y=              0.4137    Z=              0.8949  Tot=              1.1793
 Quadrupole moment (field-independent basis, Debye-Ang):
   XX=            -12.3064   YY=            -13.4129   ZZ=            -13.3485
   XY=             -1.3866   XZ=             -1.8329   YZ=              0.3258

 Normal termination of Gaussian 09 at Wed Aug 26 22:24:20 2020.
