 Gaussian 09, Revision D.01,
 Gaussian 09:  ES64L-G09RevD.01 24-Apr-2013

 --------------------
 #p B2PLYPD3/Def2QZVP
 --------------------

 --------
 methanol
 --------
 Symbolic Z-matrix:
 Charge =  0 Multiplicity = 1

                         Standard orientation:
 ---------------------------------------------------------------------
 Center     Atomic      Atomic             Coordinates (Angstroms)
 Number     Number       Type             X           Y           Z
 ---------------------------------------------------------------------
      1          6           0        0.700318    0.056480    0.001105
      2          8           0       -0.755704   -0.173119   -0.001962
      3          1           0        1.045213    0.430044    0.769581
      4          1           0        1.023862    0.518407   -0.746594
      5          1           0        0.991089   -0.971881   -0.033251
      6          1           0       -1.216440    1.069500    0.019334
 ---------------------------------------------------------------------

 SCF Done:  E(RB2PLYPD3) =  -115.437268840     A.U. after   11 cycles
 E2(B2PLYPD3) =    -0.1550327509D+00 E(B2PLYPD3) =    -0.11559230159094D+03

 The electronic state is 1-A.
 Alpha  occ. eigenvalues --  -19.75003 -10.61824  -1.10409  -0.81167  -0.55237
 Alpha  occ. eigenvalues --   -0.54839  -0.46612  -0.40043  -0.35915
 Alpha virt. eigenvalues --    0.00520   0.07521   0.11957   0.13066   0.14966
 Alpha virt. eigenvalues --    0.16792   0.18441   0.23631   0.28862   0.32466
 Alpha virt. eigenvalues --    0.34251   0.37524   0.39524   0.44913   0.45053

 Mulliken charges:
               1
     1  C    0.087951
     2  O   -0.494392
     3  H    0.059903
     4  H    0.055679
     5  H    0.060787
     6  H    0.230072
 Sum of Mulliken charges =   0.00000

 Dipole moment (field-independent basis, Debye):
    X=              1.2279    Y=              1.7670    Z=              0.0419  Tot=              2.1522
 Quadrupole moment (field-independent basis, Debye-Ang):
   XX=            -13.0667   YY=            -11.4412   ZZ=            -13.8833
   XY=             -2.1334   XZ=              0.0042   YZ=              0.0077

 Normal termination of Gaussian 09 at Wed Aug 26 23:48:45 2020.
