 Gaussian 09, Revision D.01,
 Gaussian 09:  ES64L-G09RevD.01 24-Apr-2013

 --------------------
 #p B2PLYPD3/Def2QZVP
 --------------------

 --------
 methanol
 --------
 Symbolic Z-matrix:
 Charge =  0 Multiplicity = 1

                         Standard orientation:
 ---------------------------------------------------------------------
 Center     Atomic      Atomic             Coordinates (Angstroms)
 Number     Number       Type             X           Y           Z
 ---------------------------------------------------------------------
      1          6           0        0.651851    0.015288    0.024237
      2          8           0       -0.756242   -0.039150    0.008498
      3          1           0        1.039610    1.190192   -0.032414
      4          1           0        1.326631   -0.664066   -0.940097
      5          1           0        0.870754   -0.501581    1.051895
      6          1           0       -1.098162    0.196926   -0.292792
 ---------------------------------------------------------------------

 SCF Done:  E(RB2PLYPD3) =  -114.821344546     A.U. after   12 cycles
 E2(B2PLYPD3) =    -0.1443875301D+00 E(B2PLYPD3) =    -0.11496573207609D+03

 The electronic state is 1-A.
 Alpha  occ. eigenvalues --  -19.69244 -10.72102  -1.33275  -0.86000  -0.61702
 Alpha  occ. eigenvalues --   -0.51478  -0.49590  -0.40166  -0.35679
 Alpha virt. eigenvalues --    0.04551   0.08833   0.10881   0.11515   0.14283
 Alpha virt. eigenvalues --    0.16296   0.17930   0.28035   0.29788   0.32062
 Alpha virt. eigenvalues --    0.32892   0.35765   0.37789   0.40958   0.42216

 Mulliken charges:
               1
     1  C    0.033551
     2  O   -0.027745
     3  H    0.048616
     4  H    0.035306
     5  H    0.100627
     6  H   -0.190355
 Sum of Mulliken charges =   0.00000

 Dipole moment (field-independent basis, Debye):
    X=              0.7410    Y=              0.6828    Z=             -0.5267  Tot=              1.1370
 Quadrupole moment (field-independent basis, Debye-Ang):
   XX=            -13.0378   YY=            -13.2528   ZZ=            -13.0851
   XY=             -0.9221   XZ=              1.1704   YZ=             -0.5050

 Normal termination of Gaussian 09 at Wed Aug 26 23:34:20 2020.
