 Gaussian 09, Revision D.01,
 Gaussian 09:  ES64L-G09RevD.01 24-Apr-2013

 --------------------
 #p B2PLYPD3/Def2QZVP
 --------------------

 --------
 methanol
 --------
 Symbolic Z-matrix:
 Charge =  0 Multiplicity = 1

                         Standard orientation:
 ---------------------------------------------------------------------
 Center     Atomic      Atomic             Coordinates (Angstroms)
 Number     Number       Type             X           Y           Z
 ---------------------------------------------------------------------
      1          6           0        0.655965   -0.012746    0.019060
      2          8           0       -0.757292    0.087992   -0.023883
      3          1           0        0.986184   -0.866960   -0.774179
      4          1           0        1.098050   -0.206506    1.037819
      5          1           0        1.130807    0.968040   -0.359835
      6          1           0       -1.092495   -0.522032    0.172905
 ---------------------------------------------------------------------

 SCF Done:  E(RB2PLYPD3) =  -115.447382090     A.U. after   11 cycles
 E2(B2PLYPD3) =    -0.1444378909D+00 E(B2PLYPD3) =    -0.11559181998135D+03

 The electronic state is 1-A.
 Alpha  occ. eigenvalues --  -19.70441 -10.68533  -1.23536  -0.80620  -0.61564
 Alpha  occ. eigenvalues --   -0.51317  -0.50399  -0.40695  -0.35988
 Alpha virt. eigenvalues --    0.05334   0.08953   0.11679   0.12135   0.14324
 Alpha virt. eigenvalues --    0.17259   0.18076   0.28542   0.32207   0.33429
 Alpha virt. eigenvalues --    0.35765   0.37922   0.39272   0.40232   0.43014

 Mulliken charges:
               1
     1  C    0.049660
     2  O   -0.266937
     3  H    0.038298
     4  H    0.058773
     5  H    0.075673
     6  H    0.044533
 Sum of Mulliken charges =   0.00000

 Dipole moment (field-independent basis, Debye):
    X=              0.8975    Y=             -1.1305    Z=              0.4510  Tot=              1.5123
 Quadrupole moment (field-independent basis, Debye-Ang):
   XX=            -13.0303   YY=            -12.8247   ZZ=            -13.4871
   XY=              2.0249   XZ=             -0.4379   YZ=             -0.3084

 Normal termination of Gaussian 09 at Wed Aug 26 14:15:47 2020.
