 Gaussian 09, Revision D.01,
 Gaussian 09:  ES64L-G09RevD.01 24-Apr-2013

 --------------------
 #p B2PLYPD3/Def2QZVP
 --------------------

 --------
 methanol
 --------
 Symbolic Z-matrix:
 Charge =  0 Multiplicity = 1

                         Standard orientation:
 ---------------------------------------------------------------------
 Center     Atomic      Atomic             Coordinates (Angstroms)
 Number     Number       Type             X           Y           Z
 ---------------------------------------------------------------------
      1          6           0        0.661200   -0.015955    0.002299
      2          8           0       -0.758633    0.096019   -0.000269
      3          1           0        1.012062   -0.616986   -0.910928
      4          1           0        1.086254   -0.461083    0.963381
      5          1           0        1.072493    1.029652   -0.095186
      6          1           0       -1.068945   -0.624005    0.031085
 ---------------------------------------------------------------------

 SCF Done:  E(RB2PLYPD3) =  -115.506180131     A.U. after   10 cycles
 E2(B2PLYPD3) =    -0.1450556313D+00 E(B2PLYPD3) =    -0.11565123576254D+03

 The electronic state is 1-A.
 Alpha  occ. eigenvalues --  -19.71065 -10.67552  -1.21158  -0.79668  -0.60695
 Alpha  occ. eigenvalues --   -0.51438  -0.50050  -0.41379  -0.35972
 Alpha virt. eigenvalues --    0.05380   0.08812   0.11935   0.12171   0.14585
 Alpha virt. eigenvalues --    0.17174   0.18059   0.28745   0.32669   0.33250
 Alpha virt. eigenvalues --    0.36809   0.38932   0.39371   0.39995   0.42975

 Mulliken charges:
               1
     1  C    0.055690
     2  O   -0.333934
     3  H    0.047731
     4  H    0.051757
     5  H    0.073733
     6  H    0.105022
 Sum of Mulliken charges =   0.00000

 Dipole moment (field-independent basis, Debye):
    X=              0.9579    Y=             -1.3143    Z=              0.0569  Tot=              1.6273
 Quadrupole moment (field-independent basis, Debye-Ang):
   XX=            -13.2288   YY=            -12.4599   ZZ=            -13.6318
   XY=              2.0243   XZ=             -0.0246   YZ=             -0.0587

 Normal termination of Gaussian 09 at Thu Aug 27 00:05:33 2020.
