 Gaussian 09, Revision D.01,
 Gaussian 09:  ES64L-G09RevD.01 24-Apr-2013

 --------------------
 #p B2PLYPD3/Def2QZVP
 --------------------

 --------
 methanol
 --------
 Symbolic Z-matrix:
 Charge =  0 Multiplicity = 1

                         Standard orientation:
 ---------------------------------------------------------------------
 Center     Atomic      Atomic             Coordinates (Angstroms)
 Number     Number       Type             X           Y           Z
 ---------------------------------------------------------------------
      1          6           0        0.649757   -0.026154   -0.003012
      2          8           0       -0.748794    0.097525   -0.006503
      3          1           0        1.086223   -0.647814   -0.835597
      4          1           0        1.080747   -0.412724    0.960139
      5          1           0        1.033737    1.083139   -0.101561
      6          1           0       -1.108894   -0.645878    0.047119
 ---------------------------------------------------------------------

 SCF Done:  E(RB2PLYPD3) =  -115.525459635     A.U. after   10 cycles
 E2(B2PLYPD3) =    -0.1456178101D+00 E(B2PLYPD3) =    -0.11567107744555D+03

 The electronic state is 1-A.
 Alpha  occ. eigenvalues --  -19.71754 -10.67389  -1.20275  -0.79224  -0.61107
 Alpha  occ. eigenvalues --   -0.51477  -0.49537  -0.40727  -0.35857
 Alpha virt. eigenvalues --    0.05300   0.08602   0.11809   0.12301   0.15072
 Alpha virt. eigenvalues --    0.16935   0.18242   0.28877   0.33388   0.33731
 Alpha virt. eigenvalues --    0.36575   0.38551   0.39828   0.40083   0.41960

 Mulliken charges:
               1
     1  C    0.049961
     2  O   -0.362947
     3  H    0.051043
     4  H    0.051469
     5  H    0.062999
     6  H    0.147475
 Sum of Mulliken charges =   0.00000

 Dipole moment (field-independent basis, Debye):
    X=              0.7756    Y=             -1.4089    Z=              0.1060  Tot=              1.6117
 Quadrupole moment (field-independent basis, Debye-Ang):
   XX=            -13.0727   YY=            -12.4462   ZZ=            -13.8148
   XY=              1.9208   XZ=             -0.1352   YZ=             -0.0295

 Normal termination of Gaussian 09 at Wed Aug 26 12:59:35 2020.
