 Gaussian 09, Revision D.01,
 Gaussian 09:  ES64L-G09RevD.01 24-Apr-2013

 --------------------
 #p B2PLYPD3/Def2QZVP
 --------------------

 --------
 methanol
 --------
 Symbolic Z-matrix:
 Charge =  0 Multiplicity = 1

                         Standard orientation:
 ---------------------------------------------------------------------
 Center     Atomic      Atomic             Coordinates (Angstroms)
 Number     Number       Type             X           Y           Z
 ---------------------------------------------------------------------
      1          6           0        0.658257    0.025753    0.015389
      2          8           0       -0.748042   -0.145188   -0.021287
      3          1           0        1.048826    0.361380    0.845561
      4          1           0        1.056641    0.700052   -0.774260
      5          1           0        1.096388   -0.951129   -0.110064
      6          1           0       -1.167062    0.896686    0.116726
 ---------------------------------------------------------------------

 SCF Done:  E(RB2PLYPD3) =  -115.518184145     A.U. after   11 cycles
 E2(B2PLYPD3) =    -0.1503817881D+00 E(B2PLYPD3) =    -0.11566856593288D+03

 The electronic state is 1-A.
 Alpha  occ. eigenvalues --  -19.74189 -10.64152  -1.13778  -0.78922  -0.57111
 Alpha  occ. eigenvalues --   -0.51750  -0.49251  -0.40864  -0.35287
 Alpha virt. eigenvalues --    0.03327   0.07661   0.12381   0.12807   0.15125
 Alpha virt. eigenvalues --    0.17393   0.18438   0.28077   0.29745   0.33477
 Alpha virt. eigenvalues --    0.34415   0.38416   0.38899   0.41613   0.44877

 Mulliken charges:
               1
     1  C    0.080298
     2  O   -0.480538
     3  H    0.050854
     4  H    0.036216
     5  H    0.060671
     6  H    0.252500
 Sum of Mulliken charges =   0.00000

 Dipole moment (field-independent basis, Debye):
    X=              0.8913    Y=              1.6396    Z=              0.3416  Tot=              1.8972
 Quadrupole moment (field-independent basis, Debye-Ang):
   XX=            -12.9499   YY=            -11.9423   ZZ=            -13.9902
   XY=             -2.3338   XZ=             -0.1326   YZ=              0.2154

 Normal termination of Gaussian 09 at Wed Aug 26 11:29:47 2020.
