 Gaussian 09, Revision D.01,
 Gaussian 09:  ES64L-G09RevD.01 24-Apr-2013

 --------------------
 #p B2PLYPD3/Def2QZVP
 --------------------

 --------
 methanol
 --------
 Symbolic Z-matrix:
 Charge =  0 Multiplicity = 1

                         Standard orientation:
 ---------------------------------------------------------------------
 Center     Atomic      Atomic             Coordinates (Angstroms)
 Number     Number       Type             X           Y           Z
 ---------------------------------------------------------------------
      1          6           0        0.668616   -0.019293    0.002010
      2          8           0       -0.757711    0.100891   -0.009692
      3          1           0        1.069669   -0.669780   -0.832709
      4          1           0        1.013997   -0.418592    0.973384
      5          1           0        1.072042    1.041820   -0.113073
      6          1           0       -1.105717   -0.644817    0.037877
 ---------------------------------------------------------------------

 SCF Done:  E(RB2PLYPD3) =  -115.527754510     A.U. after   10 cycles
 E2(B2PLYPD3) =    -0.1455248213D+00 E(B2PLYPD3) =    -0.11567327933113D+03

 The electronic state is 1-A.
 Alpha  occ. eigenvalues --  -19.71290 -10.67123  -1.19374  -0.79427  -0.60305
 Alpha  occ. eigenvalues --   -0.51508  -0.49548  -0.41293  -0.35850
 Alpha virt. eigenvalues --    0.05353   0.08687   0.11992   0.12224   0.14756
 Alpha virt. eigenvalues --    0.17072   0.17977   0.28984   0.32578   0.33363
 Alpha virt. eigenvalues --    0.37279   0.38617   0.39470   0.40269   0.42765

 Mulliken charges:
               1
     1  C    0.062325
     2  O   -0.380807
     3  H    0.049338
     4  H    0.054594
     5  H    0.071899
     6  H    0.142651
 Sum of Mulliken charges =   0.00000

 Dipole moment (field-independent basis, Debye):
    X=              0.9415    Y=             -1.3871    Z=              0.1121  Tot=              1.6802
 Quadrupole moment (field-independent basis, Debye-Ang):
   XX=            -13.1128   YY=            -12.3654   ZZ=            -13.7026
   XY=              2.0346   XZ=             -0.1568   YZ=             -0.0562

 Normal termination of Gaussian 09 at Thu Aug 27 01:09:10 2020.
