 Gaussian 09, Revision D.01,
 Gaussian 09:  ES64L-G09RevD.01 24-Apr-2013

 --------------------
 #p B2PLYPD3/Def2QZVP
 --------------------

 --------
 methanol
 --------
 Symbolic Z-matrix:
 Charge =  0 Multiplicity = 1

                         Standard orientation:
 ---------------------------------------------------------------------
 Center     Atomic      Atomic             Coordinates (Angstroms)
 Number     Number       Type             X           Y           Z
 ---------------------------------------------------------------------
      1          6           0       -0.651068   -0.045052   -0.018877
      2          8           0        0.763447    0.071226   -0.012314
      3          1           0       -0.987849   -0.439454    1.085193
      4          1           0       -1.101260   -0.658421   -0.861523
      5          1           0       -1.186862    1.162115   -0.060795
      6          1           0        1.074806   -0.363733    0.048903
 ---------------------------------------------------------------------

 SCF Done:  E(RB2PLYPD3) =  -114.964607530     A.U. after   12 cycles
 E2(B2PLYPD3) =    -0.1438137355D+00 E(B2PLYPD3) =    -0.11510842126541D+03

 The electronic state is 1-A.
 Alpha  occ. eigenvalues --  -19.69040 -10.70973  -1.32313  -0.83791  -0.63154
 Alpha  occ. eigenvalues --   -0.51972  -0.49384  -0.39401  -0.36940
 Alpha virt. eigenvalues --    0.04719   0.09523   0.10701   0.11516   0.14098
 Alpha virt. eigenvalues --    0.16939   0.18105   0.27988   0.31371   0.31949
 Alpha virt. eigenvalues --    0.33315   0.36173   0.38450   0.40829   0.43195

 Mulliken charges:
               1
     1  C    0.043881
     2  O   -0.073532
     3  H    0.048645
     4  H    0.075036
     5  H    0.060395
     6  H   -0.154426
 Sum of Mulliken charges =   0.00000

 Dipole moment (field-independent basis, Debye):
    X=             -0.9498    Y=             -1.1513    Z=              0.0799  Tot=              1.4947
 Quadrupole moment (field-independent basis, Debye-Ang):
   XX=            -12.9405   YY=            -12.8978   ZZ=            -13.3977
   XY=             -1.6276   XZ=              0.4071   YZ=              0.1138

 Normal termination of Gaussian 09 at Wed Aug 26 23:53:27 2020.
