 Gaussian 09, Revision D.01,
 Gaussian 09:  ES64L-G09RevD.01 24-Apr-2013

 --------------------
 #p B2PLYPD3/Def2QZVP
 --------------------

 --------
 methanol
 --------
 Symbolic Z-matrix:
 Charge =  0 Multiplicity = 1

                         Standard orientation:
 ---------------------------------------------------------------------
 Center     Atomic      Atomic             Coordinates (Angstroms)
 Number     Number       Type             X           Y           Z
 ---------------------------------------------------------------------
      1          6           0       -0.662027    0.024182   -0.007806
      2          8           0        0.733725   -0.149018    0.003618
      3          1           0       -0.991652    0.518244   -0.813475
      4          1           0       -0.927367    0.567752    0.851732
      5          1           0       -1.091991   -0.931617    0.021032
      6          1           0        1.113368    0.892672   -0.041399
 ---------------------------------------------------------------------

 SCF Done:  E(RB2PLYPD3) =  -115.525754084     A.U. after   11 cycles
 E2(B2PLYPD3) =    -0.1493460344D+00 E(B2PLYPD3) =    -0.11567510011854D+03

 The electronic state is 1-A.
 Alpha  occ. eigenvalues --  -19.73401 -10.63286  -1.14292  -0.78875  -0.57477
 Alpha  occ. eigenvalues --   -0.53072  -0.49580  -0.41112  -0.34968
 Alpha virt. eigenvalues --    0.03598   0.08096   0.12551   0.12661   0.14908
 Alpha virt. eigenvalues --    0.17598   0.17884   0.28820   0.29986   0.33143
 Alpha virt. eigenvalues --    0.34666   0.39646   0.40058   0.42534   0.44707

 Mulliken charges:
               1
     1  C    0.089696
     2  O   -0.484148
     3  H    0.041667
     4  H    0.040900
     5  H    0.064620
     6  H    0.247264
 Sum of Mulliken charges =   0.00000

 Dipole moment (field-independent basis, Debye):
    X=             -0.9624    Y=              1.6622    Z=             -0.1080  Tot=              1.9238
 Quadrupole moment (field-independent basis, Debye-Ang):
   XX=            -13.2682   YY=            -11.7798   ZZ=            -13.7940
   XY=              2.3276   XZ=              0.0190   YZ=             -0.0966

 Normal termination of Gaussian 09 at Wed Aug 26 10:54:38 2020.
