 Gaussian 09, Revision D.01,
 Gaussian 09:  ES64L-G09RevD.01 24-Apr-2013

 --------------------
 #p B2PLYPD3/Def2QZVP
 --------------------

 --------
 methanol
 --------
 Symbolic Z-matrix:
 Charge =  0 Multiplicity = 1

                         Standard orientation:
 ---------------------------------------------------------------------
 Center     Atomic      Atomic             Coordinates (Angstroms)
 Number     Number       Type             X           Y           Z
 ---------------------------------------------------------------------
      1          6           0        0.671923    0.025384    0.016761
      2          8           0       -0.744086   -0.142319   -0.015097
      3          1           0        1.034496    0.384659    0.834260
      4          1           0        1.043976    0.670895   -0.778498
      5          1           0        1.015925   -0.972584   -0.113951
      6          1           0       -1.173251    0.903280    0.078399
 ---------------------------------------------------------------------

 SCF Done:  E(RB2PLYPD3) =  -115.515533366     A.U. after   11 cycles
 E2(B2PLYPD3) =    -0.1503648228D+00 E(B2PLYPD3) =    -0.11566589818913D+03

 The electronic state is 1-A.
 Alpha  occ. eigenvalues --  -19.73845 -10.63645  -1.13300  -0.79159  -0.57419
 Alpha  occ. eigenvalues --   -0.52140  -0.48661  -0.41094  -0.35260
 Alpha virt. eigenvalues --    0.03381   0.07832   0.12281   0.12833   0.15219
 Alpha virt. eigenvalues --    0.17012   0.18252   0.28252   0.29838   0.33513
 Alpha virt. eigenvalues --    0.34162   0.38527   0.38884   0.42010   0.45546

 Mulliken charges:
               1
     1  C    0.081708
     2  O   -0.487520
     3  H    0.052491
     4  H    0.039331
     5  H    0.066565
     6  H    0.247425
 Sum of Mulliken charges =   0.00000

 Dipole moment (field-independent basis, Debye):
    X=              0.9387    Y=              1.6483    Z=              0.2456  Tot=              1.9128
 Quadrupole moment (field-independent basis, Debye-Ang):
   XX=            -13.0363   YY=            -11.7886   ZZ=            -13.9225
   XY=             -2.2467   XZ=             -0.0642   YZ=              0.1807

 Normal termination of Gaussian 09 at Wed Aug 26 15:45:04 2020.
