 Gaussian 09, Revision D.01,
 Gaussian 09:  ES64L-G09RevD.01 24-Apr-2013

 --------------------
 #p B2PLYPD3/Def2QZVP
 --------------------

 --------
 methanol
 --------
 Symbolic Z-matrix:
 Charge =  0 Multiplicity = 1

                         Standard orientation:
 ---------------------------------------------------------------------
 Center     Atomic      Atomic             Coordinates (Angstroms)
 Number     Number       Type             X           Y           Z
 ---------------------------------------------------------------------
      1          6           0        0.666593   -0.013275   -0.008204
      2          8           0       -0.755581    0.126574   -0.002221
      3          1           0        1.052928   -0.585261   -0.867033
      4          1           0        1.118420   -0.486962    0.909711
      5          1           0        1.071462    0.945662   -0.024684
      6          1           0       -1.197717   -0.806381    0.048993
 ---------------------------------------------------------------------

 SCF Done:  E(RB2PLYPD3) =  -115.543525799     A.U. after   10 cycles
 E2(B2PLYPD3) =    -0.1488676883D+00 E(B2PLYPD3) =    -0.11569239348687D+03

 The electronic state is 1-A.
 Alpha  occ. eigenvalues --  -19.73438 -10.65600  -1.14522  -0.78469  -0.57596
 Alpha  occ. eigenvalues --   -0.50964  -0.49785  -0.40987  -0.35198
 Alpha virt. eigenvalues --    0.04464   0.07716   0.12415   0.12615   0.14937
 Alpha virt. eigenvalues --    0.17214   0.18424   0.28985   0.32288   0.33300
 Alpha virt. eigenvalues --    0.33718   0.38237   0.39750   0.40537   0.43447

 Mulliken charges:
               1
     1  C    0.067793
     2  O   -0.476910
     3  H    0.047654
     4  H    0.041666
     5  H    0.074493
     6  H    0.245304
 Sum of Mulliken charges =   0.00000

 Dipole moment (field-independent basis, Debye):
    X=              0.8267    Y=             -1.4999    Z=              0.0603  Tot=              1.7136
 Quadrupole moment (field-independent basis, Debye-Ang):
   XX=            -12.7487   YY=            -12.2293   ZZ=            -13.9754
   XY=              2.4095   XZ=             -0.0987   YZ=             -0.0111

 Normal termination of Gaussian 09 at Wed Aug 26 14:57:05 2020.
