 Gaussian 09, Revision D.01,
 Gaussian 09:  ES64L-G09RevD.01 24-Apr-2013

 --------------------
 #p B2PLYPD3/Def2QZVP
 --------------------

 --------
 methanol
 --------
 Symbolic Z-matrix:
 Charge =  0 Multiplicity = 1

                         Standard orientation:
 ---------------------------------------------------------------------
 Center     Atomic      Atomic             Coordinates (Angstroms)
 Number     Number       Type             X           Y           Z
 ---------------------------------------------------------------------
      1          6           0        0.645397   -0.051158    0.031117
      2          8           0       -0.768363    0.072195    0.006887
      3          1           0        0.998766   -0.693294   -0.958873
      4          1           0        1.113422   -0.439794    0.973559
      5          1           0        1.237547    1.189634   -0.207645
      6          1           0       -1.075211   -0.327160   -0.048843
 ---------------------------------------------------------------------

 SCF Done:  E(RB2PLYPD3) =  -114.786127885     A.U. after   12 cycles
 E2(B2PLYPD3) =    -0.1443005298D+00 E(B2PLYPD3) =    -0.11493042841469D+03

 The electronic state is 1-A.
 Alpha  occ. eigenvalues --  -19.69533 -10.71801  -1.34118  -0.84495  -0.63653
 Alpha  occ. eigenvalues --   -0.52296  -0.49072  -0.38271  -0.37638
 Alpha virt. eigenvalues --    0.04271   0.09497   0.10008   0.11551   0.14109
 Alpha virt. eigenvalues --    0.17081   0.18065   0.27814   0.29506   0.31760
 Alpha virt. eigenvalues --    0.32959   0.35505   0.38665   0.40974   0.43177

 Mulliken charges:
               1
     1  C    0.042202
     2  O   -0.026073
     3  H    0.047212
     4  H    0.086265
     5  H    0.048522
     6  H   -0.198128
 Sum of Mulliken charges =   0.00000

 Dipole moment (field-independent basis, Debye):
    X=              0.9360    Y=             -1.1922    Z=             -0.0251  Tot=              1.5160
 Quadrupole moment (field-independent basis, Debye-Ang):
   XX=            -12.8812   YY=            -13.1101   ZZ=            -13.3284
   XY=              1.5121   XZ=              0.3908   YZ=             -0.0367

 Normal termination of Gaussian 09 at Wed Aug 26 22:59:01 2020.
