 Gaussian 09, Revision D.01,
 Gaussian 09:  ES64L-G09RevD.01 24-Apr-2013

 --------------------
 #p B2PLYPD3/Def2QZVP
 --------------------

 --------
 methanol
 --------
 Symbolic Z-matrix:
 Charge =  0 Multiplicity = 1

                         Standard orientation:
 ---------------------------------------------------------------------
 Center     Atomic      Atomic             Coordinates (Angstroms)
 Number     Number       Type             X           Y           Z
 ---------------------------------------------------------------------
      1          6           0        0.673515    0.010639   -0.029267
      2          8           0       -0.781877    0.053655    0.019795
      3          1           0        1.145207   -0.520490   -0.934507
      4          1           0        1.081640   -0.688825    0.975953
      5          1           0        1.051041    1.132764    0.109178
      6          1           0       -1.063961   -0.416527   -0.133382
 ---------------------------------------------------------------------

 SCF Done:  E(RB2PLYPD3) =  -115.097669724     A.U. after   11 cycles
 E2(B2PLYPD3) =    -0.1441567592D+00 E(B2PLYPD3) =    -0.11524182648293D+03

 The electronic state is 1-A.
 Alpha  occ. eigenvalues --  -19.69015 -10.70779  -1.30101  -0.82327  -0.62622
 Alpha  occ. eigenvalues --   -0.50066  -0.49305  -0.42297  -0.35889
 Alpha virt. eigenvalues --    0.04907   0.09173   0.11063   0.11390   0.14604
 Alpha virt. eigenvalues --    0.16614   0.17725   0.28556   0.30131   0.32109
 Alpha virt. eigenvalues --    0.35101   0.35823   0.37191   0.41016   0.42165

 Mulliken charges:
               1
     1  C    0.047965
     2  O   -0.135211
     3  H    0.063532
     4  H    0.036768
     5  H    0.091254
     6  H   -0.104307
 Sum of Mulliken charges =   0.00000

 Dipole moment (field-independent basis, Debye):
    X=              1.1118    Y=             -0.9799    Z=             -0.5172  Tot=              1.5697
 Quadrupole moment (field-independent basis, Debye-Ang):
   XX=            -13.1246   YY=            -12.4965   ZZ=            -13.6464
   XY=              1.6679   XZ=              0.2270   YZ=              0.4177

 Normal termination of Gaussian 09 at Wed Aug 26 23:47:27 2020.
