 Gaussian 09, Revision D.01,
 Gaussian 09:  ES64L-G09RevD.01 24-Apr-2013

 --------------------
 #p B2PLYPD3/Def2QZVP
 --------------------

 --------
 methanol
 --------
 Symbolic Z-matrix:
 Charge =  0 Multiplicity = 1

                         Standard orientation:
 ---------------------------------------------------------------------
 Center     Atomic      Atomic             Coordinates (Angstroms)
 Number     Number       Type             X           Y           Z
 ---------------------------------------------------------------------
      1          6           0        0.656254    0.038561   -0.005432
      2          8           0       -0.746338   -0.167186   -0.005045
      3          1           0        0.984939    0.491862    0.835929
      4          1           0        1.029877    0.571834   -0.775171
      5          1           0        1.204257   -0.909196   -0.008064
      6          1           0       -1.185897    0.951618    0.020265
 ---------------------------------------------------------------------

 SCF Done:  E(RB2PLYPD3) =  -115.502846711     A.U. after   11 cycles
 E2(B2PLYPD3) =    -0.1515105045D+00 E(B2PLYPD3) =    -0.11565435721535D+03

 The electronic state is 1-A.
 Alpha  occ. eigenvalues --  -19.74525 -10.63474  -1.13017  -0.79083  -0.55675
 Alpha  occ. eigenvalues --   -0.52751  -0.49298  -0.40194  -0.35361
 Alpha virt. eigenvalues --    0.02260   0.07487   0.12614   0.12884   0.14754
 Alpha virt. eigenvalues --    0.18029   0.18380   0.26051   0.29573   0.33529
 Alpha virt. eigenvalues --    0.34185   0.38625   0.40116   0.42656   0.43433

 Mulliken charges:
               1
     1  C    0.093260
     2  O   -0.489288
     3  H    0.044178
     4  H    0.043780
     5  H    0.052986
     6  H    0.255084
 Sum of Mulliken charges =   0.00000

 Dipole moment (field-independent basis, Debye):
    X=              0.9335    Y=              1.7728    Z=              0.0514  Tot=              2.0043
 Quadrupole moment (field-independent basis, Debye-Ang):
   XX=            -12.8500   YY=            -11.9052   ZZ=            -13.9833
   XY=             -2.4386   XZ=             -0.0696   YZ=             -0.0061

 Normal termination of Gaussian 09 at Wed Aug 26 11:15:29 2020.
