 Gaussian 09, Revision D.01,
 Gaussian 09:  ES64L-G09RevD.01 24-Apr-2013

 --------------------
 #p B2PLYPD3/Def2QZVP
 --------------------

 --------
 methanol
 --------
 Symbolic Z-matrix:
 Charge =  0 Multiplicity = 1

                         Standard orientation:
 ---------------------------------------------------------------------
 Center     Atomic      Atomic             Coordinates (Angstroms)
 Number     Number       Type             X           Y           Z
 ---------------------------------------------------------------------
      1          6           0        0.657866    0.029038   -0.008451
      2          8           0       -0.737614   -0.159362    0.002751
      3          1           0        0.980659    0.509062    0.852435
      4          1           0        1.035114    0.471355   -0.810266
      5          1           0        1.039114   -0.892267    0.017533
      6          1           0       -1.101170    1.012517   -0.031007
 ---------------------------------------------------------------------

 SCF Done:  E(RB2PLYPD3) =  -115.491231223     A.U. after   11 cycles
 E2(B2PLYPD3) =    -0.1518817868D+00 E(B2PLYPD3) =    -0.11564311301033D+03

 The electronic state is 1-A.
 Alpha  occ. eigenvalues --  -19.74443 -10.62328  -1.13278  -0.79421  -0.56357
 Alpha  occ. eigenvalues --   -0.53365  -0.49193  -0.40635  -0.35288
 Alpha virt. eigenvalues --    0.01929   0.07824   0.12650   0.12753   0.14866
 Alpha virt. eigenvalues --    0.17472   0.18467   0.25611   0.29430   0.33474
 Alpha virt. eigenvalues --    0.34928   0.38987   0.40348   0.43006   0.44635

 Mulliken charges:
               1
     1  C    0.093671
     2  O   -0.482403
     3  H    0.041184
     4  H    0.041683
     5  H    0.058685
     6  H    0.247180
 Sum of Mulliken charges =   0.00000

 Dipole moment (field-independent basis, Debye):
    X=              1.0682    Y=              1.6754    Z=             -0.0795  Tot=              1.9886
 Quadrupole moment (field-independent basis, Debye-Ang):
   XX=            -13.3689   YY=            -11.6124   ZZ=            -13.7784
   XY=             -2.2753   XZ=             -0.0316   YZ=             -0.0776

 Normal termination of Gaussian 09 at Wed Aug 26 12:47:08 2020.
