 Gaussian 09, Revision D.01,
 Gaussian 09:  ES64L-G09RevD.01 24-Apr-2013

 --------------------
 #p B2PLYPD3/Def2QZVP
 --------------------

 --------
 methanol
 --------
 Symbolic Z-matrix:
 Charge =  0 Multiplicity = 1

                         Standard orientation:
 ---------------------------------------------------------------------
 Center     Atomic      Atomic             Coordinates (Angstroms)
 Number     Number       Type             X           Y           Z
 ---------------------------------------------------------------------
      1          6           0       -0.670497    0.023305    0.003488
      2          8           0        0.735511   -0.147238   -0.009649
      3          1           0       -0.973211    0.635340   -0.822507
      4          1           0       -1.071233    0.444049    0.843637
      5          1           0       -1.041809   -0.928442   -0.057796
      6          1           0        1.225144    0.887125    0.092932
 ---------------------------------------------------------------------

 SCF Done:  E(RB2PLYPD3) =  -115.519324763     A.U. after   11 cycles
 E2(B2PLYPD3) =    -0.1502830412D+00 E(B2PLYPD3) =    -0.11566960780433D+03

 The electronic state is 1-A.
 Alpha  occ. eigenvalues --  -19.73708 -10.63563  -1.13262  -0.78845  -0.56942
 Alpha  occ. eigenvalues --   -0.52181  -0.49386  -0.40699  -0.34919
 Alpha virt. eigenvalues --    0.03195   0.07798   0.12594   0.12758   0.15069
 Alpha virt. eigenvalues --    0.17094   0.18254   0.28055   0.29692   0.33180
 Alpha virt. eigenvalues --    0.34621   0.38924   0.39659   0.42172   0.44526

 Mulliken charges:
               1
     1  C    0.082047
     2  O   -0.492655
     3  H    0.043185
     4  H    0.045604
     5  H    0.070125
     6  H    0.251695
 Sum of Mulliken charges =   0.00000

 Dipole moment (field-independent basis, Debye):
    X=             -0.8439    Y=              1.6169    Z=              0.2069  Tot=              1.8356
 Quadrupole moment (field-independent basis, Debye-Ang):
   XX=            -12.7850   YY=            -11.9092   ZZ=            -13.9130
   XY=              2.4430   XZ=              0.0789   YZ=              0.1269

 Normal termination of Gaussian 09 at Wed Aug 26 14:22:45 2020.
