 Gaussian 09, Revision D.01,
 Gaussian 09:  ES64L-G09RevD.01 24-Apr-2013

 --------------------
 #p B2PLYPD3/Def2QZVP
 --------------------

 --------
 methanol
 --------
 Symbolic Z-matrix:
 Charge =  0 Multiplicity = 1

                         Standard orientation:
 ---------------------------------------------------------------------
 Center     Atomic      Atomic             Coordinates (Angstroms)
 Number     Number       Type             X           Y           Z
 ---------------------------------------------------------------------
      1          6           0       -0.661770   -0.023704   -0.003006
      2          8           0        0.740799    0.112359   -0.005511
      3          1           0       -0.982178   -0.490581    0.960941
      4          1           0       -1.029585   -0.590437   -0.882211
      5          1           0       -1.088721    0.994460   -0.033686
      6          1           0        1.144711   -0.670087    0.017081
 ---------------------------------------------------------------------

 SCF Done:  E(RB2PLYPD3) =  -115.546119281     A.U. after   10 cycles
 E2(B2PLYPD3) =    -0.1458645158D+00 E(B2PLYPD3) =    -0.11569198379702D+03

 The electronic state is 1-A.
 Alpha  occ. eigenvalues --  -19.71643 -10.66322  -1.18144  -0.79181  -0.59677
 Alpha  occ. eigenvalues --   -0.52028  -0.50267  -0.40582  -0.35452
 Alpha virt. eigenvalues --    0.05290   0.08572   0.12161   0.12465   0.14621
 Alpha virt. eigenvalues --    0.17195   0.18075   0.29011   0.33086   0.33800
 Alpha virt. eigenvalues --    0.36824   0.39109   0.39839   0.40573   0.43513

 Mulliken charges:
               1
     1  C    0.064939
     2  O   -0.422073
     3  H    0.047770
     4  H    0.049678
     5  H    0.071753
     6  H    0.187933
 Sum of Mulliken charges =   0.00000

 Dipole moment (field-independent basis, Debye):
    X=             -0.8026    Y=             -1.4019    Z=              0.0329  Tot=              1.6157
 Quadrupole moment (field-independent basis, Debye-Ang):
   XX=            -12.9785   YY=            -12.4491   ZZ=            -13.6529
   XY=             -2.2331   XZ=              0.1225   YZ=              0.0071

 Normal termination of Gaussian 09 at Thu Aug 27 00:14:30 2020.
