 Gaussian 09, Revision D.01,
 Gaussian 09:  ES64L-G09RevD.01 24-Apr-2013

 --------------------
 #p B2PLYPD3/Def2QZVP
 --------------------

 --------
 methanol
 --------
 Symbolic Z-matrix:
 Charge =  0 Multiplicity = 1

                         Standard orientation:
 ---------------------------------------------------------------------
 Center     Atomic      Atomic             Coordinates (Angstroms)
 Number     Number       Type             X           Y           Z
 ---------------------------------------------------------------------
      1          6           0       -0.650698   -0.034725    0.040469
      2          8           0        0.751239    0.070692   -0.033414
      3          1           0       -1.013584   -0.347078    0.993215
      4          1           0       -1.163930   -0.703729   -0.895377
      5          1           0       -1.073436    1.138373   -0.183604
      6          1           0        1.145222   -0.444754    0.110264
 ---------------------------------------------------------------------

 SCF Done:  E(RB2PLYPD3) =  -115.345205564     A.U. after   11 cycles
 E2(B2PLYPD3) =    -0.1443050109D+00 E(B2PLYPD3) =    -0.11548951057446D+03

 The electronic state is 1-A.
 Alpha  occ. eigenvalues --  -19.69846 -10.69654  -1.25968  -0.82335  -0.62888
 Alpha  occ. eigenvalues --   -0.51465  -0.49332  -0.39669  -0.36090
 Alpha virt. eigenvalues --    0.05095   0.08993   0.11117   0.11803   0.14638
 Alpha virt. eigenvalues --    0.16713   0.18376   0.28483   0.32383   0.32806
 Alpha virt. eigenvalues --    0.34313   0.35752   0.40565   0.41519   0.41746

 Mulliken charges:
               1
     1  C    0.036068
     2  O   -0.198860
     3  H    0.074804
     4  H    0.042056
     5  H    0.062337
     6  H   -0.016405
 Sum of Mulliken charges =   0.00000

 Dipole moment (field-independent basis, Debye):
    X=             -0.7034    Y=             -1.1286    Z=              0.5125  Tot=              1.4252
 Quadrupole moment (field-independent basis, Debye-Ang):
   XX=            -12.8101   YY=            -13.0320   ZZ=            -13.4630
   XY=             -1.6989   XZ=              0.3550   YZ=             -0.2964

 Normal termination of Gaussian 09 at Wed Aug 26 20:18:46 2020.
