 Gaussian 09, Revision D.01,
 Gaussian 09:  ES64L-G09RevD.01 24-Apr-2013

 --------------------
 #p B2PLYPD3/Def2QZVP
 --------------------

 --------
 methanol
 --------
 Symbolic Z-matrix:
 Charge =  0 Multiplicity = 1

                         Standard orientation:
 ---------------------------------------------------------------------
 Center     Atomic      Atomic             Coordinates (Angstroms)
 Number     Number       Type             X           Y           Z
 ---------------------------------------------------------------------
      1          6           0        0.680622    0.071808    0.010408
      2          8           0       -0.760962   -0.194971   -0.003671
      3          1           0        1.068291    0.382547    0.784691
      4          1           0        1.079687    0.583978   -0.710085
      5          1           0        1.192848   -0.910087   -0.110853
      6          1           0       -1.336861    1.072480    0.003167
 ---------------------------------------------------------------------

 SCF Done:  E(RB2PLYPD3) =  -115.425373590     A.U. after   11 cycles
 E2(B2PLYPD3) =    -0.1564394136D+00 E(B2PLYPD3) =    -0.11558181300351D+03

 The electronic state is 1-A.
 Alpha  occ. eigenvalues --  -19.75872 -10.62615  -1.10280  -0.81220  -0.53684
 Alpha  occ. eigenvalues --   -0.53037  -0.47797  -0.39020  -0.36110
 Alpha virt. eigenvalues --   -0.01082   0.07017   0.12253   0.13182   0.14703
 Alpha virt. eigenvalues --    0.17480   0.18881   0.22193   0.28790   0.32689
 Alpha virt. eigenvalues --    0.34578   0.36729   0.39929   0.43147   0.44077

 Mulliken charges:
               1
     1  C    0.090644
     2  O   -0.487026
     3  H    0.064341
     4  H    0.051936
     5  H    0.041325
     6  H    0.238779
 Sum of Mulliken charges =   0.00000

 Dipole moment (field-independent basis, Debye):
    X=              1.0373    Y=              1.8370    Z=              0.0396  Tot=              2.1100
 Quadrupole moment (field-independent basis, Debye-Ang):
   XX=            -12.3234   YY=            -11.8396   ZZ=            -14.0966
   XY=             -2.4912   XZ=              0.0117   YZ=             -0.0039

 Normal termination of Gaussian 09 at Wed Aug 26 23:07:50 2020.
