 Gaussian 09, Revision D.01,
 Gaussian 09:  ES64L-G09RevD.01 24-Apr-2013

 --------------------
 #p B2PLYPD3/Def2QZVP
 --------------------

 --------
 methanol
 --------
 Symbolic Z-matrix:
 Charge =  0 Multiplicity = 1

                         Standard orientation:
 ---------------------------------------------------------------------
 Center     Atomic      Atomic             Coordinates (Angstroms)
 Number     Number       Type             X           Y           Z
 ---------------------------------------------------------------------
      1          6           0        0.659775    0.001823    0.000871
      2          8           0       -0.744990   -0.150806    0.003808
      3          1           0        1.130271    0.497420    0.853906
      4          1           0        1.043682    0.553790   -0.849107
      5          1           0        1.014949   -0.851196   -0.048935
      6          1           0       -1.187630    0.995499    0.008447
 ---------------------------------------------------------------------

 SCF Done:  E(RB2PLYPD3) =  -115.484320343     A.U. after   11 cycles
 E2(B2PLYPD3) =    -0.1522216860D+00 E(B2PLYPD3) =    -0.11563654202935D+03

 The electronic state is 1-A.
 Alpha  occ. eigenvalues --  -19.74742 -10.63318  -1.13034  -0.79340  -0.56293
 Alpha  occ. eigenvalues --   -0.50741  -0.50353  -0.40996  -0.34811
 Alpha virt. eigenvalues --    0.01808   0.07532   0.12690   0.12882   0.15056
 Alpha virt. eigenvalues --    0.17319   0.18510   0.25541   0.29499   0.33364
 Alpha virt. eigenvalues --    0.34634   0.37795   0.40421   0.41144   0.43331

 Mulliken charges:
               1
     1  C    0.067101
     2  O   -0.483389
     3  H    0.040075
     4  H    0.037234
     5  H    0.082634
     6  H    0.256344
 Sum of Mulliken charges =   0.00000

 Dipole moment (field-independent basis, Debye):
    X=              0.8960    Y=              1.6003    Z=             -0.0187  Tot=              1.8342
 Quadrupole moment (field-independent basis, Debye-Ang):
   XX=            -12.9495   YY=            -11.6995   ZZ=            -14.0754
   XY=             -2.5016   XZ=              0.0207   YZ=              0.0269

 Normal termination of Gaussian 09 at Wed Aug 26 11:09:05 2020.
