 Gaussian 09, Revision D.01,
 Gaussian 09:  ES64L-G09RevD.01 24-Apr-2013

 --------------------
 #p B2PLYPD3/Def2QZVP
 --------------------

 --------
 methanol
 --------
 Symbolic Z-matrix:
 Charge =  0 Multiplicity = 1

                         Standard orientation:
 ---------------------------------------------------------------------
 Center     Atomic      Atomic             Coordinates (Angstroms)
 Number     Number       Type             X           Y           Z
 ---------------------------------------------------------------------
      1          6           0       -0.665991   -0.026227   -0.000604
      2          8           0        0.743453    0.103714   -0.010531
      3          1           0       -0.991727   -0.451998    0.963403
      4          1           0       -1.003327   -0.661328   -0.854735
      5          1           0       -1.097742    1.043676   -0.081206
      6          1           0        1.141116   -0.602701    0.060409
 ---------------------------------------------------------------------

 SCF Done:  E(RB2PLYPD3) =  -115.522619605     A.U. after   10 cycles
 E2(B2PLYPD3) =    -0.1450002716D+00 E(B2PLYPD3) =    -0.11566761987649D+03

 The electronic state is 1-A.
 Alpha  occ. eigenvalues --  -19.70819 -10.67025  -1.19778  -0.79845  -0.60563
 Alpha  occ. eigenvalues --   -0.52115  -0.49797  -0.40514  -0.35689
 Alpha virt. eigenvalues --    0.05390   0.08841   0.12063   0.12207   0.14652
 Alpha virt. eigenvalues --    0.17055   0.17830   0.29022   0.33103   0.33272
 Alpha virt. eigenvalues --    0.37086   0.38778   0.39957   0.40467   0.43030

 Mulliken charges:
               1
     1  C    0.065115
     2  O   -0.372706
     3  H    0.051959
     4  H    0.051500
     5  H    0.071269
     6  H    0.132863
 Sum of Mulliken charges =   0.00000

 Dipole moment (field-independent basis, Debye):
    X=             -0.8292    Y=             -1.3693    Z=              0.1537  Tot=              1.6082
 Quadrupole moment (field-independent basis, Debye-Ang):
   XX=            -12.9763   YY=            -12.4701   ZZ=            -13.6292
   XY=             -2.0934   XZ=              0.1916   YZ=             -0.0545

 Normal termination of Gaussian 09 at Thu Aug 27 00:15:14 2020.
