 Gaussian 09, Revision D.01,
 Gaussian 09:  ES64L-G09RevD.01 24-Apr-2013

 --------------------
 #p B2PLYPD3/Def2QZVP
 --------------------

 --------
 methanol
 --------
 Symbolic Z-matrix:
 Charge =  0 Multiplicity = 1

                         Standard orientation:
 ---------------------------------------------------------------------
 Center     Atomic      Atomic             Coordinates (Angstroms)
 Number     Number       Type             X           Y           Z
 ---------------------------------------------------------------------
      1          6           0        0.646116   -0.010624    0.003166
      2          8           0       -0.744512    0.108540   -0.001262
      3          1           0        1.056875   -0.547954   -0.918808
      4          1           0        1.026853   -0.526846    0.934512
      5          1           0        1.077865    0.972294   -0.016185
      6          1           0       -1.082195   -0.702065   -0.008423
 ---------------------------------------------------------------------

 SCF Done:  E(RB2PLYPD3) =  -115.544127941     A.U. after   10 cycles
 E2(B2PLYPD3) =    -0.1459066229D+00 E(B2PLYPD3) =    -0.11569003456434D+03

 The electronic state is 1-A.
 Alpha  occ. eigenvalues --  -19.72156 -10.66365  -1.19154  -0.79062  -0.60079
 Alpha  occ. eigenvalues --   -0.51584  -0.50896  -0.41173  -0.35425
 Alpha virt. eigenvalues --    0.05238   0.08548   0.12114   0.12556   0.14780
 Alpha virt. eigenvalues --    0.17412   0.18167   0.28860   0.33036   0.34236
 Alpha virt. eigenvalues --    0.36391   0.39019   0.39942   0.40430   0.43830

 Mulliken charges:
               1
     1  C    0.059642
     2  O   -0.403597
     3  H    0.039626
     4  H    0.043200
     5  H    0.073172
     6  H    0.187956
 Sum of Mulliken charges =   0.00000

 Dipole moment (field-independent basis, Debye):
    X=              0.8261    Y=             -1.3678    Z=             -0.0025  Tot=              1.5979
 Quadrupole moment (field-independent basis, Debye-Ang):
   XX=            -13.1850   YY=            -12.3791   ZZ=            -13.7504
   XY=              2.1956   XZ=             -0.0016   YZ=             -0.0110

 Normal termination of Gaussian 09 at Wed Aug 26 11:32:33 2020.
