 Gaussian 09, Revision D.01,
 Gaussian 09:  ES64L-G09RevD.01 24-Apr-2013

 --------------------
 #p B2PLYPD3/Def2QZVP
 --------------------

 --------
 methanol
 --------
 Symbolic Z-matrix:
 Charge =  0 Multiplicity = 1

                         Standard orientation:
 ---------------------------------------------------------------------
 Center     Atomic      Atomic             Coordinates (Angstroms)
 Number     Number       Type             X           Y           Z
 ---------------------------------------------------------------------
      1          6           0        0.672922    0.063532    0.030723
      2          8           0       -0.755755   -0.189827   -0.016022
      3          1           0        1.065593    0.349194    0.772249
      4          1           0        1.079624    0.637228   -0.751947
      5          1           0        1.206011   -0.887310   -0.131309
      6          1           0       -1.342726    1.038315    0.054842
 ---------------------------------------------------------------------

 SCF Done:  E(RB2PLYPD3) =  -115.429496811     A.U. after   11 cycles
 E2(B2PLYPD3) =    -0.1556226385D+00 E(B2PLYPD3) =    -0.11558511944918D+03

 The electronic state is 1-A.
 Alpha  occ. eigenvalues --  -19.75710 -10.62932  -1.10826  -0.80916  -0.54266
 Alpha  occ. eigenvalues --   -0.52238  -0.48321  -0.38975  -0.35930
 Alpha virt. eigenvalues --   -0.00602   0.07023   0.12461   0.13056   0.14720
 Alpha virt. eigenvalues --    0.17596   0.19013   0.22574   0.28993   0.33005
 Alpha virt. eigenvalues --    0.34437   0.37215   0.39177   0.41899   0.44702

 Mulliken charges:
               1
     1  C    0.067336
     2  O   -0.487668
     3  H    0.080556
     4  H    0.049108
     5  H    0.044310
     6  H    0.246358
 Sum of Mulliken charges =   0.00000

 Dipole moment (field-independent basis, Debye):
    X=              0.9368    Y=              1.7850    Z=              0.1951  Tot=              2.0253
 Quadrupole moment (field-independent basis, Debye-Ang):
   XX=            -12.2286   YY=            -11.9938   ZZ=            -14.0742
   XY=             -2.6000   XZ=             -0.0394   YZ=              0.1214

 Normal termination of Gaussian 09 at Wed Aug 26 22:39:53 2020.
