 Gaussian 09, Revision D.01,
 Gaussian 09:  ES64L-G09RevD.01 24-Apr-2013

 --------------------
 #p B2PLYPD3/Def2QZVP
 --------------------

 --------
 methanol
 --------
 Symbolic Z-matrix:
 Charge =  0 Multiplicity = 1

                         Standard orientation:
 ---------------------------------------------------------------------
 Center     Atomic      Atomic             Coordinates (Angstroms)
 Number     Number       Type             X           Y           Z
 ---------------------------------------------------------------------
      1          6           0       -0.653935    0.021617    0.013811
      2          8           0        0.739064   -0.140526   -0.011005
      3          1           0       -1.077544    0.574802   -0.851810
      4          1           0       -0.986007    0.508945    0.859471
      5          1           0       -1.109930   -0.933790   -0.022567
      6          1           0        1.184579    0.844546    0.020084
 ---------------------------------------------------------------------

 SCF Done:  E(RB2PLYPD3) =  -115.536212663     A.U. after   11 cycles
 E2(B2PLYPD3) =    -0.1490626479D+00 E(B2PLYPD3) =    -0.11568527531098D+03

 The electronic state is 1-A.
 Alpha  occ. eigenvalues --  -19.73617 -10.64482  -1.14710  -0.78474  -0.57638
 Alpha  occ. eigenvalues --   -0.51831  -0.50077  -0.40657  -0.35040
 Alpha virt. eigenvalues --    0.03932   0.07814   0.12639   0.12659   0.15011
 Alpha virt. eigenvalues --    0.17519   0.18270   0.28996   0.30594   0.33317
 Alpha virt. eigenvalues --    0.34667   0.38983   0.39928   0.41404   0.44125

 Mulliken charges:
               1
     1  C    0.075952
     2  O   -0.478012
     3  H    0.036738
     4  H    0.047024
     5  H    0.066669
     6  H    0.251629
 Sum of Mulliken charges =   0.00000

 Dipole moment (field-independent basis, Debye):
    X=             -0.7872    Y=              1.5910    Z=              0.1253  Tot=              1.7795
 Quadrupole moment (field-independent basis, Debye-Ang):
   XX=            -12.8308   YY=            -12.1084   ZZ=            -13.9375
   XY=              2.4358   XZ=              0.0532   YZ=              0.1093

 Normal termination of Gaussian 09 at Thu Aug 27 00:13:51 2020.
