 Gaussian 09, Revision D.01,
 Gaussian 09:  ES64L-G09RevD.01 24-Apr-2013

 --------------------
 #p B2PLYPD3/Def2QZVP
 --------------------

 --------
 methanol
 --------
 Symbolic Z-matrix:
 Charge =  0 Multiplicity = 1

                         Standard orientation:
 ---------------------------------------------------------------------
 Center     Atomic      Atomic             Coordinates (Angstroms)
 Number     Number       Type             X           Y           Z
 ---------------------------------------------------------------------
      1          6           0        0.662572   -0.018421    0.008984
      2          8           0       -0.750504    0.117895   -0.007001
      3          1           0        1.003108   -0.625993   -0.878874
      4          1           0        1.054163   -0.471311    0.903374
      5          1           0        1.102705    0.987116   -0.077788
      6          1           0       -1.131379   -0.722443    0.055392
 ---------------------------------------------------------------------

 SCF Done:  E(RB2PLYPD3) =  -115.551068840     A.U. after   10 cycles
 E2(B2PLYPD3) =    -0.1467610785D+00 E(B2PLYPD3) =    -0.11569782991824D+03

 The electronic state is 1-A.
 Alpha  occ. eigenvalues --  -19.72331 -10.66053  -1.16974  -0.78814  -0.59258
 Alpha  occ. eigenvalues --   -0.51588  -0.49966  -0.41108  -0.35437
 Alpha virt. eigenvalues --    0.05103   0.08323   0.12301   0.12402   0.14807
 Alpha virt. eigenvalues --    0.17365   0.18073   0.29103   0.33018   0.33649
 Alpha virt. eigenvalues --    0.35894   0.38779   0.39501   0.40876   0.43664

 Mulliken charges:
               1
     1  C    0.068258
     2  O   -0.443490
     3  H    0.042524
     4  H    0.051413
     5  H    0.070563
     6  H    0.210732
 Sum of Mulliken charges =   0.00000

 Dipole moment (field-independent basis, Debye):
    X=              0.8762    Y=             -1.4643    Z=              0.1549  Tot=              1.7135
 Quadrupole moment (field-independent basis, Debye-Ang):
   XX=            -13.0130   YY=            -12.3084   ZZ=            -13.7867
   XY=              2.2409   XZ=             -0.0555   YZ=             -0.1243

 Normal termination of Gaussian 09 at Wed Aug 26 23:12:10 2020.
