 Gaussian 09, Revision D.01,
 Gaussian 09:  ES64L-G09RevD.01 24-Apr-2013

 --------------------
 #p B2PLYPD3/Def2QZVP
 --------------------

 --------
 methanol
 --------
 Symbolic Z-matrix:
 Charge =  0 Multiplicity = 1

                         Standard orientation:
 ---------------------------------------------------------------------
 Center     Atomic      Atomic             Coordinates (Angstroms)
 Number     Number       Type             X           Y           Z
 ---------------------------------------------------------------------
      1          6           0       -0.675130   -0.017894    0.003938
      2          8           0        0.753873    0.102284   -0.014144
      3          1           0       -0.999472   -0.426321    0.976048
      4          1           0       -1.048561   -0.674633   -0.850576
      5          1           0       -1.075980    1.022165   -0.101823
      6          1           0        1.143805   -0.632117    0.065875
 ---------------------------------------------------------------------

 SCF Done:  E(RB2PLYPD3) =  -115.532300965     A.U. after   10 cycles
 E2(B2PLYPD3) =    -0.1455645022D+00 E(B2PLYPD3) =    -0.11567786546696D+03

 The electronic state is 1-A.
 Alpha  occ. eigenvalues --  -19.71119 -10.67022  -1.18626  -0.79565  -0.59896
 Alpha  occ. eigenvalues --   -0.51485  -0.49878  -0.40923  -0.35665
 Alpha virt. eigenvalues --    0.05374   0.08656   0.12068   0.12252   0.14621
 Alpha virt. eigenvalues --    0.17025   0.17919   0.29034   0.32577   0.33190
 Alpha virt. eigenvalues --    0.37380   0.38970   0.39430   0.40159   0.42931

 Mulliken charges:
               1
     1  C    0.066217
     2  O   -0.398737
     3  H    0.054155
     4  H    0.049123
     5  H    0.076509
     6  H    0.152733
 Sum of Mulliken charges =   0.00000

 Dipole moment (field-independent basis, Debye):
    X=             -0.9066    Y=             -1.3558    Z=              0.1851  Tot=              1.6415
 Quadrupole moment (field-independent basis, Debye-Ang):
   XX=            -12.9792   YY=            -12.4225   ZZ=            -13.6591
   XY=             -2.1319   XZ=              0.2264   YZ=             -0.0992

 Normal termination of Gaussian 09 at Wed Aug 26 09:51:43 2020.
