 Gaussian 09, Revision D.01,
 Gaussian 09:  ES64L-G09RevD.01 24-Apr-2013

 --------------------
 #p B2PLYPD3/Def2QZVP
 --------------------

 --------
 methanol
 --------
 Symbolic Z-matrix:
 Charge =  0 Multiplicity = 1

                         Standard orientation:
 ---------------------------------------------------------------------
 Center     Atomic      Atomic             Coordinates (Angstroms)
 Number     Number       Type             X           Y           Z
 ---------------------------------------------------------------------
      1          6           0        0.662919    0.012710    0.001687
      2          8           0       -0.750547   -0.135025   -0.005297
      3          1           0        1.045537    0.483879    0.890216
      4          1           0        1.001934    0.582955   -0.874278
      5          1           0        1.101203   -0.909507   -0.033734
      6          1           0       -1.121811    0.846610    0.050053
 ---------------------------------------------------------------------

 SCF Done:  E(RB2PLYPD3) =  -115.540971539     A.U. after   11 cycles
 E2(B2PLYPD3) =    -0.1487932081D+00 E(B2PLYPD3) =    -0.11568976474727D+03

 The electronic state is 1-A.
 Alpha  occ. eigenvalues --  -19.73398 -10.64634  -1.14644  -0.78762  -0.57331
 Alpha  occ. eigenvalues --   -0.51729  -0.50308  -0.41228  -0.35186
 Alpha virt. eigenvalues --    0.04247   0.07970   0.12377   0.12766   0.14750
 Alpha virt. eigenvalues --    0.17630   0.18226   0.29069   0.31474   0.33219
 Alpha virt. eigenvalues --    0.33943   0.38952   0.40657   0.41278   0.43715

 Mulliken charges:
               1
     1  C    0.075376
     2  O   -0.477413
     3  H    0.043811
     4  H    0.042110
     5  H    0.070146
     6  H    0.245969
 Sum of Mulliken charges =   0.00000

 Dipole moment (field-independent basis, Debye):
    X=              0.9507    Y=              1.5438    Z=              0.1097  Tot=              1.8163
 Quadrupole moment (field-independent basis, Debye-Ang):
   XX=            -13.1128   YY=            -12.0572   ZZ=            -13.8265
   XY=             -2.3916   XZ=             -0.0567   YZ=              0.0753

 Normal termination of Gaussian 09 at Wed Aug 26 23:57:20 2020.
