 Gaussian 09, Revision D.01,
 Gaussian 09:  ES64L-G09RevD.01 24-Apr-2013

 --------------------
 #p B2PLYPD3/Def2QZVP
 --------------------

 --------
 methanol
 --------
 Symbolic Z-matrix:
 Charge =  0 Multiplicity = 1

                         Standard orientation:
 ---------------------------------------------------------------------
 Center     Atomic      Atomic             Coordinates (Angstroms)
 Number     Number       Type             X           Y           Z
 ---------------------------------------------------------------------
      1          6           0        0.668137    0.042551   -0.015432
      2          8           0       -0.740691   -0.169124    0.012804
      3          1           0        0.990048    0.585544    0.802406
      4          1           0        0.953557    0.466984   -0.792114
      5          1           0        1.161919   -0.912079    0.031780
      6          1           0       -1.188819    0.957235   -0.051911
 ---------------------------------------------------------------------

 SCF Done:  E(RB2PLYPD3) =  -115.488153393     A.U. after   11 cycles
 E2(B2PLYPD3) =    -0.1515338315D+00 E(B2PLYPD3) =    -0.11563968722435D+03

 The electronic state is 1-A.
 Alpha  occ. eigenvalues --  -19.74212 -10.62641  -1.12557  -0.79726  -0.55929
 Alpha  occ. eigenvalues --   -0.53503  -0.48908  -0.40357  -0.35327
 Alpha virt. eigenvalues --    0.02194   0.07653   0.12573   0.12832   0.14818
 Alpha virt. eigenvalues --    0.17809   0.18153   0.25972   0.29557   0.33474
 Alpha virt. eigenvalues --    0.33935   0.38849   0.39978   0.42769   0.44668

 Mulliken charges:
               1
     1  C    0.093711
     2  O   -0.497033
     3  H    0.043867
     4  H    0.052901
     5  H    0.056606
     6  H    0.249947
 Sum of Mulliken charges =   0.00000

 Dipole moment (field-independent basis, Debye):
    X=              0.9939    Y=              1.7593    Z=             -0.1675  Tot=              2.0275
 Quadrupole moment (field-independent basis, Debye-Ang):
   XX=            -12.9329   YY=            -11.7877   ZZ=            -13.8417
   XY=             -2.4316   XZ=              0.0679   YZ=             -0.1260

 Normal termination of Gaussian 09 at Wed Aug 26 13:37:08 2020.
