 Gaussian 09, Revision D.01,
 Gaussian 09:  ES64L-G09RevD.01 24-Apr-2013

 --------------------
 #p B2PLYPD3/Def2QZVP
 --------------------

 --------
 methanol
 --------
 Symbolic Z-matrix:
 Charge =  0 Multiplicity = 1

                         Standard orientation:
 ---------------------------------------------------------------------
 Center     Atomic      Atomic             Coordinates (Angstroms)
 Number     Number       Type             X           Y           Z
 ---------------------------------------------------------------------
      1          6           0        0.657206   -0.013159    0.011899
      2          8           0       -0.757883    0.091430   -0.009058
      3          1           0        0.988563   -0.800710   -0.814366
      4          1           0        1.110088   -0.328634    0.987942
      5          1           0        1.121864    1.029207   -0.262475
      6          1           0       -1.100688   -0.552351    0.089969
 ---------------------------------------------------------------------

 SCF Done:  E(RB2PLYPD3) =  -115.461685934     A.U. after   11 cycles
 E2(B2PLYPD3) =    -0.1445601886D+00 E(B2PLYPD3) =    -0.11560624612223D+03

 The electronic state is 1-A.
 Alpha  occ. eigenvalues --  -19.70569 -10.68436  -1.22937  -0.80407  -0.61643
 Alpha  occ. eigenvalues --   -0.51204  -0.50040  -0.40858  -0.35951
 Alpha virt. eigenvalues --    0.05316   0.08901   0.11801   0.12054   0.14608
 Alpha virt. eigenvalues --    0.17188   0.17874   0.28751   0.32307   0.33340
 Alpha virt. eigenvalues --    0.36086   0.37704   0.39425   0.40075   0.42618

 Mulliken charges:
               1
     1  C    0.053442
     2  O   -0.280418
     3  H    0.038703
     4  H    0.057343
     5  H    0.074360
     6  H    0.056571
 Sum of Mulliken charges =   0.00000

 Dipole moment (field-independent basis, Debye):
    X=              0.8916    Y=             -1.2424    Z=              0.2512  Tot=              1.5497
 Quadrupole moment (field-independent basis, Debye-Ang):
   XX=            -13.0060   YY=            -12.6087   ZZ=            -13.6968
   XY=              2.0182   XZ=             -0.1385   YZ=             -0.1977

 Normal termination of Gaussian 09 at Wed Aug 26 14:33:14 2020.
