 Gaussian 09, Revision D.01,
 Gaussian 09:  ES64L-G09RevD.01 24-Apr-2013

 --------------------
 #p B2PLYPD3/Def2QZVP
 --------------------

 --------
 methanol
 --------
 Symbolic Z-matrix:
 Charge =  0 Multiplicity = 1

                         Standard orientation:
 ---------------------------------------------------------------------
 Center     Atomic      Atomic             Coordinates (Angstroms)
 Number     Number       Type             X           Y           Z
 ---------------------------------------------------------------------
      1          6           0        0.644750    0.022645   -0.005897
      2          8           0       -0.742221   -0.199083    0.001338
      3          1           0        0.958149    0.512580    0.842896
      4          1           0        1.154393    0.533081   -0.706913
      5          1           0        1.195323   -0.767073   -0.040541
      6          1           0       -1.238598    1.178206   -0.070765
 ---------------------------------------------------------------------

 SCF Done:  E(RB2PLYPD3) =  -115.418202838     A.U. after   11 cycles
 E2(B2PLYPD3) =    -0.1572585162D+00 E(B2PLYPD3) =    -0.11557546135445D+03

 The electronic state is 1-A.
 Alpha  occ. eigenvalues --  -19.76199 -10.62012  -1.12252  -0.80732  -0.53783
 Alpha  occ. eigenvalues --   -0.52386  -0.49755  -0.38875  -0.35057
 Alpha virt. eigenvalues --   -0.03080   0.07168   0.12789   0.13065   0.14643
 Alpha virt. eigenvalues --    0.18368   0.18693   0.21429   0.29807   0.32858
 Alpha virt. eigenvalues --    0.35223   0.38396   0.39408   0.42882   0.43550

 Mulliken charges:
               1
     1  C    0.097046
     2  O   -0.463687
     3  H    0.039137
     4  H    0.033388
     5  H    0.053954
     6  H    0.240162
 Sum of Mulliken charges =   0.00000

 Dipole moment (field-independent basis, Debye):
    X=              1.0065    Y=              1.7695    Z=             -0.1258  Tot=              2.0396
 Quadrupole moment (field-independent basis, Debye-Ang):
   XX=            -12.7073   YY=            -11.5171   ZZ=            -14.2364
   XY=             -2.6284   XZ=             -0.0699   YZ=             -0.0597

 Normal termination of Gaussian 09 at Wed Aug 26 23:52:50 2020.
