 Gaussian 09, Revision D.01,
 Gaussian 09:  ES64L-G09RevD.01 24-Apr-2013

 --------------------
 #p B2PLYPD3/Def2QZVP
 --------------------

 --------
 methanol
 --------
 Symbolic Z-matrix:
 Charge =  0 Multiplicity = 1

                         Standard orientation:
 ---------------------------------------------------------------------
 Center     Atomic      Atomic             Coordinates (Angstroms)
 Number     Number       Type             X           Y           Z
 ---------------------------------------------------------------------
      1          6           0       -0.655339   -0.039800    0.005752
      2          8           0        0.753159    0.113908   -0.018008
      3          1           0       -0.987641   -0.421382    0.931084
      4          1           0       -1.040530   -0.630693   -0.847907
      5          1           0       -1.147124    1.043436   -0.062753
      6          1           0        1.082058   -0.663828    0.089127
 ---------------------------------------------------------------------

 SCF Done:  E(RB2PLYPD3) =  -115.532959541     A.U. after   10 cycles
 E2(B2PLYPD3) =    -0.1458004333D+00 E(B2PLYPD3) =    -0.11567875997467D+03

 The electronic state is 1-A.
 Alpha  occ. eigenvalues --  -19.71781 -10.66598  -1.19296  -0.79169  -0.60398
 Alpha  occ. eigenvalues --   -0.52768  -0.49238  -0.40644  -0.36154
 Alpha virt. eigenvalues --    0.05274   0.08624   0.11998   0.12259   0.14649
 Alpha virt. eigenvalues --    0.17486   0.18191   0.28859   0.33105   0.33438
 Alpha virt. eigenvalues --    0.35968   0.37951   0.40098   0.41458   0.43932

 Mulliken charges:
               1
     1  C    0.062690
     2  O   -0.394435
     3  H    0.057683
     4  H    0.054092
     5  H    0.055272
     6  H    0.164698
 Sum of Mulliken charges =   0.00000

 Dipole moment (field-independent basis, Debye):
    X=             -0.9211    Y=             -1.4872    Z=              0.2545  Tot=              1.7677
 Quadrupole moment (field-independent basis, Debye-Ang):
   XX=            -13.1662   YY=            -12.4778   ZZ=            -13.6159
   XY=             -2.0119   XZ=              0.2392   YZ=             -0.1061

 Normal termination of Gaussian 09 at Wed Aug 26 14:54:55 2020.
