 Gaussian 09, Revision D.01,
 Gaussian 09:  ES64L-G09RevD.01 24-Apr-2013

 --------------------
 #p B2PLYPD3/Def2QZVP
 --------------------

 --------
 methanol
 --------
 Symbolic Z-matrix:
 Charge =  0 Multiplicity = 1

                         Standard orientation:
 ---------------------------------------------------------------------
 Center     Atomic      Atomic             Coordinates (Angstroms)
 Number     Number       Type             X           Y           Z
 ---------------------------------------------------------------------
      1          6           0        0.659965    0.028159    0.014316
      2          8           0       -0.711236   -0.206392   -0.012249
      3          1           0        0.915485    0.391100    0.837395
      4          1           0        0.966280    0.633301   -0.750562
      5          1           0        1.087597   -0.725667   -0.111900
      6          1           0       -1.239265    1.183450    0.037163
 ---------------------------------------------------------------------

 SCF Done:  E(RB2PLYPD3) =  -115.379789344     A.U. after   12 cycles
 E2(B2PLYPD3) =    -0.1565462871D+00 E(B2PLYPD3) =    -0.11553633563105D+03

 The electronic state is 1-A.
 Alpha  occ. eigenvalues --  -19.75234 -10.59908  -1.12579  -0.81217  -0.56447
 Alpha  occ. eigenvalues --   -0.53876  -0.49666  -0.38596  -0.35000
 Alpha virt. eigenvalues --   -0.03138   0.07641   0.12848   0.13038   0.14545
 Alpha virt. eigenvalues --    0.17894   0.18206   0.21547   0.29481   0.33091
 Alpha virt. eigenvalues --    0.35265   0.38787   0.41366   0.43670   0.45803

 Mulliken charges:
               1
     1  C    0.078935
     2  O   -0.472281
     3  H    0.046666
     4  H    0.035098
     5  H    0.087742
     6  H    0.223840
 Sum of Mulliken charges =   0.00000

 Dipole moment (field-independent basis, Debye):
    X=              1.0858    Y=              1.6939    Z=              0.0944  Tot=              2.0142
 Quadrupole moment (field-independent basis, Debye-Ang):
   XX=            -13.0005   YY=            -11.3339   ZZ=            -13.7664
   XY=             -2.6348   XZ=             -0.1008   YZ=              0.1013

 Normal termination of Gaussian 09 at Wed Aug 26 23:47:46 2020.
