 Gaussian 09, Revision D.01,
 Gaussian 09:  ES64L-G09RevD.01 24-Apr-2013

 --------------------
 #p B2PLYPD3/Def2QZVP
 --------------------

 --------
 methanol
 --------
 Symbolic Z-matrix:
 Charge =  0 Multiplicity = 1

                         Standard orientation:
 ---------------------------------------------------------------------
 Center     Atomic      Atomic             Coordinates (Angstroms)
 Number     Number       Type             X           Y           Z
 ---------------------------------------------------------------------
      1          6           0       -0.702273   -0.010301   -0.007707
      2          8           0        0.771803   -0.002830    0.066794
      3          1           0       -1.057410   -0.940912   -0.646123
      4          1           0       -0.956466    1.120985   -0.483746
      5          1           0       -1.102703   -0.071660    1.032782
      6          1           0        1.155794   -0.023967   -0.391023
 ---------------------------------------------------------------------

 SCF Done:  E(RB2PLYPD3) =  -115.191802697     A.U. after   11 cycles
 E2(B2PLYPD3) =    -0.1440129603D+00 E(B2PLYPD3) =    -0.11533581565710D+03

 The electronic state is 1-A.
 Alpha  occ. eigenvalues --  -19.67760 -10.70455  -1.26683  -0.82853  -0.60996
 Alpha  occ. eigenvalues --   -0.50871  -0.50310  -0.39789  -0.35967
 Alpha virt. eigenvalues --    0.05036   0.09341   0.10964   0.12029   0.13345
 Alpha virt. eigenvalues --    0.16691   0.17655   0.28407   0.29236   0.32538
 Alpha virt. eigenvalues --    0.34748   0.37028   0.37871   0.41400   0.42667

 Mulliken charges:
               1
     1  C    0.060464
     2  O   -0.191888
     3  H    0.063224
     4  H    0.055615
     5  H    0.101354
     6  H   -0.088769
 Sum of Mulliken charges =   0.00000

 Dipole moment (field-independent basis, Debye):
    X=             -1.1370    Y=             -0.1268    Z=             -0.9688  Tot=              1.4992
 Quadrupole moment (field-independent basis, Debye-Ang):
   XX=            -12.8328   YY=            -13.2500   ZZ=            -12.7851
   XY=              0.1646   XZ=             -1.9963   YZ=              0.1041

 Normal termination of Gaussian 09 at Wed Aug 26 21:31:24 2020.
