 Gaussian 09, Revision D.01,
 Gaussian 09:  ES64L-G09RevD.01 24-Apr-2013

 --------------------
 #p B2PLYPD3/Def2QZVP
 --------------------

 --------
 methanol
 --------
 Symbolic Z-matrix:
 Charge =  0 Multiplicity = 1

                         Standard orientation:
 ---------------------------------------------------------------------
 Center     Atomic      Atomic             Coordinates (Angstroms)
 Number     Number       Type             X           Y           Z
 ---------------------------------------------------------------------
      1          6           0       -0.677373   -0.028480    0.007153
      2          8           0        0.751826    0.132133   -0.009799
      3          1           0       -1.003153   -0.453062    0.908300
      4          1           0       -1.048499   -0.596906   -0.851154
      5          1           0       -1.087660    0.960010   -0.058205
      6          1           0        1.188938   -0.796225    0.036529
 ---------------------------------------------------------------------

 SCF Done:  E(RB2PLYPD3) =  -115.546329765     A.U. after   10 cycles
 E2(B2PLYPD3) =    -0.1485067297D+00 E(B2PLYPD3) =    -0.11569483649421D+03

 The electronic state is 1-A.
 Alpha  occ. eigenvalues --  -19.72941 -10.65017  -1.14163  -0.78749  -0.57368
 Alpha  occ. eigenvalues --   -0.52093  -0.49376  -0.40788  -0.35413
 Alpha virt. eigenvalues --    0.04585   0.07940   0.12418   0.12560   0.14741
 Alpha virt. eigenvalues --    0.17217   0.18285   0.29057   0.32618   0.33208
 Alpha virt. eigenvalues --    0.33591   0.38873   0.39885   0.41523   0.44058

 Mulliken charges:
               1
     1  C    0.074460
     2  O   -0.486924
     3  H    0.054613
     4  H    0.048909
     5  H    0.068977
     6  H    0.239965
 Sum of Mulliken charges =   0.00000

 Dipole moment (field-independent basis, Debye):
    X=             -0.9127    Y=             -1.5506    Z=              0.1157  Tot=              1.8030
 Quadrupole moment (field-independent basis, Debye-Ang):
   XX=            -12.8490   YY=            -12.2137   ZZ=            -13.7555
   XY=             -2.3666   XZ=              0.1082   YZ=             -0.0737

 Normal termination of Gaussian 09 at Thu Aug 27 00:01:08 2020.
