 Gaussian 09, Revision D.01,
 Gaussian 09:  ES64L-G09RevD.01 24-Apr-2013

 --------------------
 #p B2PLYPD3/Def2QZVP
 --------------------

 --------
 methanol
 --------
 Symbolic Z-matrix:
 Charge =  0 Multiplicity = 1

                         Standard orientation:
 ---------------------------------------------------------------------
 Center     Atomic      Atomic             Coordinates (Angstroms)
 Number     Number       Type             X           Y           Z
 ---------------------------------------------------------------------
      1          6           0        0.674138    0.033055    0.007545
      2          8           0       -0.748710   -0.159178   -0.010234
      3          1           0        0.960929    0.432669    0.887376
      4          1           0        1.045632    0.578530   -0.813603
      5          1           0        1.136041   -0.870382   -0.059267
      6          1           0       -1.197749    0.934278    0.022093
 ---------------------------------------------------------------------

 SCF Done:  E(RB2PLYPD3) =  -115.508880725     A.U. after   11 cycles
 E2(B2PLYPD3) =    -0.1511612247D+00 E(B2PLYPD3) =    -0.11566004194965D+03

 The electronic state is 1-A.
 Alpha  occ. eigenvalues --  -19.74044 -10.63235  -1.12378  -0.79351  -0.55343
 Alpha  occ. eigenvalues --   -0.53004  -0.49464  -0.40376  -0.35329
 Alpha virt. eigenvalues --    0.02745   0.07651   0.12567   0.12874   0.14592
 Alpha virt. eigenvalues --    0.17674   0.18446   0.26894   0.29471   0.33165
 Alpha virt. eigenvalues --    0.33793   0.39337   0.40721   0.42649   0.43236

 Mulliken charges:
               1
     1  C    0.089289
     2  O   -0.500787
     3  H    0.050998
     4  H    0.045613
     5  H    0.061113
     6  H    0.253774
 Sum of Mulliken charges =   0.00000

 Dipole moment (field-independent basis, Debye):
    X=              0.9987    Y=              1.6538    Z=              0.0809  Tot=              1.9336
 Quadrupole moment (field-independent basis, Debye-Ang):
   XX=            -12.8397   YY=            -11.9786   ZZ=            -13.7679
   XY=             -2.5395   XZ=             -0.1167   YZ=              0.0513

 Normal termination of Gaussian 09 at Wed Aug 26 10:48:18 2020.
