 Gaussian 09, Revision D.01,
 Gaussian 09:  ES64L-G09RevD.01 24-Apr-2013

 --------------------
 #p B2PLYPD3/Def2QZVP
 --------------------

 --------
 methanol
 --------
 Symbolic Z-matrix:
 Charge =  0 Multiplicity = 1

                         Standard orientation:
 ---------------------------------------------------------------------
 Center     Atomic      Atomic             Coordinates (Angstroms)
 Number     Number       Type             X           Y           Z
 ---------------------------------------------------------------------
      1          6           0       -0.677129   -0.025153   -0.003842
      2          8           0        0.747834    0.125924   -0.002519
      3          1           0       -1.022363   -0.478943    0.911861
      4          1           0       -0.977574   -0.609513   -0.849981
      5          1           0       -1.092363    0.977153   -0.054174
      6          1           0        1.172403   -0.745174    0.035496
 ---------------------------------------------------------------------

 SCF Done:  E(RB2PLYPD3) =  -115.552095808     A.U. after   10 cycles
 E2(B2PLYPD3) =    -0.1473532996D+00 E(B2PLYPD3) =    -0.11569944910754D+03

 The electronic state is 1-A.
 Alpha  occ. eigenvalues --  -19.72288 -10.65311  -1.15286  -0.78913  -0.58247
 Alpha  occ. eigenvalues --   -0.52180  -0.49645  -0.40880  -0.35335
 Alpha virt. eigenvalues --    0.04953   0.08221   0.12376   0.12480   0.14749
 Alpha virt. eigenvalues --    0.17213   0.17995   0.29203   0.33004   0.33385
 Alpha virt. eigenvalues --    0.34825   0.39137   0.39850   0.41373   0.44187

 Mulliken charges:
               1
     1  C    0.076446
     2  O   -0.474743
     3  H    0.050103
     4  H    0.050774
     5  H    0.071891
     6  H    0.225529
 Sum of Mulliken charges =   0.00000

 Dipole moment (field-independent basis, Debye):
    X=             -0.9031    Y=             -1.5201    Z=              0.0606  Tot=              1.7691
 Quadrupole moment (field-independent basis, Debye-Ang):
   XX=            -12.9100   YY=            -12.2195   ZZ=            -13.7322
   XY=             -2.3180   XZ=              0.0649   YZ=             -0.0177

 Normal termination of Gaussian 09 at Wed Aug 26 23:57:15 2020.
