 Gaussian 09, Revision D.01,
 Gaussian 09:  ES64L-G09RevD.01 24-Apr-2013

 --------------------
 #p B2PLYPD3/Def2QZVP
 --------------------

 --------
 methanol
 --------
 Symbolic Z-matrix:
 Charge =  0 Multiplicity = 1

                         Standard orientation:
 ---------------------------------------------------------------------
 Center     Atomic      Atomic             Coordinates (Angstroms)
 Number     Number       Type             X           Y           Z
 ---------------------------------------------------------------------
      1          6           0       -0.627762   -0.021919   -0.031854
      2          8           0        0.731681    0.020182    0.066874
      3          1           0       -0.827476   -0.919322   -0.758503
      4          1           0       -1.162867    1.140390   -0.360120
      5          1           0       -1.193483   -0.279449    1.051201
      6          1           0        1.096950    0.028435   -0.276445
 ---------------------------------------------------------------------

 SCF Done:  E(RB2PLYPD3) =  -114.754960127     A.U. after   12 cycles
 E2(B2PLYPD3) =    -0.1436867582D+00 E(B2PLYPD3) =    -0.11489864688508D+03

 The electronic state is 1-A.
 Alpha  occ. eigenvalues --  -19.69311 -10.71664  -1.34522  -0.87706  -0.62497
 Alpha  occ. eigenvalues --   -0.52705  -0.50990  -0.38305  -0.35834
 Alpha virt. eigenvalues --    0.04623   0.09396   0.10967   0.11662   0.13665
 Alpha virt. eigenvalues --    0.16970   0.17832   0.27695   0.30898   0.32794
 Alpha virt. eigenvalues --    0.33156   0.35202   0.38767   0.41418   0.43337

 Mulliken charges:
               1
     1  C    0.049648
     2  O   -0.008013
     3  H    0.053997
     4  H    0.035747
     5  H    0.073792
     6  H   -0.205170
 Sum of Mulliken charges =   0.00000

 Dipole moment (field-independent basis, Debye):
    X=             -0.5906    Y=             -0.1805    Z=             -0.8624  Tot=              1.0607
 Quadrupole moment (field-independent basis, Debye-Ang):
   XX=            -12.8282   YY=            -13.3491   ZZ=            -13.1837
   XY=              0.0188   XZ=             -1.8121   YZ=              0.1098

 Normal termination of Gaussian 09 at Wed Aug 26 23:05:04 2020.
