 Gaussian 09, Revision D.01,
 Gaussian 09:  ES64L-G09RevD.01 24-Apr-2013

 --------------------
 #p B2PLYPD3/Def2QZVP
 --------------------

 --------
 methanol
 --------
 Symbolic Z-matrix:
 Charge =  0 Multiplicity = 1

                         Standard orientation:
 ---------------------------------------------------------------------
 Center     Atomic      Atomic             Coordinates (Angstroms)
 Number     Number       Type             X           Y           Z
 ---------------------------------------------------------------------
      1          6           0        0.672816   -0.005058   -0.011834
      2          8           0       -0.766259    0.072508   -0.020285
      3          1           0        1.083623   -0.899041   -0.663295
      4          1           0        1.061572   -0.125856    1.115020
      5          1           0        1.024859    0.991767   -0.369564
      6          1           0       -1.076874   -0.516591    0.151122
 ---------------------------------------------------------------------

 SCF Done:  E(RB2PLYPD3) =  -115.401720267     A.U. after   11 cycles
 E2(B2PLYPD3) =    -0.1442433683D+00 E(B2PLYPD3) =    -0.11554596363539D+03

 The electronic state is 1-A.
 Alpha  occ. eigenvalues --  -19.69765 -10.68812  -1.24342  -0.81055  -0.61177
 Alpha  occ. eigenvalues --   -0.50730  -0.50220  -0.41684  -0.35963
 Alpha virt. eigenvalues --    0.05320   0.09041   0.11527   0.12075   0.14478
 Alpha virt. eigenvalues --    0.16727   0.17923   0.28647   0.31720   0.32819
 Alpha virt. eigenvalues --    0.35817   0.37837   0.39226   0.40631   0.42354

 Mulliken charges:
               1
     1  C    0.051593
     2  O   -0.247030
     3  H    0.050850
     4  H    0.046085
     5  H    0.088691
     6  H    0.009812
 Sum of Mulliken charges =   0.00000

 Dipole moment (field-independent basis, Debye):
    X=              1.0157    Y=             -1.1279    Z=              0.2896  Tot=              1.5452
 Quadrupole moment (field-independent basis, Debye-Ang):
   XX=            -13.2030   YY=            -12.4624   ZZ=            -13.5940
   XY=              1.8122   XZ=             -0.6033   YZ=             -0.2200

 Normal termination of Gaussian 09 at Wed Aug 26 15:52:49 2020.
