 Gaussian 09, Revision D.01,
 Gaussian 09:  ES64L-G09RevD.01 24-Apr-2013

 --------------------
 #p B2PLYPD3/Def2QZVP
 --------------------

 --------
 methanol
 --------
 Symbolic Z-matrix:
 Charge =  0 Multiplicity = 1

                         Standard orientation:
 ---------------------------------------------------------------------
 Center     Atomic      Atomic             Coordinates (Angstroms)
 Number     Number       Type             X           Y           Z
 ---------------------------------------------------------------------
      1          6           0        0.659720    0.021519    0.000790
      2          8           0       -0.746504   -0.154842   -0.001796
      3          1           0        1.051026    0.465866    0.875328
      4          1           0        1.110522    0.526201   -0.819032
      5          1           0        1.030302   -0.880895   -0.035895
      6          1           0       -1.178134    0.998452   -0.010773
 ---------------------------------------------------------------------

 SCF Done:  E(RB2PLYPD3) =  -115.494568488     A.U. after   11 cycles
 E2(B2PLYPD3) =    -0.1523579535D+00 E(B2PLYPD3) =    -0.11564692644124D+03

 The electronic state is 1-A.
 Alpha  occ. eigenvalues --  -19.74794 -10.63241  -1.12882  -0.79145  -0.55886
 Alpha  occ. eigenvalues --   -0.51693  -0.49571  -0.40658  -0.35230
 Alpha virt. eigenvalues --    0.01860   0.07542   0.12687   0.12814   0.15021
 Alpha virt. eigenvalues --    0.17226   0.18707   0.25456   0.29397   0.33686
 Alpha virt. eigenvalues --    0.34620   0.38276   0.40206   0.41782   0.43698

 Mulliken charges:
               1
     1  C    0.075469
     2  O   -0.482796
     3  H    0.045205
     4  H    0.042148
     5  H    0.067169
     6  H    0.252804
 Sum of Mulliken charges =   0.00000

 Dipole moment (field-independent basis, Debye):
    X=              0.9537    Y=              1.6273    Z=             -0.0133  Tot=              1.8862
 Quadrupole moment (field-independent basis, Debye-Ang):
   XX=            -12.9858   YY=            -11.7749   ZZ=            -13.9681
   XY=             -2.4287   XZ=             -0.0326   YZ=              0.0008

 Normal termination of Gaussian 09 at Wed Aug 26 13:14:09 2020.
