 Gaussian 09, Revision D.01,
 Gaussian 09:  ES64L-G09RevD.01 24-Apr-2013

 --------------------
 #p B2PLYPD3/Def2QZVP
 --------------------

 --------
 methanol
 --------
 Symbolic Z-matrix:
 Charge =  0 Multiplicity = 1

                         Standard orientation:
 ---------------------------------------------------------------------
 Center     Atomic      Atomic             Coordinates (Angstroms)
 Number     Number       Type             X           Y           Z
 ---------------------------------------------------------------------
      1          6           0        0.675907    0.019962   -0.007086
      2          8           0       -0.750306   -0.133945    0.006420
      3          1           0        1.083843    0.509560    0.865560
      4          1           0        0.982329    0.555354   -0.845591
      5          1           0        1.037598   -0.963213   -0.033513
      6          1           0       -1.156760    0.850091    0.004700
 ---------------------------------------------------------------------

 SCF Done:  E(RB2PLYPD3) =  -115.539354240     A.U. after   11 cycles
 E2(B2PLYPD3) =    -0.1491483110D+00 E(B2PLYPD3) =    -0.11568850255063D+03

 The electronic state is 1-A.
 Alpha  occ. eigenvalues --  -19.73280 -10.64407  -1.13847  -0.78804  -0.57471
 Alpha  occ. eigenvalues --   -0.51907  -0.49188  -0.41363  -0.35246
 Alpha virt. eigenvalues --    0.04195   0.07952   0.12452   0.12595   0.14975
 Alpha virt. eigenvalues --    0.17121   0.18158   0.29038   0.31472   0.33227
 Alpha virt. eigenvalues --    0.33786   0.39014   0.39818   0.41502   0.44283

 Mulliken charges:
               1
     1  C    0.077840
     2  O   -0.487593
     3  H    0.046342
     4  H    0.048754
     5  H    0.071169
     6  H    0.243489
 Sum of Mulliken charges =   0.00000

 Dipole moment (field-independent basis, Debye):
    X=              0.9603    Y=              1.5941    Z=             -0.0415  Tot=              1.8615
 Quadrupole moment (field-independent basis, Debye-Ang):
   XX=            -13.0523   YY=            -11.9343   ZZ=            -13.8555
   XY=             -2.2878   XZ=              0.0399   YZ=             -0.0314

 Normal termination of Gaussian 09 at Wed Aug 26 09:48:51 2020.
