 Gaussian 09, Revision D.01,
 Gaussian 09:  ES64L-G09RevD.01 24-Apr-2013

 --------------------
 #p B2PLYPD3/Def2QZVP
 --------------------

 --------
 methanol
 --------
 Symbolic Z-matrix:
 Charge =  0 Multiplicity = 1

                         Standard orientation:
 ---------------------------------------------------------------------
 Center     Atomic      Atomic             Coordinates (Angstroms)
 Number     Number       Type             X           Y           Z
 ---------------------------------------------------------------------
      1          6           0        0.659534   -0.018023    0.006934
      2          8           0       -0.745898    0.101522   -0.010359
      3          1           0        1.054469   -0.666630   -0.843252
      4          1           0        1.006908   -0.427723    0.956659
      5          1           0        1.051073    1.040631   -0.112779
      6          1           0       -1.102472   -0.650318    0.040637
 ---------------------------------------------------------------------

 SCF Done:  E(RB2PLYPD3) =  -115.531953649     A.U. after   10 cycles
 E2(B2PLYPD3) =    -0.1453349529D+00 E(B2PLYPD3) =    -0.11567728860194D+03

 The electronic state is 1-A.
 Alpha  occ. eigenvalues --  -19.71356 -10.66767  -1.19660  -0.79464  -0.60589
 Alpha  occ. eigenvalues --   -0.51784  -0.49878  -0.41126  -0.35670
 Alpha virt. eigenvalues --    0.05339   0.08771   0.12050   0.12271   0.14885
 Alpha virt. eigenvalues --    0.17042   0.17934   0.29004   0.33108   0.33624
 Alpha virt. eigenvalues --    0.37455   0.38527   0.39711   0.40635   0.42970

 Mulliken charges:
               1
     1  C    0.061922
     2  O   -0.381575
     3  H    0.043789
     4  H    0.053400
     5  H    0.071033
     6  H    0.151430
 Sum of Mulliken charges =   0.00000

 Dipole moment (field-independent basis, Debye):
    X=              0.8520    Y=             -1.3869    Z=              0.1383  Tot=              1.6336
 Quadrupole moment (field-independent basis, Debye-Ang):
   XX=            -13.1538   YY=            -12.3432   ZZ=            -13.7022
   XY=              2.0360   XZ=             -0.1289   YZ=             -0.0937

 Normal termination of Gaussian 09 at Wed Aug 26 10:41:58 2020.
