 Gaussian 09, Revision D.01,
 Gaussian 09:  ES64L-G09RevD.01 24-Apr-2013

 --------------------
 #p B2PLYPD3/Def2QZVP
 --------------------

 --------
 methanol
 --------
 Symbolic Z-matrix:
 Charge =  0 Multiplicity = 1

                         Standard orientation:
 ---------------------------------------------------------------------
 Center     Atomic      Atomic             Coordinates (Angstroms)
 Number     Number       Type             X           Y           Z
 ---------------------------------------------------------------------
      1          6           0        0.663052   -0.006537   -0.010752
      2          8           0       -0.748159    0.104902    0.003078
      3          1           0        1.046600   -0.552489   -0.904791
      4          1           0        1.040277   -0.561661    0.939141
      5          1           0        1.060447    0.988109    0.017039
      6          1           0       -1.140362   -0.673952   -0.011502
 ---------------------------------------------------------------------

 SCF Done:  E(RB2PLYPD3) =  -115.542343718     A.U. after   10 cycles
 E2(B2PLYPD3) =    -0.1459348196D+00 E(B2PLYPD3) =    -0.11568827853714D+03

 The electronic state is 1-A.
 Alpha  occ. eigenvalues --  -19.71761 -10.66646  -1.18259  -0.79350  -0.59827
 Alpha  occ. eigenvalues --   -0.51105  -0.50649  -0.41131  -0.35290
 Alpha virt. eigenvalues --    0.05278   0.08512   0.12115   0.12458   0.14795
 Alpha virt. eigenvalues --    0.17133   0.18010   0.29046   0.32952   0.33571
 Alpha virt. eigenvalues --    0.36690   0.39028   0.39754   0.40153   0.43239

 Mulliken charges:
               1
     1  C    0.065180
     2  O   -0.415449
     3  H    0.048366
     4  H    0.038535
     5  H    0.079716
     6  H    0.183653
 Sum of Mulliken charges =   0.00000

 Dipole moment (field-independent basis, Debye):
    X=              0.8223    Y=             -1.3521    Z=             -0.0754  Tot=              1.5844
 Quadrupole moment (field-independent basis, Debye-Ang):
   XX=            -12.9798   YY=            -12.3702   ZZ=            -13.7874
   XY=              2.2251   XZ=             -0.0302   YZ=              0.0862

 Normal termination of Gaussian 09 at Wed Aug 26 23:58:20 2020.
