 Gaussian 09, Revision D.01,
 Gaussian 09:  ES64L-G09RevD.01 24-Apr-2013

 --------------------
 #p B2PLYPD3/Def2QZVP
 --------------------

 --------
 methanol
 --------
 Symbolic Z-matrix:
 Charge =  0 Multiplicity = 1

                         Standard orientation:
 ---------------------------------------------------------------------
 Center     Atomic      Atomic             Coordinates (Angstroms)
 Number     Number       Type             X           Y           Z
 ---------------------------------------------------------------------
      1          6           0        0.661866   -0.016917   -0.009990
      2          8           0       -0.749617    0.110415   -0.001146
      3          1           0        1.049418   -0.589639   -0.867857
      4          1           0        1.053857   -0.478551    0.956793
      5          1           0        1.055439    0.994734   -0.039864
      6          1           0       -1.132973   -0.708362    0.020041
 ---------------------------------------------------------------------

 SCF Done:  E(RB2PLYPD3) =  -115.549071408     A.U. after   10 cycles
 E2(B2PLYPD3) =    -0.1464966407D+00 E(B2PLYPD3) =    -0.11569556804915D+03

 The electronic state is 1-A.
 Alpha  occ. eigenvalues --  -19.72177 -10.66306  -1.17516  -0.78944  -0.59472
 Alpha  occ. eigenvalues --   -0.51381  -0.50102  -0.41132  -0.35459
 Alpha virt. eigenvalues --    0.05201   0.08378   0.12199   0.12438   0.14834
 Alpha virt. eigenvalues --    0.17120   0.18223   0.29007   0.33223   0.33620
 Alpha virt. eigenvalues --    0.36469   0.38615   0.39910   0.40261   0.43349

 Mulliken charges:
               1
     1  C    0.063163
     2  O   -0.431787
     3  H    0.050570
     4  H    0.043581
     5  H    0.073289
     6  H    0.201185
 Sum of Mulliken charges =   0.00000

 Dipole moment (field-independent basis, Debye):
    X=              0.8447    Y=             -1.4166    Z=             -0.0028  Tot=              1.6493
 Quadrupole moment (field-independent basis, Debye-Ang):
   XX=            -13.0208   YY=            -12.3427   ZZ=            -13.7714
   XY=              2.1969   XZ=             -0.1057   YZ=              0.0353

 Normal termination of Gaussian 09 at Wed Aug 26 10:39:49 2020.
