 Gaussian 09, Revision D.01,
 Gaussian 09:  ES64L-G09RevD.01 24-Apr-2013

 --------------------
 #p B2PLYPD3/Def2QZVP
 --------------------

 --------
 methanol
 --------
 Symbolic Z-matrix:
 Charge =  0 Multiplicity = 1

                         Standard orientation:
 ---------------------------------------------------------------------
 Center     Atomic      Atomic             Coordinates (Angstroms)
 Number     Number       Type             X           Y           Z
 ---------------------------------------------------------------------
      1          6           0       -0.660718   -0.015791    0.007112
      2          8           0        0.749226    0.099291   -0.011653
      3          1           0       -1.057629   -0.468805    0.928574
      4          1           0       -1.017363   -0.657998   -0.882731
      5          1           0       -1.082128    1.042982   -0.079992
      6          1           0        1.127618   -0.615755    0.084701
 ---------------------------------------------------------------------

 SCF Done:  E(RB2PLYPD3) =  -115.522559335     A.U. after   10 cycles
 E2(B2PLYPD3) =    -0.1451876050D+00 E(B2PLYPD3) =    -0.11566774694014D+03

 The electronic state is 1-A.
 Alpha  occ. eigenvalues --  -19.71185 -10.67259  -1.20007  -0.79701  -0.60842
 Alpha  occ. eigenvalues --   -0.51354  -0.49986  -0.40983  -0.35619
 Alpha virt. eigenvalues --    0.05360   0.08741   0.12083   0.12173   0.14837
 Alpha virt. eigenvalues --    0.17096   0.17884   0.29012   0.32812   0.33662
 Alpha virt. eigenvalues --    0.37235   0.38410   0.39734   0.40208   0.42508

 Mulliken charges:
               1
     1  C    0.061384
     2  O   -0.366597
     3  H    0.051794
     4  H    0.044200
     5  H    0.073669
     6  H    0.135550
 Sum of Mulliken charges =   0.00000

 Dipole moment (field-independent basis, Debye):
    X=             -0.8332    Y=             -1.3419    Z=              0.2383  Tot=              1.5974
 Quadrupole moment (field-independent basis, Debye-Ang):
   XX=            -12.9909   YY=            -12.4445   ZZ=            -13.7401
   XY=             -2.0684   XZ=              0.1509   YZ=             -0.1518

 Normal termination of Gaussian 09 at Thu Aug 27 00:07:45 2020.
