 Gaussian 09, Revision D.01,
 Gaussian 09:  ES64L-G09RevD.01 24-Apr-2013

 --------------------
 #p B2PLYPD3/Def2QZVP
 --------------------

 --------
 methanol
 --------
 Symbolic Z-matrix:
 Charge =  0 Multiplicity = 1

                         Standard orientation:
 ---------------------------------------------------------------------
 Center     Atomic      Atomic             Coordinates (Angstroms)
 Number     Number       Type             X           Y           Z
 ---------------------------------------------------------------------
      1          6           0       -0.674130    0.016291    0.008929
      2          8           0        0.740583   -0.143379   -0.011933
      3          1           0       -1.048939    0.585682   -0.851423
      4          1           0       -0.995889    0.476472    0.875680
      5          1           0       -1.041217   -0.898715   -0.028714
      6          1           0        1.206158    0.885846    0.046351
 ---------------------------------------------------------------------

 SCF Done:  E(RB2PLYPD3) =  -115.520927882     A.U. after   11 cycles
 E2(B2PLYPD3) =    -0.1500134192D+00 E(B2PLYPD3) =    -0.11567094130145D+03

 The electronic state is 1-A.
 Alpha  occ. eigenvalues --  -19.73579 -10.63638  -1.13215  -0.79055  -0.56764
 Alpha  occ. eigenvalues --   -0.51812  -0.50046  -0.40856  -0.34960
 Alpha virt. eigenvalues --    0.03439   0.07832   0.12580   0.12797   0.14897
 Alpha virt. eigenvalues --    0.17182   0.18262   0.28456   0.29817   0.33391
 Alpha virt. eigenvalues --    0.33944   0.38718   0.40819   0.41525   0.43976

 Mulliken charges:
               1
     1  C    0.080970
     2  O   -0.495819
     3  H    0.042051
     4  H    0.047389
     5  H    0.073291
     6  H    0.252118
 Sum of Mulliken charges =   0.00000

 Dipole moment (field-independent basis, Debye):
    X=             -0.8880    Y=              1.5781    Z=              0.1508  Tot=              1.8170
 Quadrupole moment (field-independent basis, Debye-Ang):
   XX=            -12.8599   YY=            -11.9428   ZZ=            -13.8328
   XY=              2.4830   XZ=              0.0973   YZ=              0.1057

 Normal termination of Gaussian 09 at Wed Aug 26 13:48:05 2020.
