 Gaussian 09, Revision D.01,
 Gaussian 09:  ES64L-G09RevD.01 24-Apr-2013

 --------------------
 #p B2PLYPD3/Def2QZVP
 --------------------

 --------
 methanol
 --------
 Symbolic Z-matrix:
 Charge =  0 Multiplicity = 1

                         Standard orientation:
 ---------------------------------------------------------------------
 Center     Atomic      Atomic             Coordinates (Angstroms)
 Number     Number       Type             X           Y           Z
 ---------------------------------------------------------------------
      1          6           0        0.667108    0.051032    0.002576
      2          8           0       -0.755065   -0.147743   -0.028444
      3          1           0        1.002133    0.317044    0.913412
      4          1           0        1.024353    0.712772   -0.761239
      5          1           0        1.241524   -0.944336   -0.098716
      6          1           0       -1.230140    0.790269    0.158640
 ---------------------------------------------------------------------

 SCF Done:  E(RB2PLYPD3) =  -115.530599694     A.U. after   11 cycles
 E2(B2PLYPD3) =    -0.1494339688D+00 E(B2PLYPD3) =    -0.11568003366325D+03

 The electronic state is 1-A.
 Alpha  occ. eigenvalues --  -19.73543 -10.65131  -1.13713  -0.78730  -0.56724
 Alpha  occ. eigenvalues --   -0.52966  -0.48701  -0.39684  -0.35714
 Alpha virt. eigenvalues --    0.04198   0.07442   0.12327   0.12752   0.14512
 Alpha virt. eigenvalues --    0.17691   0.18705   0.28908   0.30692   0.32879
 Alpha virt. eigenvalues --    0.33731   0.37456   0.40267   0.42076   0.43650

 Mulliken charges:
               1
     1  C    0.075851
     2  O   -0.490376
     3  H    0.057716
     4  H    0.055059
     5  H    0.051726
     6  H    0.250024
 Sum of Mulliken charges =   0.00000

 Dipole moment (field-independent basis, Debye):
    X=              0.8523    Y=              1.6372    Z=              0.3990  Tot=              1.8884
 Quadrupole moment (field-independent basis, Debye-Ang):
   XX=            -12.5374   YY=            -12.4600   ZZ=            -13.8100
   XY=             -2.4210   XZ=             -0.3586   YZ=              0.1028

 Normal termination of Gaussian 09 at Wed Aug 26 23:42:04 2020.
