 Gaussian 09, Revision D.01,
 Gaussian 09:  ES64L-G09RevD.01 24-Apr-2013

 --------------------
 #p B2PLYPD3/Def2QZVP
 --------------------

 --------
 methanol
 --------
 Symbolic Z-matrix:
 Charge =  0 Multiplicity = 1

                         Standard orientation:
 ---------------------------------------------------------------------
 Center     Atomic      Atomic             Coordinates (Angstroms)
 Number     Number       Type             X           Y           Z
 ---------------------------------------------------------------------
      1          6           0        0.668346   -0.003704   -0.003675
      2          8           0       -0.771156    0.068192   -0.024498
      3          1           0        1.087358   -0.907348   -0.684508
      4          1           0        1.103416   -0.109627    1.113666
      5          1           0        1.040815    0.980741   -0.400968
      6          1           0       -1.072419   -0.487080    0.189844
 ---------------------------------------------------------------------

 SCF Done:  E(RB2PLYPD3) =  -115.365639796     A.U. after   11 cycles
 E2(B2PLYPD3) =    -0.1442545863D+00 E(B2PLYPD3) =    -0.11550989438253D+03

 The electronic state is 1-A.
 Alpha  occ. eigenvalues --  -19.69789 -10.69295  -1.25459  -0.81185  -0.61390
 Alpha  occ. eigenvalues --   -0.50602  -0.50190  -0.41499  -0.36212
 Alpha virt. eigenvalues --    0.05266   0.08992   0.11450   0.12015   0.14406
 Alpha virt. eigenvalues --    0.16863   0.17985   0.28419   0.31690   0.32749
 Alpha virt. eigenvalues --    0.35050   0.37524   0.38903   0.40607   0.42431

 Mulliken charges:
               1
     1  C    0.046984
     2  O   -0.227045
     3  H    0.048589
     4  H    0.048253
     5  H    0.088553
     6  H   -0.005333
 Sum of Mulliken charges =   0.00000

 Dipole moment (field-independent basis, Debye):
    X=              1.0223    Y=             -1.0490    Z=              0.3994  Tot=              1.5182
 Quadrupole moment (field-independent basis, Debye-Ang):
   XX=            -13.1584   YY=            -12.6453   ZZ=            -13.5086
   XY=              1.7862   XZ=             -0.6788   YZ=             -0.3007

 Normal termination of Gaussian 09 at Wed Aug 26 13:46:50 2020.
