 Gaussian 09, Revision D.01,
 Gaussian 09:  ES64L-G09RevD.01 24-Apr-2013

 --------------------
 #p B2PLYPD3/Def2QZVP
 --------------------

 --------
 methanol
 --------
 Symbolic Z-matrix:
 Charge =  0 Multiplicity = 1

                         Standard orientation:
 ---------------------------------------------------------------------
 Center     Atomic      Atomic             Coordinates (Angstroms)
 Number     Number       Type             X           Y           Z
 ---------------------------------------------------------------------
      1          6           0       -0.654606   -0.001926    0.015073
      2          8           0        0.754934    0.053924   -0.023889
      3          1           0       -1.225794   -0.130386    1.016350
      4          1           0       -0.999664   -0.984230   -0.719445
      5          1           0       -1.006673    1.060344   -0.446619
      6          1           0        1.120302   -0.365562    0.250388
 ---------------------------------------------------------------------

 SCF Done:  E(RB2PLYPD3) =  -115.250457703     A.U. after   11 cycles
 E2(B2PLYPD3) =    -0.1441734206D+00 E(B2PLYPD3) =    -0.11539463112374D+03

 The electronic state is 1-A.
 Alpha  occ. eigenvalues --  -19.69426 -10.70462  -1.27967  -0.83020  -0.62535
 Alpha  occ. eigenvalues --   -0.50817  -0.49505  -0.40401  -0.35701
 Alpha virt. eigenvalues --    0.04994   0.09016   0.11281   0.11567   0.14693
 Alpha virt. eigenvalues --    0.16577   0.17975   0.28734   0.30818   0.33713
 Alpha virt. eigenvalues --    0.35316   0.36080   0.37197   0.40681   0.42302

 Mulliken charges:
               1
     1  C    0.033446
     2  O   -0.156694
     3  H    0.059329
     4  H    0.037175
     5  H    0.082199
     6  H   -0.055454
 Sum of Mulliken charges =   0.00000

 Dipole moment (field-independent basis, Debye):
    X=             -0.7650    Y=             -0.8260    Z=              0.7296  Tot=              1.3416
 Quadrupole moment (field-independent basis, Debye-Ang):
   XX=            -12.8957   YY=            -12.9278   ZZ=            -13.5300
   XY=             -1.6017   XZ=              0.5587   YZ=             -0.4199

 Normal termination of Gaussian 09 at Wed Aug 26 18:42:53 2020.
