 Gaussian 09, Revision D.01,
 Gaussian 09:  ES64L-G09RevD.01 24-Apr-2013

 --------------------
 #p B2PLYPD3/Def2QZVP
 --------------------

 --------
 methanol
 --------
 Symbolic Z-matrix:
 Charge =  0 Multiplicity = 1

                         Standard orientation:
 ---------------------------------------------------------------------
 Center     Atomic      Atomic             Coordinates (Angstroms)
 Number     Number       Type             X           Y           Z
 ---------------------------------------------------------------------
      1          6           0        0.681212    0.005534   -0.008664
      2          8           0       -0.713466   -0.201613    0.022861
      3          1           0        1.089476    0.559818    0.807054
      4          1           0        0.921777    0.573898   -0.742195
      5          1           0        0.973458   -0.728853   -0.126747
      6          1           0       -1.364254    1.174839   -0.069013
 ---------------------------------------------------------------------

 SCF Done:  E(RB2PLYPD3) =  -115.326967003     A.U. after   12 cycles
 E2(B2PLYPD3) =    -0.1580765298D+00 E(B2PLYPD3) =    -0.11548504353246D+03

 The electronic state is 1-A.
 Alpha  occ. eigenvalues --  -19.75402 -10.60266  -1.11949  -0.81773  -0.58555
 Alpha  occ. eigenvalues --   -0.51698  -0.49077  -0.38910  -0.34550
 Alpha virt. eigenvalues --   -0.03778   0.07470   0.12877   0.13093   0.14658
 Alpha virt. eigenvalues --    0.17214   0.18164   0.21145   0.29625   0.32997
 Alpha virt. eigenvalues --    0.34820   0.37393   0.41026   0.41844   0.45572

 Mulliken charges:
               1
     1  C   -0.034418
     2  O   -0.476414
     3  H    0.052204
     4  H    0.043682
     5  H    0.194756
     6  H    0.220190
 Sum of Mulliken charges =   0.00000

 Dipole moment (field-independent basis, Debye):
    X=              0.9713    Y=              1.7039    Z=             -0.2651  Tot=              1.9791
 Quadrupole moment (field-independent basis, Debye-Ang):
   XX=            -12.5918   YY=            -11.2224   ZZ=            -14.0457
   XY=             -2.6413   XZ=              0.0748   YZ=             -0.0579

 Normal termination of Gaussian 09 at Wed Aug 26 22:38:32 2020.
