 Gaussian 09, Revision D.01,
 Gaussian 09:  ES64L-G09RevD.01 24-Apr-2013

 --------------------
 #p B2PLYPD3/Def2QZVP
 --------------------

 --------
 methanol
 --------
 Symbolic Z-matrix:
 Charge =  0 Multiplicity = 1

                         Standard orientation:
 ---------------------------------------------------------------------
 Center     Atomic      Atomic             Coordinates (Angstroms)
 Number     Number       Type             X           Y           Z
 ---------------------------------------------------------------------
      1          6           0       -0.660702    0.018592    0.011579
      2          8           0        0.752299   -0.136431   -0.009337
      3          1           0       -1.092165    0.577138   -0.833386
      4          1           0       -0.995768    0.492635    0.863698
      5          1           0       -1.092956   -0.953724   -0.036138
      6          1           0        1.126709    0.863844    0.011047
 ---------------------------------------------------------------------

 SCF Done:  E(RB2PLYPD3) =  -115.538189192     A.U. after   11 cycles
 E2(B2PLYPD3) =    -0.1492361909D+00 E(B2PLYPD3) =    -0.11568742538321D+03

 The electronic state is 1-A.
 Alpha  occ. eigenvalues --  -19.73675 -10.64613  -1.14455  -0.78628  -0.57557
 Alpha  occ. eigenvalues --   -0.51758  -0.49512  -0.41294  -0.35299
 Alpha virt. eigenvalues --    0.04079   0.07863   0.12479   0.12616   0.14989
 Alpha virt. eigenvalues --    0.17516   0.18226   0.29005   0.30928   0.33451
 Alpha virt. eigenvalues --    0.34115   0.38633   0.39878   0.41388   0.44206

 Mulliken charges:
               1
     1  C    0.077351
     2  O   -0.477632
     3  H    0.038932
     4  H    0.048521
     5  H    0.065921
     6  H    0.246906
 Sum of Mulliken charges =   0.00000

 Dipole moment (field-independent basis, Debye):
    X=             -0.9443    Y=              1.6086    Z=              0.0935  Tot=              1.8676
 Quadrupole moment (field-independent basis, Debye-Ang):
   XX=            -13.0964   YY=            -11.9714   ZZ=            -13.9328
   XY=              2.2908   XZ=              0.0503   YZ=              0.0870

 Normal termination of Gaussian 09 at Thu Aug 27 00:11:44 2020.
