 Gaussian 09, Revision D.01,
 Gaussian 09:  ES64L-G09RevD.01 24-Apr-2013

 --------------------
 #p B2PLYPD3/Def2QZVP
 --------------------

 --------
 methanol
 --------
 Symbolic Z-matrix:
 Charge =  0 Multiplicity = 1

                         Standard orientation:
 ---------------------------------------------------------------------
 Center     Atomic      Atomic             Coordinates (Angstroms)
 Number     Number       Type             X           Y           Z
 ---------------------------------------------------------------------
      1          6           0       -0.663819    0.000428    0.018769
      2          8           0        0.760248   -0.070037   -0.034379
      3          1           0       -1.037629    0.988221   -0.625920
      4          1           0       -1.011738    0.037283    1.080694
      5          1           0       -1.067072   -0.943514   -0.491829
      6          1           0        1.017371    0.475737    0.199475
 ---------------------------------------------------------------------

 SCF Done:  E(RB2PLYPD3) =  -115.330481702     A.U. after   11 cycles
 E2(B2PLYPD3) =    -0.1436372007D+00 E(B2PLYPD3) =    -0.11547411890305D+03

 The electronic state is 1-A.
 Alpha  occ. eigenvalues --  -19.69364 -10.68765  -1.26958  -0.81410  -0.61783
 Alpha  occ. eigenvalues --   -0.51547  -0.50458  -0.41605  -0.36279
 Alpha virt. eigenvalues --    0.05268   0.09350   0.11380   0.12005   0.14322
 Alpha virt. eigenvalues --    0.17016   0.17703   0.28263   0.32089   0.32539
 Alpha virt. eigenvalues --    0.35407   0.37944   0.39719   0.40677   0.43204

 Mulliken charges:
               1
     1  C    0.052141
     2  O   -0.211254
     3  H    0.036499
     4  H    0.061236
     5  H    0.082331
     6  H   -0.020954
 Sum of Mulliken charges =   0.00000

 Dipole moment (field-independent basis, Debye):
    X=             -1.0552    Y=              1.0080    Z=              0.5510  Tot=              1.5598
 Quadrupole moment (field-independent basis, Debye-Ang):
   XX=            -13.4349   YY=            -12.6459   ZZ=            -13.2703
   XY=              1.7825   XZ=              0.6557   YZ=              0.3762

 Normal termination of Gaussian 09 at Wed Aug 26 16:22:57 2020.
