 Gaussian 09, Revision D.01,
 Gaussian 09:  ES64L-G09RevD.01 24-Apr-2013

 --------------------
 #p B2PLYPD3/Def2QZVP
 --------------------

 --------
 methanol
 --------
 Symbolic Z-matrix:
 Charge =  0 Multiplicity = 1

                         Standard orientation:
 ---------------------------------------------------------------------
 Center     Atomic      Atomic             Coordinates (Angstroms)
 Number     Number       Type             X           Y           Z
 ---------------------------------------------------------------------
      1          6           0        0.668344   -0.014692    0.025544
      2          8           0       -0.768276    0.092048   -0.031507
      3          1           0        1.150015   -0.846682   -0.730717
      4          1           0        1.023652   -0.242089    0.977373
      5          1           0        1.127270    1.029342   -0.274192
      6          1           0       -1.164790   -0.588802    0.126329
 ---------------------------------------------------------------------

 SCF Done:  E(RB2PLYPD3) =  -115.504656421     A.U. after   11 cycles
 E2(B2PLYPD3) =    -0.1457259684D+00 E(B2PLYPD3) =    -0.11565038238916D+03

 The electronic state is 1-A.
 Alpha  occ. eigenvalues --  -19.71355 -10.68033  -1.19691  -0.79913  -0.61033
 Alpha  occ. eigenvalues --   -0.50801  -0.49244  -0.40690  -0.36014
 Alpha virt. eigenvalues --    0.05310   0.08412   0.11649   0.12288   0.14798
 Alpha virt. eigenvalues --    0.17137   0.18116   0.28892   0.32049   0.32739
 Alpha virt. eigenvalues --    0.35712   0.36906   0.39235   0.41349   0.42871

 Mulliken charges:
               1
     1  C    0.059896
     2  O   -0.361888
     3  H    0.036345
     4  H    0.068248
     5  H    0.071566
     6  H    0.125833
 Sum of Mulliken charges =   0.00000

 Dipole moment (field-independent basis, Debye):
    X=              0.8816    Y=             -1.2651    Z=              0.4736  Tot=              1.6131
 Quadrupole moment (field-independent basis, Debye-Ang):
   XX=            -12.7232   YY=            -12.6550   ZZ=            -13.7680
   XY=              2.0519   XZ=             -0.3526   YZ=             -0.2823

 Normal termination of Gaussian 09 at Wed Aug 26 23:56:48 2020.
