 Gaussian 09, Revision D.01,
 Gaussian 09:  ES64L-G09RevD.01 24-Apr-2013

 --------------------
 #p B2PLYPD3/Def2QZVP
 --------------------

 --------
 methanol
 --------
 Symbolic Z-matrix:
 Charge =  0 Multiplicity = 1

                         Standard orientation:
 ---------------------------------------------------------------------
 Center     Atomic      Atomic             Coordinates (Angstroms)
 Number     Number       Type             X           Y           Z
 ---------------------------------------------------------------------
      1          6           0        0.669093    0.034970    0.003203
      2          8           0       -0.739984   -0.167516   -0.012970
      3          1           0        0.935320    0.423401    0.821442
      4          1           0        0.985354    0.609930   -0.758160
      5          1           0        1.102870   -0.909744   -0.039225
      6          1           0       -1.118227    1.006720    0.060482
 ---------------------------------------------------------------------

 SCF Done:  E(RB2PLYPD3) =  -115.481699546     A.U. after   11 cycles
 E2(B2PLYPD3) =    -0.1520075427D+00 E(B2PLYPD3) =    -0.11563370708840D+03

 The electronic state is 1-A.
 Alpha  occ. eigenvalues --  -19.74262 -10.62046  -1.12576  -0.79849  -0.56031
 Alpha  occ. eigenvalues --   -0.54094  -0.48633  -0.40679  -0.35297
 Alpha virt. eigenvalues --    0.01825   0.07813   0.12491   0.12841   0.14821
 Alpha virt. eigenvalues --    0.17568   0.18144   0.25450   0.29558   0.33445
 Alpha virt. eigenvalues --    0.34114   0.39300   0.40035   0.43701   0.44355

 Mulliken charges:
               1
     1  C    0.103954
     2  O   -0.494220
     3  H    0.047262
     4  H    0.040689
     5  H    0.057661
     6  H    0.244654
 Sum of Mulliken charges =   0.00000

 Dipole moment (field-independent basis, Debye):
    X=              1.1217    Y=              1.7506    Z=              0.1631  Tot=              2.0856
 Quadrupole moment (field-independent basis, Debye-Ang):
   XX=            -13.3179   YY=            -11.5184   ZZ=            -13.8020
   XY=             -2.2858   XZ=             -0.1010   YZ=              0.0733

 Normal termination of Gaussian 09 at Wed Aug 26 16:26:32 2020.
