 Gaussian 09, Revision D.01,
 Gaussian 09:  ES64L-G09RevD.01 24-Apr-2013

 --------------------
 #p B2PLYPD3/Def2QZVP
 --------------------

 --------
 methanol
 --------
 Symbolic Z-matrix:
 Charge =  0 Multiplicity = 1

                         Standard orientation:
 ---------------------------------------------------------------------
 Center     Atomic      Atomic             Coordinates (Angstroms)
 Number     Number       Type             X           Y           Z
 ---------------------------------------------------------------------
      1          6           0        0.660184   -0.017616   -0.002236
      2          8           0       -0.751220    0.082285   -0.015873
      3          1           0        1.121674   -0.716546   -0.804139
      4          1           0        1.010156   -0.374594    1.018036
      5          1           0        1.034866    1.090875   -0.137072
      6          1           0       -1.118039   -0.552315    0.063571
 ---------------------------------------------------------------------

 SCF Done:  E(RB2PLYPD3) =  -115.463827856     A.U. after   10 cycles
 E2(B2PLYPD3) =    -0.1444579452D+00 E(B2PLYPD3) =    -0.11560828580107D+03

 The electronic state is 1-A.
 Alpha  occ. eigenvalues --  -19.70365 -10.68243  -1.22723  -0.80676  -0.61569
 Alpha  occ. eigenvalues --   -0.51231  -0.49778  -0.40756  -0.35931
 Alpha virt. eigenvalues --    0.05364   0.08955   0.11735   0.12103   0.14819
 Alpha virt. eigenvalues --    0.16742   0.17987   0.28874   0.32689   0.33465
 Alpha virt. eigenvalues --    0.36553   0.38057   0.39328   0.40335   0.42178

 Mulliken charges:
               1
     1  C    0.049505
     2  O   -0.279143
     3  H    0.050585
     4  H    0.051598
     5  H    0.073999
     6  H    0.053456
 Sum of Mulliken charges =   0.00000

 Dipole moment (field-independent basis, Debye):
    X=              0.8278    Y=             -1.2646    Z=              0.1845  Tot=              1.5226
 Quadrupole moment (field-independent basis, Debye-Ang):
   XX=            -13.0084   YY=            -12.4984   ZZ=            -13.7080
   XY=              1.8531   XZ=             -0.2965   YZ=             -0.0656

 Normal termination of Gaussian 09 at Wed Aug 26 12:37:50 2020.
