 Gaussian 09, Revision D.01,
 Gaussian 09:  ES64L-G09RevD.01 24-Apr-2013

 --------------------
 #p B2PLYPD3/Def2QZVP
 --------------------

 ------------
 cyanomethane
 ------------
 Symbolic Z-matrix:
 Charge =  0 Multiplicity = 1

                         Standard orientation:
 ---------------------------------------------------------------------
 Center     Atomic      Atomic             Coordinates (Angstroms)
 Number     Number       Type             X           Y           Z
 ---------------------------------------------------------------------
      1          6           0       -1.174521    0.009293   -0.000905
      2          6           0        0.269418   -0.017206    0.006106
      3          7           0        1.431864    0.007826   -0.002534
      4          1           0       -1.538262   -0.059835    1.036434
      5          1           0       -1.528765   -0.880023   -0.574833
      6          1           0       -1.525403    0.932558   -0.475071
 ---------------------------------------------------------------------

 SCF Done:  E(RB2PLYPD3) =  -132.533717140     A.U. after   11 cycles
 E2(B2PLYPD3) =    -0.1813526596D+00 E(B2PLYPD3) =    -0.13271506979978D+03

 The electronic state is 1-A.
 Alpha  occ. eigenvalues --  -14.84319 -10.67499 -10.66353  -1.03769  -0.89242
 Alpha  occ. eigenvalues --   -0.59341  -0.54189  -0.53682  -0.44744  -0.38761
 Alpha  occ. eigenvalues --   -0.38661
 Alpha virt. eigenvalues --    0.03678   0.07583   0.07653   0.10124   0.11420
 Alpha virt. eigenvalues --    0.11488   0.15389   0.15865   0.16284   0.20137
 Alpha virt. eigenvalues --    0.20153   0.25558   0.32617   0.34034   0.34529

 Mulliken charges:
               1
     1  C   -0.095545
     2  C    0.000154
     3  N   -0.210811
     4  H    0.101678
     5  H    0.100342
     6  H    0.104182
 Sum of Mulliken charges =   0.00000

 Dipole moment (field-independent basis, Debye):
    X=             -4.1193    Y=             -0.0116    Z=              0.0048  Tot=              4.1194
 Quadrupole moment (field-independent basis, Debye-Ang):
   XX=            -21.2154   YY=            -17.7188   ZZ=            -17.7457
   XY=             -0.0337   XZ=             -0.0003   YZ=             -0.0213

 Normal termination of Gaussian 09 at Thu Aug 27 00:03:28 2020.
