 Gaussian 09, Revision D.01,
 Gaussian 09:  ES64L-G09RevD.01 24-Apr-2013

 --------------------
 #p B2PLYPD3/Def2QZVP
 --------------------

 ------------
 cyanomethane
 ------------
 Symbolic Z-matrix:
 Charge =  0 Multiplicity = 1

                         Standard orientation:
 ---------------------------------------------------------------------
 Center     Atomic      Atomic             Coordinates (Angstroms)
 Number     Number       Type             X           Y           Z
 ---------------------------------------------------------------------
      1          6           0       -1.187246   -0.000395   -0.012657
      2          6           0        0.273468   -0.008048    0.027187
      3          7           0        1.442906    0.000572   -0.015490
      4          1           0       -1.505164   -0.042326    0.982451
      5          1           0       -1.602192   -0.819661   -0.530184
      6          1           0       -1.510317    0.908646   -0.431018
 ---------------------------------------------------------------------

 SCF Done:  E(RB2PLYPD3) =  -132.530763764     A.U. after   12 cycles
 E2(B2PLYPD3) =    -0.1814129751D+00 E(B2PLYPD3) =    -0.13271217673932D+03

 The electronic state is 1-A.
 Alpha  occ. eigenvalues --  -14.84616 -10.66710 -10.66023  -1.03490  -0.90164
 Alpha  occ. eigenvalues --   -0.60179  -0.55049  -0.54690  -0.44818  -0.38840
 Alpha  occ. eigenvalues --   -0.38706
 Alpha virt. eigenvalues --    0.03887   0.07849   0.08317   0.10145   0.11172
 Alpha virt. eigenvalues --    0.11233   0.15423   0.15665   0.16879   0.20176
 Alpha virt. eigenvalues --    0.20188   0.25314   0.32748   0.34938   0.35451

 Mulliken charges:
               1
     1  C   -0.070688
     2  C    0.000894
     3  N   -0.214661
     4  H    0.093237
     5  H    0.094776
     6  H    0.096442
 Sum of Mulliken charges =   0.00000

 Dipole moment (field-independent basis, Debye):
    X=             -4.1673    Y=              0.0059    Z=              0.0409  Tot=              4.1675
 Quadrupole moment (field-independent basis, Debye-Ang):
   XX=            -20.9003   YY=            -17.7086   ZZ=            -17.8123
   XY=              0.0468   XZ=              0.0747   YZ=             -0.0011

 Normal termination of Gaussian 09 at Wed Aug 26 15:14:16 2020.
