 Gaussian 09, Revision D.01,
 Gaussian 09:  ES64L-G09RevD.01 24-Apr-2013

 --------------------
 #p B2PLYPD3/Def2QZVP
 --------------------

 ------------
 cyanomethane
 ------------
 Symbolic Z-matrix:
 Charge =  0 Multiplicity = 1

                         Standard orientation:
 ---------------------------------------------------------------------
 Center     Atomic      Atomic             Coordinates (Angstroms)
 Number     Number       Type             X           Y           Z
 ---------------------------------------------------------------------
      1          6           0        1.165299    0.001015    0.019980
      2          6           0       -0.275226    0.003501   -0.033151
      3          7           0       -1.430328    0.001441    0.014413
      4          1           0        1.536708   -0.621480   -0.781895
      5          1           0        1.529159   -0.387451    0.900577
      6          1           0        1.605988    0.971751   -0.140544
 ---------------------------------------------------------------------

 SCF Done:  E(RB2PLYPD3) =  -132.532496639     A.U. after   11 cycles
 E2(B2PLYPD3) =    -0.1803563189D+00 E(B2PLYPD3) =    -0.13271285295768D+03

 The electronic state is 1-A.
 Alpha  occ. eigenvalues --  -14.84285 -10.66296 -10.66087  -1.04150  -0.90070
 Alpha  occ. eigenvalues --   -0.60916  -0.54954  -0.53637  -0.44893  -0.39166
 Alpha  occ. eigenvalues --   -0.38929
 Alpha virt. eigenvalues --    0.03881   0.07876   0.08107   0.10122   0.11423
 Alpha virt. eigenvalues --    0.11575   0.15641   0.16072   0.17095   0.20101
 Alpha virt. eigenvalues --    0.20131   0.25754   0.33022   0.34545   0.35618

 Mulliken charges:
               1
     1  C   -0.064856
     2  C    0.002098
     3  N   -0.207563
     4  H    0.086799
     5  H    0.094425
     6  H    0.089097
 Sum of Mulliken charges =   0.00000

 Dipole moment (field-independent basis, Debye):
    X=              4.1384    Y=             -0.0168    Z=             -0.0269  Tot=              4.1385
 Quadrupole moment (field-independent basis, Debye-Ang):
   XX=            -20.7575   YY=            -17.7677   ZZ=            -17.7574
   XY=              0.0313   XZ=              0.0456   YZ=             -0.0425

 Normal termination of Gaussian 09 at Wed Aug 26 11:06:45 2020.
