 Gaussian 09, Revision D.01,
 Gaussian 09:  ES64L-G09RevD.01 24-Apr-2013

 --------------------
 #p B2PLYPD3/Def2QZVP
 --------------------

 ------------
 cyanomethane
 ------------
 Symbolic Z-matrix:
 Charge =  0 Multiplicity = 1

                         Standard orientation:
 ---------------------------------------------------------------------
 Center     Atomic      Atomic             Coordinates (Angstroms)
 Number     Number       Type             X           Y           Z
 ---------------------------------------------------------------------
      1          6           0        1.167649    0.011994    0.003574
      2          6           0       -0.275578   -0.011020   -0.033638
      3          7           0       -1.433378    0.003629    0.018854
      4          1           0        1.548715    1.037720   -0.023616
      5          1           0        1.547565   -0.569231   -0.827912
      6          1           0        1.584944   -0.499735    0.899930
 ---------------------------------------------------------------------

 SCF Done:  E(RB2PLYPD3) =  -132.533607554     A.U. after   11 cycles
 E2(B2PLYPD3) =    -0.1810435872D+00 E(B2PLYPD3) =    -0.13271465114162D+03

 The electronic state is 1-A.
 Alpha  occ. eigenvalues --  -14.84367 -10.67204 -10.66385  -1.04007  -0.89270
 Alpha  occ. eigenvalues --   -0.60156  -0.54449  -0.52861  -0.44882  -0.39009
 Alpha  occ. eigenvalues --   -0.38772
 Alpha virt. eigenvalues --    0.03671   0.07322   0.07893   0.10104   0.11346
 Alpha virt. eigenvalues --    0.11669   0.15507   0.15990   0.16907   0.20048
 Alpha virt. eigenvalues --    0.20174   0.25684   0.32836   0.34132   0.34844

 Mulliken charges:
               1
     1  C   -0.080349
     2  C    0.001595
     3  N   -0.207817
     4  H    0.099850
     5  H    0.094279
     6  H    0.092441
 Sum of Mulliken charges =   0.00000

 Dipole moment (field-independent basis, Debye):
    X=              4.1273    Y=             -0.0287    Z=             -0.0281  Tot=              4.1275
 Quadrupole moment (field-independent basis, Debye-Ang):
   XX=            -20.9330   YY=            -17.6530   ZZ=            -17.9315
   XY=             -0.0576   XZ=              0.1303   YZ=              0.0198

 Normal termination of Gaussian 09 at Wed Aug 26 10:50:22 2020.
