 Gaussian 09, Revision D.01,
 Gaussian 09:  ES64L-G09RevD.01 24-Apr-2013

 --------------------
 #p B2PLYPD3/Def2QZVP
 --------------------

 ------------
 cyanomethane
 ------------
 Symbolic Z-matrix:
 Charge =  0 Multiplicity = 1

                         Standard orientation:
 ---------------------------------------------------------------------
 Center     Atomic      Atomic             Coordinates (Angstroms)
 Number     Number       Type             X           Y           Z
 ---------------------------------------------------------------------
      1          6           0       -1.152500    0.002413   -0.022312
      2          6           0        0.285457   -0.026339   -0.050671
      3          7           0        1.420417    0.018185    0.025899
      4          1           0       -1.636130    1.070697    0.122924
      5          1           0       -1.504206   -0.568673    0.936707
      6          1           0       -1.600329   -0.485767   -0.803027
 ---------------------------------------------------------------------

 SCF Done:  E(RB2PLYPD3) =  -132.522587664     A.U. after   12 cycles
 E2(B2PLYPD3) =    -0.1798597289D+00 E(B2PLYPD3) =    -0.13270244739345D+03

 The electronic state is 1-A.
 Alpha  occ. eigenvalues --  -14.83888 -10.67821 -10.65882  -1.04936  -0.88814
 Alpha  occ. eigenvalues --   -0.60617  -0.54105  -0.51276  -0.44922  -0.39623
 Alpha  occ. eigenvalues --   -0.38946
 Alpha virt. eigenvalues --    0.03279   0.06621   0.08449   0.10126   0.11467
 Alpha virt. eigenvalues --    0.12280   0.15588   0.16103   0.17497   0.19892
 Alpha virt. eigenvalues --    0.20163   0.25812   0.32560   0.32677   0.34755

 Mulliken charges:
               1
     1  C   -0.088774
     2  C    0.003885
     3  N   -0.195754
     4  H    0.092925
     5  H    0.087064
     6  H    0.100655
 Sum of Mulliken charges =   0.00000

 Dipole moment (field-independent basis, Debye):
    X=             -4.0745    Y=             -0.0638    Z=             -0.0270  Tot=              4.0751
 Quadrupole moment (field-independent basis, Debye-Ang):
   XX=            -20.8382   YY=            -17.7466   ZZ=            -17.8614
   XY=             -0.0964   XZ=             -0.1417   YZ=              0.1070

 Normal termination of Gaussian 09 at Wed Aug 26 21:04:19 2020.
