 Gaussian 09, Revision D.01,
 Gaussian 09:  ES64L-G09RevD.01 24-Apr-2013

 --------------------
 #p B2PLYPD3/Def2QZVP
 --------------------

 ------------
 cyanomethane
 ------------
 Symbolic Z-matrix:
 Charge =  0 Multiplicity = 1

                         Standard orientation:
 ---------------------------------------------------------------------
 Center     Atomic      Atomic             Coordinates (Angstroms)
 Number     Number       Type             X           Y           Z
 ---------------------------------------------------------------------
      1          6           0        1.173486   -0.009446   -0.015746
      2          6           0       -0.262961    0.024466    0.013837
      3          7           0       -1.433581   -0.009640   -0.001974
      4          1           0        1.573601   -0.038141    0.991610
      5          1           0        1.524261    0.907122   -0.459676
      6          1           0        1.474054   -0.891619   -0.506659
 ---------------------------------------------------------------------

 SCF Done:  E(RB2PLYPD3) =  -132.531899976     A.U. after   11 cycles
 E2(B2PLYPD3) =    -0.1817198916D+00 E(B2PLYPD3) =    -0.13271361986752D+03

 The electronic state is 1-A.
 Alpha  occ. eigenvalues --  -14.84536 -10.66563 -10.66448  -1.03470  -0.90124
 Alpha  occ. eigenvalues --   -0.60016  -0.55763  -0.53651  -0.44779  -0.38668
 Alpha  occ. eigenvalues --   -0.38434
 Alpha virt. eigenvalues --    0.03833   0.07609   0.07936   0.10125   0.11163
 Alpha virt. eigenvalues --    0.11490   0.15380   0.16000   0.16301   0.20132
 Alpha virt. eigenvalues --    0.20250   0.25730   0.32811   0.34280   0.35314

 Mulliken charges:
               1
     1  C   -0.079746
     2  C    0.000694
     3  N   -0.215928
     4  H    0.091682
     5  H    0.099696
     6  H    0.103601
 Sum of Mulliken charges =   0.00000

 Dipole moment (field-independent basis, Debye):
    X=              4.1488    Y=              0.0096    Z=              0.0264  Tot=              4.1489
 Quadrupole moment (field-independent basis, Debye-Ang):
   XX=            -21.0739   YY=            -17.5706   ZZ=            -17.8987
   XY=             -0.0148   XZ=              0.1171   YZ=              0.0219

 Normal termination of Gaussian 09 at Wed Aug 26 13:18:07 2020.
