 Gaussian 09, Revision D.01,
 Gaussian 09:  ES64L-G09RevD.01 24-Apr-2013

 --------------------
 #p B2PLYPD3/Def2QZVP
 --------------------

 ------------
 cyanomethane
 ------------
 Symbolic Z-matrix:
 Charge =  0 Multiplicity = 1

                         Standard orientation:
 ---------------------------------------------------------------------
 Center     Atomic      Atomic             Coordinates (Angstroms)
 Number     Number       Type             X           Y           Z
 ---------------------------------------------------------------------
      1          6           0        1.172448   -0.010843    0.006727
      2          6           0       -0.275271    0.007824   -0.019261
      3          7           0       -1.440845   -0.002071    0.008255
      4          1           0        1.581254    1.021692   -0.162792
      5          1           0        1.572356   -0.644943   -0.763977
      6          1           0        1.549242   -0.344143    0.944191
 ---------------------------------------------------------------------

 SCF Done:  E(RB2PLYPD3) =  -132.533156593     A.U. after   11 cycles
 E2(B2PLYPD3) =    -0.1814859120D+00 E(B2PLYPD3) =    -0.13271464250478D+03

 The electronic state is 1-A.
 Alpha  occ. eigenvalues --  -14.84595 -10.66987 -10.66653  -1.03741  -0.89417
 Alpha  occ. eigenvalues --   -0.60482  -0.54330  -0.53216  -0.44930  -0.38882
 Alpha  occ. eigenvalues --   -0.38720
 Alpha virt. eigenvalues --    0.03745   0.07396   0.07729   0.10125   0.11333
 Alpha virt. eigenvalues --    0.11475   0.15492   0.16320   0.16611   0.20126
 Alpha virt. eigenvalues --    0.20154   0.25545   0.32583   0.34269   0.35110

 Mulliken charges:
               1
     1  C   -0.074033
     2  C    0.002577
     3  N   -0.210963
     4  H    0.090768
     5  H    0.095050
     6  H    0.096601
 Sum of Mulliken charges =   0.00000

 Dipole moment (field-independent basis, Debye):
    X=              4.1492    Y=             -0.0068    Z=             -0.0040  Tot=              4.1492
 Quadrupole moment (field-independent basis, Debye-Ang):
   XX=            -20.8626   YY=            -17.8206   ZZ=            -17.8290
   XY=             -0.0143   XZ=              0.0398   YZ=              0.0095

 Normal termination of Gaussian 09 at Wed Aug 26 23:57:14 2020.
