 Gaussian 09, Revision D.01,
 Gaussian 09:  ES64L-G09RevD.01 24-Apr-2013

 --------------------
 #p B2PLYPD3/Def2QZVP
 --------------------

 ------------
 cyanomethane
 ------------
 Symbolic Z-matrix:
 Charge =  0 Multiplicity = 1

                         Standard orientation:
 ---------------------------------------------------------------------
 Center     Atomic      Atomic             Coordinates (Angstroms)
 Number     Number       Type             X           Y           Z
 ---------------------------------------------------------------------
      1          6           0        1.201022   -0.012071   -0.009607
      2          6           0       -0.285680   -0.014531   -0.024178
      3          7           0       -1.443026    0.022108    0.008210
      4          1           0        1.450797   -0.782350   -0.605640
      5          1           0        1.429130   -0.197278    1.029930
      6          1           0        1.729202    0.984480   -0.279045
 ---------------------------------------------------------------------

 SCF Done:  E(RB2PLYPD3) =  -132.522737666     A.U. after   12 cycles
 E2(B2PLYPD3) =    -0.1809477903D+00 E(B2PLYPD3) =    -0.13270368545633D+03

 The electronic state is 1-A.
 Alpha  occ. eigenvalues --  -14.84258 -10.67215 -10.66433  -1.03881  -0.89328
 Alpha  occ. eigenvalues --   -0.58717  -0.56167  -0.52382  -0.44667  -0.39202
 Alpha  occ. eigenvalues --   -0.38843
 Alpha virt. eigenvalues --    0.03562   0.07244   0.09123   0.10245   0.10940
 Alpha virt. eigenvalues --    0.11560   0.15101   0.15210   0.17154   0.20045
 Alpha virt. eigenvalues --    0.20230   0.24771   0.31844   0.33948   0.35450

 Mulliken charges:
               1
     1  C   -0.096981
     2  C   -0.002623
     3  N   -0.208565
     4  H    0.109761
     5  H    0.101669
     6  H    0.096740
 Sum of Mulliken charges =   0.00000

 Dipole moment (field-independent basis, Debye):
    X=              4.1427    Y=             -0.0533    Z=              0.0288  Tot=              4.1431
 Quadrupole moment (field-independent basis, Debye-Ang):
   XX=            -21.0819   YY=            -17.7028   ZZ=            -17.8103
   XY=              0.3007   XZ=              0.0428   YZ=              0.1063

 Normal termination of Gaussian 09 at Wed Aug 26 22:19:20 2020.
