 Gaussian 09, Revision D.01,
 Gaussian 09:  ES64L-G09RevD.01 24-Apr-2013

 --------------------
 #p B2PLYPD3/Def2QZVP
 --------------------

 ------------
 cyanomethane
 ------------
 Symbolic Z-matrix:
 Charge =  0 Multiplicity = 1

                         Standard orientation:
 ---------------------------------------------------------------------
 Center     Atomic      Atomic             Coordinates (Angstroms)
 Number     Number       Type             X           Y           Z
 ---------------------------------------------------------------------
      1          6           0        1.175594   -0.004433   -0.002700
      2          6           0       -0.278781    0.002279   -0.002135
      3          7           0       -1.438344   -0.001928   -0.001072
      4          1           0        1.552202    1.005739   -0.165466
      5          1           0        1.600221   -0.646320   -0.745610
      6          1           0        1.535112   -0.332997    0.947589
 ---------------------------------------------------------------------

 SCF Done:  E(RB2PLYPD3) =  -132.534766722     A.U. after   12 cycles
 E2(B2PLYPD3) =    -0.1807578508D+00 E(B2PLYPD3) =    -0.13271552457258D+03

 The electronic state is 1-A.
 Alpha  occ. eigenvalues --  -14.84391 -10.66682 -10.66462  -1.03961  -0.89550
 Alpha  occ. eigenvalues --   -0.60385  -0.54125  -0.53913  -0.44873  -0.39035
 Alpha  occ. eigenvalues --   -0.38956
 Alpha virt. eigenvalues --    0.03819   0.07800   0.07980   0.10171   0.11384
 Alpha virt. eigenvalues --    0.11438   0.15474   0.16221   0.16760   0.20113
 Alpha virt. eigenvalues --    0.20125   0.25401   0.32781   0.34669   0.35083

 Mulliken charges:
               1
     1  C   -0.071954
     2  C    0.000729
     3  N   -0.208537
     4  H    0.092725
     5  H    0.093631
     6  H    0.093406
 Sum of Mulliken charges =   0.00000

 Dipole moment (field-independent basis, Debye):
    X=              4.1490    Y=             -0.0007    Z=              0.0134  Tot=              4.1490
 Quadrupole moment (field-independent basis, Debye-Ang):
   XX=            -20.8385   YY=            -17.7628   ZZ=            -17.8178
   XY=             -0.0383   XZ=             -0.0198   YZ=              0.0064

 Normal termination of Gaussian 09 at Wed Aug 26 21:51:48 2020.
