 Gaussian 09, Revision D.01,
 Gaussian 09:  ES64L-G09RevD.01 24-Apr-2013

 --------------------
 #p B2PLYPD3/Def2QZVP
 --------------------

 ------------
 cyanomethane
 ------------
 Symbolic Z-matrix:
 Charge =  0 Multiplicity = 1

                         Standard orientation:
 ---------------------------------------------------------------------
 Center     Atomic      Atomic             Coordinates (Angstroms)
 Number     Number       Type             X           Y           Z
 ---------------------------------------------------------------------
      1          6           0       -1.177044    0.022437   -0.008840
      2          6           0        0.277687    0.053181   -0.019825
      3          7           0        1.451303   -0.032805    0.003136
      4          1           0       -1.558288    1.055591    0.074841
      5          1           0       -1.505319   -0.652328    0.943900
      6          1           0       -1.699372   -0.627336   -0.868700
 ---------------------------------------------------------------------

 SCF Done:  E(RB2PLYPD3) =  -132.513230343     A.U. after   12 cycles
 E2(B2PLYPD3) =    -0.1840003306D+00 E(B2PLYPD3) =    -0.13269723067338D+03

 The electronic state is 1-A.
 Alpha  occ. eigenvalues --  -14.84984 -10.69569 -10.67129  -1.03327  -0.87724
 Alpha  occ. eigenvalues --   -0.59220  -0.54137  -0.50013  -0.44998  -0.38696
 Alpha  occ. eigenvalues --   -0.37917
 Alpha virt. eigenvalues --    0.02952   0.05508   0.07225   0.10018   0.10877
 Alpha virt. eigenvalues --    0.11992   0.15107   0.15660   0.17149   0.19942
 Alpha virt. eigenvalues --    0.20370   0.25397   0.31426   0.31652   0.34399

 Mulliken charges:
               1
     1  C   -0.106055
     2  C    0.009974
     3  N   -0.212249
     4  H    0.112645
     5  H    0.096245
     6  H    0.099439
 Sum of Mulliken charges =   0.00000

 Dipole moment (field-independent basis, Debye):
    X=             -4.1257    Y=              0.0017    Z=              0.0183  Tot=              4.1258
 Quadrupole moment (field-independent basis, Debye-Ang):
   XX=            -21.1484   YY=            -17.6182   ZZ=            -18.2867
   XY=              0.3273   XZ=              0.0613   YZ=              0.0474

 Normal termination of Gaussian 09 at Wed Aug 26 22:49:45 2020.
