 Gaussian 09, Revision D.01,
 Gaussian 09:  ES64L-G09RevD.01 24-Apr-2013

 --------------------
 #p B2PLYPD3/Def2QZVP
 --------------------

 ------------
 cyanomethane
 ------------
 Symbolic Z-matrix:
 Charge =  0 Multiplicity = 1

                         Standard orientation:
 ---------------------------------------------------------------------
 Center     Atomic      Atomic             Coordinates (Angstroms)
 Number     Number       Type             X           Y           Z
 ---------------------------------------------------------------------
      1          6           0       -1.183049    0.025481    0.023573
      2          6           0        0.262094   -0.057146    0.001499
      3          7           0        1.427045    0.014888   -0.008229
      4          1           0       -1.427272   -0.041269    0.989164
      5          1           0       -1.657755   -0.853356   -0.599522
      6          1           0       -1.378560    0.980403   -0.482472
 ---------------------------------------------------------------------

 SCF Done:  E(RB2PLYPD3) =  -132.520254471     A.U. after   12 cycles
 E2(B2PLYPD3) =    -0.1817578558D+00 E(B2PLYPD3) =    -0.13270201232673D+03

 The electronic state is 1-A.
 Alpha  occ. eigenvalues --  -14.84297 -10.67169 -10.66348  -1.03568  -0.89940
 Alpha  occ. eigenvalues --   -0.58855  -0.56489  -0.52777  -0.44595  -0.38739
 Alpha  occ. eigenvalues --   -0.38337
 Alpha virt. eigenvalues --    0.03597   0.06951   0.08690   0.10145   0.11081
 Alpha virt. eigenvalues --    0.11594   0.15071   0.15540   0.15994   0.20157
 Alpha virt. eigenvalues --    0.20171   0.25612   0.31547   0.33889   0.35117

 Mulliken charges:
               1
     1  C   -0.106188
     2  C   -0.000193
     3  N   -0.215741
     4  H    0.114452
     5  H    0.094658
     6  H    0.113012
 Sum of Mulliken charges =   0.00000

 Dipole moment (field-independent basis, Debye):
    X=             -4.0944    Y=              0.0014    Z=              0.0173  Tot=              4.0945
 Quadrupole moment (field-independent basis, Debye-Ang):
   XX=            -21.4421   YY=            -17.6899   ZZ=            -17.6484
   XY=              0.1113   XZ=              0.1097   YZ=             -0.0917

 Normal termination of Gaussian 09 at Wed Aug 26 19:28:53 2020.
