 Gaussian 09, Revision D.01,
 Gaussian 09:  ES64L-G09RevD.01 24-Apr-2013

 --------------------
 #p B2PLYPD3/Def2QZVP
 --------------------

 ------------
 cyanomethane
 ------------
 Symbolic Z-matrix:
 Charge =  0 Multiplicity = 1

                         Standard orientation:
 ---------------------------------------------------------------------
 Center     Atomic      Atomic             Coordinates (Angstroms)
 Number     Number       Type             X           Y           Z
 ---------------------------------------------------------------------
      1          6           0        1.203787   -0.023127    0.001732
      2          6           0       -0.269121    0.019320   -0.036586
      3          7           0       -1.449012   -0.003606    0.020283
      4          1           0        1.563297    0.950518   -0.253474
      5          1           0        1.451979   -0.696552   -0.635732
      6          1           0        1.519811   -0.205881    0.956350
 ---------------------------------------------------------------------

 SCF Done:  E(RB2PLYPD3) =  -132.515132200     A.U. after   12 cycles
 E2(B2PLYPD3) =    -0.1821175131D+00 E(B2PLYPD3) =    -0.13269724971362D+03

 The electronic state is 1-A.
 Alpha  occ. eigenvalues --  -14.84863 -10.66965 -10.65179  -1.03010  -0.91024
 Alpha  occ. eigenvalues --   -0.59769  -0.57800  -0.54388  -0.44736  -0.38706
 Alpha  occ. eigenvalues --   -0.38433
 Alpha virt. eigenvalues --    0.03946   0.07796   0.08761   0.10169   0.10737
 Alpha virt. eigenvalues --    0.11195   0.15293   0.15760   0.16230   0.20182
 Alpha virt. eigenvalues --    0.20273   0.25043   0.32447   0.34835   0.36218

 Mulliken charges:
               1
     1  C   -0.073713
     2  C   -0.000115
     3  N   -0.220523
     4  H    0.090971
     5  H    0.107536
     6  H    0.095844
 Sum of Mulliken charges =   0.00000

 Dipole moment (field-independent basis, Debye):
    X=              4.1813    Y=              0.0125    Z=             -0.0089  Tot=              4.1813
 Quadrupole moment (field-independent basis, Debye-Ang):
   XX=            -20.9700   YY=            -17.7159   ZZ=            -17.7244
   XY=              0.0784   XZ=              0.1604   YZ=              0.0930

 Normal termination of Gaussian 09 at Wed Aug 26 23:00:32 2020.
