 Gaussian 09, Revision D.01,
 Gaussian 09:  ES64L-G09RevD.01 24-Apr-2013

 --------------------
 #p B2PLYPD3/Def2QZVP
 --------------------

 ------------
 cyanomethane
 ------------
 Symbolic Z-matrix:
 Charge =  0 Multiplicity = 1

                         Standard orientation:
 ---------------------------------------------------------------------
 Center     Atomic      Atomic             Coordinates (Angstroms)
 Number     Number       Type             X           Y           Z
 ---------------------------------------------------------------------
      1          6           0        1.178757    0.005820    0.002405
      2          6           0       -0.277260   -0.003827   -0.014460
      3          7           0       -1.438219   -0.000167    0.005870
      4          1           0        1.533292    1.028304   -0.054878
      5          1           0        1.581331   -0.577702   -0.823308
      6          1           0        1.543929   -0.461393    0.909429
 ---------------------------------------------------------------------

 SCF Done:  E(RB2PLYPD3) =  -132.535041580     A.U. after   11 cycles
 E2(B2PLYPD3) =    -0.1809858986D+00 E(B2PLYPD3) =    -0.13271602747895D+03

 The electronic state is 1-A.
 Alpha  occ. eigenvalues --  -14.84387 -10.67011 -10.66459  -1.03861  -0.89348
 Alpha  occ. eigenvalues --   -0.59903  -0.54413  -0.53579  -0.44822  -0.38965
 Alpha  occ. eigenvalues --   -0.38861
 Alpha virt. eigenvalues --    0.03771   0.07763   0.07883   0.10173   0.11299
 Alpha virt. eigenvalues --    0.11471   0.15392   0.16265   0.16410   0.20090
 Alpha virt. eigenvalues --    0.20149   0.25370   0.32683   0.34549   0.34850

 Mulliken charges:
               1
     1  C   -0.080244
     2  C   -0.000257
     3  N   -0.209342
     4  H    0.099253
     5  H    0.094637
     6  H    0.095952
 Sum of Mulliken charges =   0.00000

 Dipole moment (field-independent basis, Debye):
    X=              4.1422    Y=             -0.0124    Z=             -0.0019  Tot=              4.1423
 Quadrupole moment (field-independent basis, Debye-Ang):
   XX=            -20.9715   YY=            -17.6906   ZZ=            -17.8588
   XY=             -0.0622   XZ=              0.0213   YZ=             -0.0066

 Normal termination of Gaussian 09 at Wed Aug 26 10:03:58 2020.
