 Gaussian 09, Revision D.01,
 Gaussian 09:  ES64L-G09RevD.01 24-Apr-2013

 --------------------
 #p B2PLYPD3/Def2QZVP
 --------------------

 ------------
 cyanomethane
 ------------
 Symbolic Z-matrix:
 Charge =  0 Multiplicity = 1

                         Standard orientation:
 ---------------------------------------------------------------------
 Center     Atomic      Atomic             Coordinates (Angstroms)
 Number     Number       Type             X           Y           Z
 ---------------------------------------------------------------------
      1          6           0       -1.178488    0.004676    0.024288
      2          6           0        0.264885   -0.020909    0.013090
      3          7           0        1.430767    0.005362   -0.012750
      4          1           0       -1.472095   -0.118014    0.975257
      5          1           0       -1.592349   -0.814570   -0.674274
      6          1           0       -1.469308    0.992447   -0.436004
 ---------------------------------------------------------------------

 SCF Done:  E(RB2PLYPD3) =  -132.524344296     A.U. after   12 cycles
 E2(B2PLYPD3) =    -0.1816351685D+00 E(B2PLYPD3) =    -0.13270597946435D+03

 The electronic state is 1-A.
 Alpha  occ. eigenvalues --  -14.84354 -10.67209 -10.66391  -1.03607  -0.89755
 Alpha  occ. eigenvalues --   -0.59372  -0.56050  -0.52610  -0.44688  -0.38817
 Alpha  occ. eigenvalues --   -0.38352
 Alpha virt. eigenvalues --    0.03592   0.07004   0.08482   0.10132   0.11058
 Alpha virt. eigenvalues --    0.11680   0.15314   0.15774   0.16088   0.20106
 Alpha virt. eigenvalues --    0.20235   0.25513   0.32221   0.33241   0.35160

 Mulliken charges:
               1
     1  C   -0.098960
     2  C    0.000253
     3  N   -0.213865
     4  H    0.111860
     5  H    0.097090
     6  H    0.103622
 Sum of Mulliken charges =   0.00000

 Dipole moment (field-independent basis, Debye):
    X=             -4.1156    Y=              0.0042    Z=              0.0112  Tot=              4.1156
 Quadrupole moment (field-independent basis, Debye-Ang):
   XX=            -21.3059   YY=            -17.7736   ZZ=            -17.6313
   XY=              0.0412   XZ=              0.1404   YZ=             -0.0561

 Normal termination of Gaussian 09 at Wed Aug 26 15:26:14 2020.
