 Gaussian 09, Revision D.01,
 Gaussian 09:  ES64L-G09RevD.01 24-Apr-2013

 --------------------
 #p B2PLYPD3/Def2QZVP
 --------------------

 ------------
 cyanomethane
 ------------
 Symbolic Z-matrix:
 Charge =  0 Multiplicity = 1

                         Standard orientation:
 ---------------------------------------------------------------------
 Center     Atomic      Atomic             Coordinates (Angstroms)
 Number     Number       Type             X           Y           Z
 ---------------------------------------------------------------------
      1          6           0        1.186182    0.015117    0.016684
      2          6           0       -0.274904   -0.016940   -0.018072
      3          7           0       -1.443712    0.009015    0.008775
      4          1           0        1.518715   -0.702209   -0.741825
      5          1           0        1.553427   -0.309292    0.934506
      6          1           0        1.566173    0.959339   -0.245779
 ---------------------------------------------------------------------

 SCF Done:  E(RB2PLYPD3) =  -132.531245493     A.U. after   12 cycles
 E2(B2PLYPD3) =    -0.1814913304D+00 E(B2PLYPD3) =    -0.13271273682301D+03

 The electronic state is 1-A.
 Alpha  occ. eigenvalues --  -14.84615 -10.66721 -10.66405  -1.03527  -0.89846
 Alpha  occ. eigenvalues --   -0.60200  -0.55387  -0.53658  -0.44836  -0.38931
 Alpha  occ. eigenvalues --   -0.38615
 Alpha virt. eigenvalues --    0.03851   0.07883   0.07977   0.10120   0.11104
 Alpha virt. eigenvalues --    0.11378   0.15411   0.15687   0.16935   0.20162
 Alpha virt. eigenvalues --    0.20180   0.25313   0.32616   0.34234   0.35715

 Mulliken charges:
               1
     1  C   -0.073484
     2  C    0.001703
     3  N   -0.213861
     4  H    0.090370
     5  H    0.097682
     6  H    0.097590
 Sum of Mulliken charges =   0.00000

 Dipole moment (field-independent basis, Debye):
    X=              4.1620    Y=             -0.0251    Z=             -0.0203  Tot=              4.1622
 Quadrupole moment (field-independent basis, Debye-Ang):
   XX=            -20.9256   YY=            -17.7635   ZZ=            -17.7949
   XY=              0.0423   XZ=              0.0400   YZ=             -0.0624

 Normal termination of Gaussian 09 at Wed Aug 26 16:06:20 2020.
