 Gaussian 09, Revision D.01,
 Gaussian 09:  ES64L-G09RevD.01 24-Apr-2013

 --------------------
 #p B2PLYPD3/Def2QZVP
 --------------------

 ------------
 cyanomethane
 ------------
 Symbolic Z-matrix:
 Charge =  0 Multiplicity = 1

                         Standard orientation:
 ---------------------------------------------------------------------
 Center     Atomic      Atomic             Coordinates (Angstroms)
 Number     Number       Type             X           Y           Z
 ---------------------------------------------------------------------
      1          6           0        1.183310   -0.000710   -0.007466
      2          6           0       -0.276618   -0.057688    0.031691
      3          7           0       -1.415392    0.030445   -0.022470
      4          1           0        1.544376    0.854850   -0.477718
      5          1           0        1.530783   -0.795807   -0.441396
      6          1           0        1.392438    0.078230    0.931053
 ---------------------------------------------------------------------

 SCF Done:  E(RB2PLYPD3) =  -132.509510882     A.U. after   12 cycles
 E2(B2PLYPD3) =    -0.1786736653D+00 E(B2PLYPD3) =    -0.13268818454707D+03

 The electronic state is 1-A.
 Alpha  occ. eigenvalues --  -14.83750 -10.65700 -10.64007  -1.04556  -0.91789
 Alpha  occ. eigenvalues --   -0.60153  -0.57903  -0.54992  -0.44631  -0.39618
 Alpha  occ. eigenvalues --   -0.39311
 Alpha virt. eigenvalues --    0.03969   0.08704   0.09993   0.10243   0.11095
 Alpha virt. eigenvalues --    0.11516   0.15399   0.15716   0.17061   0.20049
 Alpha virt. eigenvalues --    0.20129   0.25540   0.33506   0.35345   0.36744

 Mulliken charges:
               1
     1  C   -0.073387
     2  C   -0.003764
     3  N   -0.203416
     4  H    0.085850
     5  H    0.094867
     6  H    0.099850
 Sum of Mulliken charges =   0.00000

 Dipole moment (field-independent basis, Debye):
    X=              4.1004    Y=             -0.0312    Z=              0.0591  Tot=              4.1009
 Quadrupole moment (field-independent basis, Debye-Ang):
   XX=            -20.8467   YY=            -17.5149   ZZ=            -17.5689
   XY=              0.2037   XZ=             -0.1849   YZ=              0.0844

 Normal termination of Gaussian 09 at Wed Aug 26 21:00:36 2020.
