 Gaussian 09, Revision D.01,
 Gaussian 09:  ES64L-G09RevD.01 24-Apr-2013

 --------------------
 #p B2PLYPD3/Def2QZVP
 --------------------

 ------------
 cyanomethane
 ------------
 Symbolic Z-matrix:
 Charge =  0 Multiplicity = 1

                         Standard orientation:
 ---------------------------------------------------------------------
 Center     Atomic      Atomic             Coordinates (Angstroms)
 Number     Number       Type             X           Y           Z
 ---------------------------------------------------------------------
      1          6           0       -1.151299   -0.007948   -0.006185
      2          6           0        0.282250   -0.019191   -0.021270
      3          7           0        1.428371    0.005642    0.002658
      4          1           0       -1.546564    1.045851   -0.138890
      5          1           0       -1.486137   -0.290852    0.946120
      6          1           0       -1.751594   -0.631658   -0.661101
 ---------------------------------------------------------------------

 SCF Done:  E(RB2PLYPD3) =  -132.529001291     A.U. after   12 cycles
 E2(B2PLYPD3) =    -0.1801069955D+00 E(B2PLYPD3) =    -0.13270910828677D+03

 The electronic state is 1-A.
 Alpha  occ. eigenvalues --  -14.84145 -10.66760 -10.66220  -1.04640  -0.89592
 Alpha  occ. eigenvalues --   -0.61697  -0.53518  -0.52778  -0.44999  -0.39282
 Alpha  occ. eigenvalues --   -0.39134
 Alpha virt. eigenvalues --    0.03708   0.07268   0.08033   0.10190   0.11729
 Alpha virt. eigenvalues --    0.11852   0.15605   0.16170   0.17860   0.20069
 Alpha virt. eigenvalues --    0.20253   0.25815   0.32742   0.34128   0.35257

 Mulliken charges:
               1
     1  C   -0.067749
     2  C    0.008850
     3  N   -0.202393
     4  H    0.084771
     5  H    0.088629
     6  H    0.087892
 Sum of Mulliken charges =   0.00000

 Dipole moment (field-independent basis, Debye):
    X=             -4.1410    Y=             -0.0218    Z=              0.0544  Tot=              4.1414
 Quadrupole moment (field-independent basis, Debye-Ang):
   XX=            -20.5136   YY=            -17.7638   ZZ=            -17.9727
   XY=              0.0756   XZ=             -0.0069   YZ=             -0.0086

 Normal termination of Gaussian 09 at Wed Aug 26 18:33:24 2020.
