 Gaussian 09, Revision D.01,
 Gaussian 09:  ES64L-G09RevD.01 24-Apr-2013

 --------------------
 #p B2PLYPD3/Def2QZVP
 --------------------

 ------------
 cyanomethane
 ------------
 Symbolic Z-matrix:
 Charge =  0 Multiplicity = 1

                         Standard orientation:
 ---------------------------------------------------------------------
 Center     Atomic      Atomic             Coordinates (Angstroms)
 Number     Number       Type             X           Y           Z
 ---------------------------------------------------------------------
      1          6           0       -1.179790    0.012803   -0.001179
      2          6           0        0.272876   -0.019710    0.000344
      3          7           0        1.439107    0.008452   -0.000530
      4          1           0       -1.538689   -0.153189    1.022433
      5          1           0       -1.553273   -0.825136   -0.633108
      6          1           0       -1.540304    0.960603   -0.380607
 ---------------------------------------------------------------------

 SCF Done:  E(RB2PLYPD3) =  -132.533664065     A.U. after   12 cycles
 E2(B2PLYPD3) =    -0.1816256328D+00 E(B2PLYPD3) =    -0.13271528969753D+03

 The electronic state is 1-A.
 Alpha  occ. eigenvalues --  -14.84495 -10.67407 -10.66567  -1.03628  -0.89185
 Alpha  occ. eigenvalues --   -0.59565  -0.54336  -0.53460  -0.44800  -0.38785
 Alpha  occ. eigenvalues --   -0.38636
 Alpha virt. eigenvalues --    0.03698   0.07559   0.07652   0.10130   0.11302
 Alpha virt. eigenvalues --    0.11416   0.15356   0.15901   0.16438   0.20131
 Alpha virt. eigenvalues --    0.20166   0.25428   0.32517   0.34078   0.34782

 Mulliken charges:
               1
     1  C   -0.089279
     2  C    0.000735
     3  N   -0.211961
     4  H    0.099406
     5  H    0.097730
     6  H    0.103369
 Sum of Mulliken charges =   0.00000

 Dipole moment (field-independent basis, Debye):
    X=             -4.1372    Y=             -0.0146    Z=              0.0070  Tot=              4.1372
 Quadrupole moment (field-independent basis, Debye-Ang):
   XX=            -21.1126   YY=            -17.7346   ZZ=            -17.8135
   XY=             -0.0235   XZ=             -0.0043   YZ=             -0.0308

 Normal termination of Gaussian 09 at Thu Aug 27 00:07:00 2020.
