 Gaussian 09, Revision D.01,
 Gaussian 09:  ES64L-G09RevD.01 24-Apr-2013

 --------------------
 #p B2PLYPD3/Def2QZVP
 --------------------

 ------------
 cyanomethane
 ------------
 Symbolic Z-matrix:
 Charge =  0 Multiplicity = 1

                         Standard orientation:
 ---------------------------------------------------------------------
 Center     Atomic      Atomic             Coordinates (Angstroms)
 Number     Number       Type             X           Y           Z
 ---------------------------------------------------------------------
      1          6           0       -1.173294    0.027684   -0.023554
      2          6           0        0.273892    0.030511    0.053623
      3          7           0        1.450747   -0.022584   -0.027454
      4          1           0       -1.543942    0.994650   -0.075773
      5          1           0       -1.579374   -0.525283    0.909558
      6          1           0       -1.635501   -0.660447   -0.822017
 ---------------------------------------------------------------------

 SCF Done:  E(RB2PLYPD3) =  -132.520787751     A.U. after   12 cycles
 E2(B2PLYPD3) =    -0.1835357887D+00 E(B2PLYPD3) =    -0.13270432353995D+03

 The electronic state is 1-A.
 Alpha  occ. eigenvalues --  -14.85125 -10.67866 -10.67196  -1.03227  -0.88906
 Alpha  occ. eigenvalues --   -0.60423  -0.55405  -0.50802  -0.45076  -0.38750
 Alpha  occ. eigenvalues --   -0.37996
 Alpha virt. eigenvalues --    0.03296   0.06089   0.07641   0.09967   0.10795
 Alpha virt. eigenvalues --    0.11795   0.15378   0.15761   0.17380   0.20051
 Alpha virt. eigenvalues --    0.20376   0.25725   0.32041   0.32890   0.35153

 Mulliken charges:
               1
     1  C   -0.079507
     2  C    0.008316
     3  N   -0.215114
     4  H    0.106838
     5  H    0.085843
     6  H    0.093625
 Sum of Mulliken charges =   0.00000

 Dipole moment (field-independent basis, Debye):
    X=             -4.1505    Y=             -0.0089    Z=              0.0477  Tot=              4.1508
 Quadrupole moment (field-independent basis, Debye-Ang):
   XX=            -20.8745   YY=            -17.6615   ZZ=            -18.2215
   XY=              0.2818   XZ=              0.1392   YZ=             -0.0154

 Normal termination of Gaussian 09 at Wed Aug 26 22:04:54 2020.
