 Gaussian 09, Revision D.01,
 Gaussian 09:  ES64L-G09RevD.01 24-Apr-2013

 --------------------
 #p B2PLYPD3/Def2QZVP
 --------------------

 ------------
 cyanomethane
 ------------
 Symbolic Z-matrix:
 Charge =  0 Multiplicity = 1

                         Standard orientation:
 ---------------------------------------------------------------------
 Center     Atomic      Atomic             Coordinates (Angstroms)
 Number     Number       Type             X           Y           Z
 ---------------------------------------------------------------------
      1          6           0        1.188760    0.001901    0.002616
      2          6           0       -0.272702    0.018585    0.008143
      3          7           0       -1.439298   -0.003926    0.000292
      4          1           0        1.568867   -0.311060    0.941249
      5          1           0        1.586286    0.973229   -0.272520
      6          1           0        1.423590   -0.757600   -0.735321
 ---------------------------------------------------------------------

 SCF Done:  E(RB2PLYPD3) =  -132.532842862     A.U. after   12 cycles
 E2(B2PLYPD3) =    -0.1813910361D+00 E(B2PLYPD3) =    -0.13271423389850D+03

 The electronic state is 1-A.
 Alpha  occ. eigenvalues --  -14.84429 -10.66876 -10.66550  -1.03565  -0.89610
 Alpha  occ. eigenvalues --   -0.59528  -0.54689  -0.54221  -0.44712  -0.38839
 Alpha  occ. eigenvalues --   -0.38634
 Alpha virt. eigenvalues --    0.03799   0.07838   0.08103   0.10195   0.11149
 Alpha virt. eigenvalues --    0.11397   0.15196   0.15682   0.16545   0.20130
 Alpha virt. eigenvalues --    0.20204   0.25229   0.32549   0.34304   0.35128

 Mulliken charges:
               1
     1  C   -0.088218
     2  C   -0.000632
     3  N   -0.213480
     4  H    0.099395
     5  H    0.101107
     6  H    0.101829
 Sum of Mulliken charges =   0.00000

 Dipole moment (field-independent basis, Debye):
    X=              4.1496    Y=             -0.0182    Z=             -0.0002  Tot=              4.1496
 Quadrupole moment (field-independent basis, Debye-Ang):
   XX=            -21.1242   YY=            -17.6613   ZZ=            -17.8180
   XY=              0.0334   XZ=              0.0920   YZ=             -0.0122

 Normal termination of Gaussian 09 at Wed Aug 26 11:00:47 2020.
