 Gaussian 09, Revision D.01,
 Gaussian 09:  ES64L-G09RevD.01 24-Apr-2013

 --------------------
 #p B2PLYPD3/Def2QZVP
 --------------------

 ------------
 cyanomethane
 ------------
 Symbolic Z-matrix:
 Charge =  0 Multiplicity = 1

                         Standard orientation:
 ---------------------------------------------------------------------
 Center     Atomic      Atomic             Coordinates (Angstroms)
 Number     Number       Type             X           Y           Z
 ---------------------------------------------------------------------
      1          6           0        1.180379   -0.007142   -0.001103
      2          6           0       -0.284125    0.012540    0.010046
      3          7           0       -1.435424   -0.002602   -0.005711
      4          1           0        1.598670    0.931441   -0.468578
      5          1           0        1.524670   -0.878621   -0.574178
      6          1           0        1.547103   -0.066992    1.029074
 ---------------------------------------------------------------------

 SCF Done:  E(RB2PLYPD3) =  -132.534500561     A.U. after   11 cycles
 E2(B2PLYPD3) =    -0.1804438237D+00 E(B2PLYPD3) =    -0.13271494438468D+03

 The electronic state is 1-A.
 Alpha  occ. eigenvalues --  -14.84124 -10.67738 -10.66212  -1.04223  -0.88684
 Alpha  occ. eigenvalues --   -0.59302  -0.53908  -0.53066  -0.44771  -0.39162
 Alpha  occ. eigenvalues --   -0.39086
 Alpha virt. eigenvalues --    0.03651   0.07598   0.07980   0.10194   0.11463
 Alpha virt. eigenvalues --    0.11551   0.15301   0.16192   0.16471   0.20055
 Alpha virt. eigenvalues --    0.20075   0.25224   0.32469   0.34197   0.34547

 Mulliken charges:
               1
     1  C   -0.092125
     2  C   -0.001568
     3  N   -0.203819
     4  H    0.096508
     5  H    0.101485
     6  H    0.099520
 Sum of Mulliken charges =   0.00000

 Dipole moment (field-independent basis, Debye):
    X=              4.1170    Y=             -0.0027    Z=              0.0146  Tot=              4.1170
 Quadrupole moment (field-independent basis, Debye-Ang):
   XX=            -21.0685   YY=            -17.7538   ZZ=            -17.7713
   XY=              0.0297   XZ=             -0.0264   YZ=              0.0264

 Normal termination of Gaussian 09 at Wed Aug 26 10:03:25 2020.
