 Gaussian 09, Revision D.01,
 Gaussian 09:  ES64L-G09RevD.01 24-Apr-2013

 --------------------
 #p B2PLYPD3/Def2QZVP
 --------------------

 ------------
 cyanomethane
 ------------
 Symbolic Z-matrix:
 Charge =  0 Multiplicity = 1

                         Standard orientation:
 ---------------------------------------------------------------------
 Center     Atomic      Atomic             Coordinates (Angstroms)
 Number     Number       Type             X           Y           Z
 ---------------------------------------------------------------------
      1          6           0       -1.171277   -0.000170   -0.001975
      2          6           0        0.275391   -0.018446   -0.004847
      3          7           0        1.440119    0.011773    0.003138
      4          1           0       -1.562622   -0.379293    0.956499
      5          1           0       -1.547291   -0.624427   -0.802731
      6          1           0       -1.595601    1.033003   -0.134801
 ---------------------------------------------------------------------

 SCF Done:  E(RB2PLYPD3) =  -132.533124350     A.U. after   12 cycles
 E2(B2PLYPD3) =    -0.1816245111D+00 E(B2PLYPD3) =    -0.13271474886146D+03

 The electronic state is 1-A.
 Alpha  occ. eigenvalues --  -14.84567 -10.67454 -10.66622  -1.03767  -0.89095
 Alpha  occ. eigenvalues --   -0.60140  -0.53991  -0.52988  -0.44919  -0.38820
 Alpha  occ. eigenvalues --   -0.38719
 Alpha virt. eigenvalues --    0.03645   0.07147   0.07698   0.10119   0.11348
 Alpha virt. eigenvalues --    0.11538   0.15459   0.16182   0.16660   0.20100
 Alpha virt. eigenvalues --    0.20174   0.25554   0.32600   0.34174   0.34625

 Mulliken charges:
               1
     1  C   -0.081216
     2  C    0.002276
     3  N   -0.210111
     4  H    0.096012
     5  H    0.098189
     6  H    0.094849
 Sum of Mulliken charges =   0.00000

 Dipole moment (field-independent basis, Debye):
    X=             -4.1408    Y=             -0.0228    Z=             -0.0023  Tot=              4.1409
 Quadrupole moment (field-independent basis, Debye-Ang):
   XX=            -20.9327   YY=            -17.8364   ZZ=            -17.8240
   XY=             -0.0863   XZ=             -0.0294   YZ=              0.0245

 Normal termination of Gaussian 09 at Thu Aug 27 00:10:22 2020.
