 Gaussian 09, Revision D.01,
 Gaussian 09:  ES64L-G09RevD.01 24-Apr-2013

 --------------------
 #p B2PLYPD3/Def2QZVP
 --------------------

 ------------
 cyanomethane
 ------------
 Symbolic Z-matrix:
 Charge =  0 Multiplicity = 1

                         Standard orientation:
 ---------------------------------------------------------------------
 Center     Atomic      Atomic             Coordinates (Angstroms)
 Number     Number       Type             X           Y           Z
 ---------------------------------------------------------------------
      1          6           0       -1.170264   -0.007235    0.007232
      2          6           0        0.280230   -0.006494   -0.022073
      3          7           0        1.427688    0.003882    0.010186
      4          1           0       -1.542702   -0.062916    1.024722
      5          1           0       -1.559961   -0.827044   -0.572959
      6          1           0       -1.550954    0.945155   -0.434017
 ---------------------------------------------------------------------

 SCF Done:  E(RB2PLYPD3) =  -132.535524591     A.U. after   11 cycles
 E2(B2PLYPD3) =    -0.1799513995D+00 E(B2PLYPD3) =    -0.13271547599019D+03

 The electronic state is 1-A.
 Alpha  occ. eigenvalues --  -14.84004 -10.67119 -10.66030  -1.04401  -0.89221
 Alpha  occ. eigenvalues --   -0.59833  -0.54319  -0.53290  -0.44783  -0.39267
 Alpha  occ. eigenvalues --   -0.39095
 Alpha virt. eigenvalues --    0.03745   0.07780   0.08107   0.10168   0.11483
 Alpha virt. eigenvalues --    0.11691   0.15485   0.16219   0.16615   0.20032
 Alpha virt. eigenvalues --    0.20092   0.25508   0.32839   0.34222   0.34979

 Mulliken charges:
               1
     1  C   -0.084059
     2  C   -0.001873
     3  N   -0.202717
     4  H    0.097877
     5  H    0.097495
     6  H    0.093278
 Sum of Mulliken charges =   0.00000

 Dipole moment (field-independent basis, Debye):
    X=             -4.1110    Y=             -0.0034    Z=             -0.0126  Tot=              4.1110
 Quadrupole moment (field-independent basis, Debye-Ang):
   XX=            -20.9847   YY=            -17.7435   ZZ=            -17.7227
   XY=             -0.0252   XZ=             -0.0508   YZ=              0.0321

 Normal termination of Gaussian 09 at Thu Aug 27 01:14:38 2020.
