 Gaussian 09, Revision D.01,
 Gaussian 09:  ES64L-G09RevD.01 24-Apr-2013

 --------------------
 #p B2PLYPD3/Def2QZVP
 --------------------

 ------------
 cyanomethane
 ------------
 Symbolic Z-matrix:
 Charge =  0 Multiplicity = 1

                         Standard orientation:
 ---------------------------------------------------------------------
 Center     Atomic      Atomic             Coordinates (Angstroms)
 Number     Number       Type             X           Y           Z
 ---------------------------------------------------------------------
      1          6           0        1.182325    0.003479    0.018013
      2          6           0       -0.272925   -0.006338   -0.022608
      3          7           0       -1.439779    0.002183    0.007795
      4          1           0        1.538198    0.991850   -0.269222
      5          1           0        1.568850   -0.722497   -0.726263
      6          1           0        1.515005   -0.267478    0.968492
 ---------------------------------------------------------------------

 SCF Done:  E(RB2PLYPD3) =  -132.532739871     A.U. after   12 cycles
 E2(B2PLYPD3) =    -0.1814678027D+00 E(B2PLYPD3) =    -0.13271420767404D+03

 The electronic state is 1-A.
 Alpha  occ. eigenvalues --  -14.84515 -10.66899 -10.66585  -1.03599  -0.89553
 Alpha  occ. eigenvalues --   -0.59786  -0.55086  -0.53472  -0.44798  -0.38855
 Alpha  occ. eigenvalues --   -0.38639
 Alpha virt. eigenvalues --    0.03782   0.07627   0.07957   0.10143   0.11209
 Alpha virt. eigenvalues --    0.11392   0.15374   0.15976   0.16406   0.20133
 Alpha virt. eigenvalues --    0.20170   0.25393   0.32532   0.34180   0.35241

 Mulliken charges:
               1
     1  C   -0.082756
     2  C    0.000234
     3  N   -0.212779
     4  H    0.098541
     5  H    0.093929
     6  H    0.102831
 Sum of Mulliken charges =   0.00000

 Dipole moment (field-independent basis, Debye):
    X=              4.1450    Y=             -0.0047    Z=             -0.0097  Tot=              4.1450
 Quadrupole moment (field-independent basis, Debye-Ang):
   XX=            -21.0511   YY=            -17.7737   ZZ=            -17.7522
   XY=             -0.0081   XZ=             -0.0006   YZ=             -0.0507

 Normal termination of Gaussian 09 at Thu Aug 27 00:11:18 2020.
