 Gaussian 09, Revision D.01,
 Gaussian 09:  ES64L-G09RevD.01 24-Apr-2013

 --------------------
 #p B2PLYPD3/Def2QZVP
 --------------------

 ------------
 cyanomethane
 ------------
 Symbolic Z-matrix:
 Charge =  0 Multiplicity = 1

                         Standard orientation:
 ---------------------------------------------------------------------
 Center     Atomic      Atomic             Coordinates (Angstroms)
 Number     Number       Type             X           Y           Z
 ---------------------------------------------------------------------
      1          6           0       -1.183382    0.006261   -0.016512
      2          6           0        0.313409   -0.044287    0.065409
      3          7           0        1.438447    0.020280   -0.039487
      4          1           0       -1.704653   -0.743784   -0.656555
      5          1           0       -1.606680    0.987923   -0.317408
      6          1           0       -1.537958   -0.157947    0.956990
 ---------------------------------------------------------------------

 SCF Done:  E(RB2PLYPD3) =  -132.527643853     A.U. after   12 cycles
 E2(B2PLYPD3) =    -0.1790260717D+00 E(B2PLYPD3) =    -0.13270666992444D+03

 The electronic state is 1-A.
 Alpha  occ. eigenvalues --  -14.83905 -10.67411 -10.66056  -1.05191  -0.88243
 Alpha  occ. eigenvalues --   -0.59966  -0.53291  -0.52232  -0.44968  -0.39967
 Alpha  occ. eigenvalues --   -0.39880
 Alpha virt. eigenvalues --    0.03449   0.07571   0.08779   0.10065   0.11428
 Alpha virt. eigenvalues --    0.11684   0.15415   0.15895   0.18226   0.19761
 Alpha virt. eigenvalues --    0.20293   0.25165   0.32583   0.34483   0.34862

 Mulliken charges:
               1
     1  C   -0.075078
     2  C    0.002028
     3  N   -0.190468
     4  H    0.087605
     5  H    0.087910
     6  H    0.088004
 Sum of Mulliken charges =   0.00000

 Dipole moment (field-independent basis, Debye):
    X=             -4.1013    Y=             -0.0286    Z=              0.1064  Tot=              4.1027
 Quadrupole moment (field-independent basis, Debye-Ang):
   XX=            -20.5316   YY=            -17.8258   ZZ=            -17.8926
   XY=             -0.0924   XZ=              0.2449   YZ=              0.0112

 Normal termination of Gaussian 09 at Wed Aug 26 19:51:22 2020.
