 Gaussian 09, Revision D.01,
 Gaussian 09:  ES64L-G09RevD.01 24-Apr-2013

 --------------------
 #p B2PLYPD3/Def2QZVP
 --------------------

 ------------
 cyanomethane
 ------------
 Symbolic Z-matrix:
 Charge =  0 Multiplicity = 1

                         Standard orientation:
 ---------------------------------------------------------------------
 Center     Atomic      Atomic             Coordinates (Angstroms)
 Number     Number       Type             X           Y           Z
 ---------------------------------------------------------------------
      1          6           0       -1.185974    0.006168   -0.004670
      2          6           0        0.279012    0.009234   -0.012891
      3          7           0        1.436095   -0.009771    0.008072
      4          1           0       -1.478862    0.930309   -0.390357
      5          1           0       -1.554919   -0.118008    1.018946
      6          1           0       -1.577111   -0.836316   -0.579728
 ---------------------------------------------------------------------

 SCF Done:  E(RB2PLYPD3) =  -132.533533813     A.U. after   12 cycles
 E2(B2PLYPD3) =    -0.1805718481D+00 E(B2PLYPD3) =    -0.13271410566161D+03

 The electronic state is 1-A.
 Alpha  occ. eigenvalues --  -14.84222 -10.66851 -10.66301  -1.03952  -0.89476
 Alpha  occ. eigenvalues --   -0.59424  -0.55343  -0.53361  -0.44726  -0.39105
 Alpha  occ. eigenvalues --   -0.38922
 Alpha virt. eigenvalues --    0.03783   0.07727   0.08502   0.10197   0.11174
 Alpha virt. eigenvalues --    0.11509   0.15311   0.15995   0.16452   0.20057
 Alpha virt. eigenvalues --    0.20163   0.25186   0.32662   0.34353   0.35239

 Mulliken charges:
               1
     1  C   -0.084752
     2  C   -0.002829
     3  N   -0.208204
     4  H    0.103241
     5  H    0.095385
     6  H    0.097158
 Sum of Mulliken charges =   0.00000

 Dipole moment (field-independent basis, Debye):
    X=             -4.1345    Y=              0.0126    Z=             -0.0012  Tot=              4.1345
 Quadrupole moment (field-independent basis, Debye-Ang):
   XX=            -21.0562   YY=            -17.6447   ZZ=            -17.8086
   XY=              0.1352   XZ=             -0.0862   YZ=             -0.0343

 Normal termination of Gaussian 09 at Wed Aug 26 23:57:30 2020.
