 Gaussian 09, Revision D.01,
 Gaussian 09:  ES64L-G09RevD.01 24-Apr-2013

 --------------------
 #p B2PLYPD3/Def2QZVP
 --------------------

 ------------
 cyanomethane
 ------------
 Symbolic Z-matrix:
 Charge =  0 Multiplicity = 1

                         Standard orientation:
 ---------------------------------------------------------------------
 Center     Atomic      Atomic             Coordinates (Angstroms)
 Number     Number       Type             X           Y           Z
 ---------------------------------------------------------------------
      1          6           0       -1.181322   -0.013656   -0.013344
      2          6           0        0.281186    0.031137    0.030198
      3          7           0        1.419763   -0.017190   -0.017719
      4          1           0       -1.562359   -0.672358   -0.801135
      5          1           0       -1.491648    1.055243   -0.172017
      6          1           0       -1.483516   -0.367443    0.996064
 ---------------------------------------------------------------------

 SCF Done:  E(RB2PLYPD3) =  -132.532359139     A.U. after   12 cycles
 E2(B2PLYPD3) =    -0.1796447473D+00 E(B2PLYPD3) =    -0.13271200388677D+03

 The electronic state is 1-A.
 Alpha  occ. eigenvalues --  -14.83634 -10.67807 -10.65674  -1.04571  -0.88755
 Alpha  occ. eigenvalues --   -0.58533  -0.53854  -0.53674  -0.44569  -0.39315
 Alpha  occ. eigenvalues --   -0.39165
 Alpha virt. eigenvalues --    0.03618   0.07830   0.08325   0.10124   0.11572
 Alpha virt. eigenvalues --    0.11741   0.15290   0.15346   0.16725   0.20023
 Alpha virt. eigenvalues --    0.20082   0.25368   0.32649   0.33730   0.34552

 Mulliken charges:
               1
     1  C   -0.109525
     2  C   -0.003766
     3  N   -0.199864
     4  H    0.107098
     5  H    0.102568
     6  H    0.103489
 Sum of Mulliken charges =   0.00000

 Dipole moment (field-independent basis, Debye):
    X=             -4.0631    Y=              0.0231    Z=              0.0310  Tot=              4.0632
 Quadrupole moment (field-independent basis, Debye-Ang):
   XX=            -21.3777   YY=            -17.6227   ZZ=            -17.6474
   XY=              0.1441   XZ=              0.1474   YZ=              0.0172

 Normal termination of Gaussian 09 at Wed Aug 26 10:49:14 2020.
