 Gaussian 09, Revision D.01,
 Gaussian 09:  ES64L-G09RevD.01 24-Apr-2013

 --------------------
 #p B2PLYPD3/Def2QZVP
 --------------------

 ------------
 cyanomethane
 ------------
 Symbolic Z-matrix:
 Charge =  0 Multiplicity = 1

                         Standard orientation:
 ---------------------------------------------------------------------
 Center     Atomic      Atomic             Coordinates (Angstroms)
 Number     Number       Type             X           Y           Z
 ---------------------------------------------------------------------
      1          6           0       -1.175471    0.008469    0.003925
      2          6           0        0.284249    0.002078   -0.019419
      3          7           0        1.435897   -0.003054    0.010110
      4          1           0       -1.553935    1.011069   -0.144695
      5          1           0       -1.576595   -0.393757    0.966532
      6          1           0       -1.573417   -0.659214   -0.799640
 ---------------------------------------------------------------------

 SCF Done:  E(RB2PLYPD3) =  -132.534371569     A.U. after   12 cycles
 E2(B2PLYPD3) =    -0.1805011892D+00 E(B2PLYPD3) =    -0.13271487275854D+03

 The electronic state is 1-A.
 Alpha  occ. eigenvalues --  -14.84195 -10.67622 -10.66270  -1.04250  -0.88756
 Alpha  occ. eigenvalues --   -0.59724  -0.53964  -0.52785  -0.44840  -0.39212
 Alpha  occ. eigenvalues --   -0.39036
 Alpha virt. eigenvalues --    0.03654   0.07496   0.07927   0.10170   0.11418
 Alpha virt. eigenvalues --    0.11641   0.15387   0.16277   0.16655   0.20032
 Alpha virt. eigenvalues --    0.20097   0.25333   0.32581   0.34043   0.34770

 Mulliken charges:
               1
     1  C   -0.085891
     2  C   -0.000299
     3  N   -0.203710
     4  H    0.099808
     5  H    0.095685
     6  H    0.094407
 Sum of Mulliken charges =   0.00000

 Dipole moment (field-independent basis, Debye):
    X=             -4.1207    Y=              0.0015    Z=             -0.0139  Tot=              4.1207
 Quadrupole moment (field-independent basis, Debye-Ang):
   XX=            -20.9643   YY=            -17.7403   ZZ=            -17.8412
   XY=              0.0463   XZ=             -0.0647   YZ=             -0.0135

 Normal termination of Gaussian 09 at Thu Aug 27 00:01:22 2020.
