 Gaussian 09, Revision D.01,
 Gaussian 09:  ES64L-G09RevD.01 24-Apr-2013

 --------------------
 #p B2PLYPD3/Def2QZVP
 --------------------

 ------------
 cyanomethane
 ------------
 Symbolic Z-matrix:
 Charge =  0 Multiplicity = 1

                         Standard orientation:
 ---------------------------------------------------------------------
 Center     Atomic      Atomic             Coordinates (Angstroms)
 Number     Number       Type             X           Y           Z
 ---------------------------------------------------------------------
      1          6           0        1.182007   -0.020322   -0.000270
      2          6           0       -0.255341    0.002112   -0.044324
      3          7           0       -1.435837   -0.001117    0.017391
      4          1           0        1.487809    1.008314   -0.150597
      5          1           0        1.572910   -0.626650   -0.637830
      6          1           0        1.430144   -0.264578    0.934249
 ---------------------------------------------------------------------

 SCF Done:  E(RB2PLYPD3) =  -132.512951538     A.U. after   12 cycles
 E2(B2PLYPD3) =    -0.1821199051D+00 E(B2PLYPD3) =    -0.13269507144348D+03

 The electronic state is 1-A.
 Alpha  occ. eigenvalues --  -14.84781 -10.66841 -10.64731  -1.03092  -0.91635
 Alpha  occ. eigenvalues --   -0.61085  -0.57314  -0.54830  -0.44769  -0.38568
 Alpha  occ. eigenvalues --   -0.38199
 Alpha virt. eigenvalues --    0.03968   0.07958   0.08438   0.10124   0.10906
 Alpha virt. eigenvalues --    0.11378   0.15549   0.15648   0.16418   0.20203
 Alpha virt. eigenvalues --    0.20330   0.25711   0.32752   0.34608   0.36181

 Mulliken charges:
               1
     1  C   -0.068401
     2  C    0.003842
     3  N   -0.222634
     4  H    0.092850
     5  H    0.097648
     6  H    0.096694
 Sum of Mulliken charges =   0.00000

 Dipole moment (field-independent basis, Debye):
    X=              4.1743    Y=              0.0022    Z=              0.0146  Tot=              4.1744
 Quadrupole moment (field-independent basis, Debye-Ang):
   XX=            -20.9624   YY=            -17.6224   ZZ=            -17.7518
   XY=             -0.0447   XZ=              0.0661   YZ=              0.0556

 Normal termination of Gaussian 09 at Wed Aug 26 19:50:16 2020.
