 Gaussian 09, Revision D.01,
 Gaussian 09:  ES64L-G09RevD.01 24-Apr-2013

 --------------------
 #p B2PLYPD3/Def2QZVP
 --------------------

 ------------
 cyanomethane
 ------------
 Symbolic Z-matrix:
 Charge =  0 Multiplicity = 1

                         Standard orientation:
 ---------------------------------------------------------------------
 Center     Atomic      Atomic             Coordinates (Angstroms)
 Number     Number       Type             X           Y           Z
 ---------------------------------------------------------------------
      1          6           0        1.197989   -0.024059   -0.004366
      2          6           0       -0.283960   -0.036843    0.015610
      3          7           0       -1.435100    0.019918   -0.013059
      4          1           0        1.512262    1.041856   -0.158052
      5          1           0        1.594692   -0.560715   -0.706064
      6          1           0        1.454569   -0.255153    0.888067
 ---------------------------------------------------------------------

 SCF Done:  E(RB2PLYPD3) =  -132.509528342     A.U. after   12 cycles
 E2(B2PLYPD3) =    -0.1796472564D+00 E(B2PLYPD3) =    -0.13268917559877D+03

 The electronic state is 1-A.
 Alpha  occ. eigenvalues --  -14.84106 -10.66212 -10.65059  -1.04132  -0.90964
 Alpha  occ. eigenvalues --   -0.60339  -0.57827  -0.53342  -0.44692  -0.39550
 Alpha  occ. eigenvalues --   -0.39035
 Alpha virt. eigenvalues --    0.03800   0.08414   0.09562   0.10226   0.10914
 Alpha virt. eigenvalues --    0.11502   0.15363   0.15703   0.16951   0.20020
 Alpha virt. eigenvalues --    0.20171   0.24869   0.32603   0.33933   0.36916

 Mulliken charges:
               1
     1  C   -0.078204
     2  C   -0.001171
     3  N   -0.207128
     4  H    0.085839
     5  H    0.097248
     6  H    0.103416
 Sum of Mulliken charges =   0.00000

 Dipole moment (field-independent basis, Debye):
    X=              4.1441    Y=             -0.0236    Z=              0.0394  Tot=              4.1444
 Quadrupole moment (field-independent basis, Debye-Ang):
   XX=            -20.8437   YY=            -17.6890   ZZ=            -17.6270
   XY=              0.0979   XZ=             -0.1150   YZ=              0.0517

 Normal termination of Gaussian 09 at Wed Aug 26 23:03:02 2020.
