 Gaussian 09, Revision D.01,
 Gaussian 09:  ES64L-G09RevD.01 24-Apr-2013

 --------------------
 #p B2PLYPD3/Def2QZVP
 --------------------

 ------------
 cyanomethane
 ------------
 Symbolic Z-matrix:
 Charge =  0 Multiplicity = 1

                         Standard orientation:
 ---------------------------------------------------------------------
 Center     Atomic      Atomic             Coordinates (Angstroms)
 Number     Number       Type             X           Y           Z
 ---------------------------------------------------------------------
      1          6           0        1.201729    0.024453    0.005859
      2          6           0       -0.299571   -0.079203   -0.002234
      3          7           0       -1.430385    0.035981    0.005721
      4          1           0        1.608168   -0.120432    0.991715
      5          1           0        1.462912    1.003250   -0.405241
      6          1           0        1.528668   -0.806192   -0.648269
 ---------------------------------------------------------------------

 SCF Done:  E(RB2PLYPD3) =  -132.532292647     A.U. after   12 cycles
 E2(B2PLYPD3) =    -0.1791717651D+00 E(B2PLYPD3) =    -0.13271146441227D+03

 The electronic state is 1-A.
 Alpha  occ. eigenvalues --  -14.83648 -10.67651 -10.65750  -1.04706  -0.88320
 Alpha  occ. eigenvalues --   -0.58273  -0.54217  -0.53389  -0.44573  -0.39696
 Alpha  occ. eigenvalues --   -0.39506
 Alpha virt. eigenvalues --    0.03588   0.08305   0.08634   0.10190   0.11370
 Alpha virt. eigenvalues --    0.11415   0.15061   0.15517   0.16895   0.19898
 Alpha virt. eigenvalues --    0.20012   0.25003   0.32525   0.34144   0.34903

 Mulliken charges:
               1
     1  C   -0.101492
     2  C   -0.006941
     3  N   -0.196193
     4  H    0.100575
     5  H    0.106811
     6  H    0.097240
 Sum of Mulliken charges =   0.00000

 Dipole moment (field-independent basis, Debye):
    X=              4.0838    Y=             -0.0586    Z=             -0.0044  Tot=              4.0842
 Quadrupole moment (field-independent basis, Debye-Ang):
   XX=            -21.1852   YY=            -17.5962   ZZ=            -17.7478
   XY=              0.1319   XZ=              0.1368   YZ=             -0.0351

 Normal termination of Gaussian 09 at Wed Aug 26 23:54:08 2020.
