 Gaussian 09, Revision D.01,
 Gaussian 09:  ES64L-G09RevD.01 24-Apr-2013

 --------------------
 #p B2PLYPD3/Def2QZVP
 --------------------

 ------------
 cyanomethane
 ------------
 Symbolic Z-matrix:
 Charge =  0 Multiplicity = 1

                         Standard orientation:
 ---------------------------------------------------------------------
 Center     Atomic      Atomic             Coordinates (Angstroms)
 Number     Number       Type             X           Y           Z
 ---------------------------------------------------------------------
      1          6           0       -1.203568    0.002882   -0.019759
      2          6           0        0.272704   -0.030580    0.044301
      3          7           0        1.447951    0.001368   -0.020052
      4          1           0       -1.520429    0.121922    0.948794
      5          1           0       -1.682658   -0.862287   -0.426431
      6          1           0       -1.347385    0.896978   -0.529247
 ---------------------------------------------------------------------

 SCF Done:  E(RB2PLYPD3) =  -132.523760553     A.U. after   13 cycles
 E2(B2PLYPD3) =    -0.1821673781D+00 E(B2PLYPD3) =    -0.13270592793132D+03

 The electronic state is 1-A.
 Alpha  occ. eigenvalues --  -14.84725 -10.66930 -10.66116  -1.03148  -0.90276
 Alpha  occ. eigenvalues --   -0.59723  -0.55591  -0.54627  -0.44695  -0.38682
 Alpha  occ. eigenvalues --   -0.38486
 Alpha virt. eigenvalues --    0.03820   0.07724   0.08561   0.10250   0.10981
 Alpha virt. eigenvalues --    0.11186   0.14733   0.15463   0.16998   0.20194
 Alpha virt. eigenvalues --    0.20244   0.25082   0.32329   0.34863   0.35637

 Mulliken charges:
               1
     1  C   -0.083926
     2  C    0.001439
     3  N   -0.219284
     4  H    0.095397
     5  H    0.099933
     6  H    0.106442
 Sum of Mulliken charges =   0.00000

 Dipole moment (field-independent basis, Debye):
    X=             -4.1834    Y=              0.0254    Z=              0.0611  Tot=              4.1839
 Quadrupole moment (field-independent basis, Debye-Ang):
   XX=            -21.0062   YY=            -17.6180   ZZ=            -17.9182
   XY=              0.1987   XZ=             -0.0193   YZ=             -0.0133

 Normal termination of Gaussian 09 at Wed Aug 26 22:20:27 2020.
