 Gaussian 09, Revision D.01,
 Gaussian 09:  ES64L-G09RevD.01 24-Apr-2013

 --------------------
 #p B2PLYPD3/Def2QZVP
 --------------------

 ------------
 cyanomethane
 ------------
 Symbolic Z-matrix:
 Charge =  0 Multiplicity = 1

                         Standard orientation:
 ---------------------------------------------------------------------
 Center     Atomic      Atomic             Coordinates (Angstroms)
 Number     Number       Type             X           Y           Z
 ---------------------------------------------------------------------
      1          6           0        1.171317   -0.009767    0.007367
      2          6           0       -0.277534    0.018589    0.003819
      3          7           0       -1.435146   -0.007793   -0.002658
      4          1           0        1.558916   -0.371296    0.943165
      5          1           0        1.572740    1.018758   -0.174460
      6          1           0        1.551661   -0.645834   -0.817218
 ---------------------------------------------------------------------

 SCF Done:  E(RB2PLYPD3) =  -132.534234263     A.U. after   11 cycles
 E2(B2PLYPD3) =    -0.1809368269D+00 E(B2PLYPD3) =    -0.13271517108973D+03

 The electronic state is 1-A.
 Alpha  occ. eigenvalues --  -14.84329 -10.67389 -10.66377  -1.04028  -0.89090
 Alpha  occ. eigenvalues --   -0.59981  -0.54122  -0.53039  -0.44859  -0.39029
 Alpha  occ. eigenvalues --   -0.38842
 Alpha virt. eigenvalues --    0.03692   0.07476   0.07759   0.10140   0.11410
 Alpha virt. eigenvalues --    0.11600   0.15454   0.16191   0.16626   0.20082
 Alpha virt. eigenvalues --    0.20123   0.25521   0.32639   0.34060   0.34856

 Mulliken charges:
               1
     1  C   -0.083714
     2  C    0.000856
     3  N   -0.207162
     4  H    0.099889
     5  H    0.093639
     6  H    0.096493
 Sum of Mulliken charges =   0.00000

 Dipole moment (field-independent basis, Debye):
    X=              4.1275    Y=              0.0097    Z=              0.0008  Tot=              4.1275
 Quadrupole moment (field-independent basis, Debye-Ang):
   XX=            -20.9719   YY=            -17.8245   ZZ=            -17.7553
   XY=             -0.0276   XZ=             -0.0224   YZ=             -0.0196

 Normal termination of Gaussian 09 at Thu Aug 27 00:10:43 2020.
