 Gaussian 09, Revision D.01,
 Gaussian 09:  ES64L-G09RevD.01 24-Apr-2013

 --------------------
 #p B2PLYPD3/Def2QZVP
 --------------------

 ------------
 cyanomethane
 ------------
 Symbolic Z-matrix:
 Charge =  0 Multiplicity = 1

                         Standard orientation:
 ---------------------------------------------------------------------
 Center     Atomic      Atomic             Coordinates (Angstroms)
 Number     Number       Type             X           Y           Z
 ---------------------------------------------------------------------
      1          6           0       -1.179230    0.010982    0.012206
      2          6           0        0.283787    0.021453   -0.012417
      3          7           0        1.422492   -0.009825    0.004597
      4          1           0       -1.514011   -0.196350    0.985896
      5          1           0       -1.508234   -0.885614   -0.633579
      6          1           0       -1.562540    0.956128   -0.383228
 ---------------------------------------------------------------------

 SCF Done:  E(RB2PLYPD3) =  -132.532285761     A.U. after   11 cycles
 E2(B2PLYPD3) =    -0.1793069409D+00 E(B2PLYPD3) =    -0.13271159270221D+03

 The electronic state is 1-A.
 Alpha  occ. eigenvalues --  -14.83650 -10.67428 -10.65703  -1.04654  -0.88997
 Alpha  occ. eigenvalues --   -0.59072  -0.54945  -0.52772  -0.44621  -0.39544
 Alpha  occ. eigenvalues --   -0.39158
 Alpha virt. eigenvalues --    0.03670   0.07897   0.08466   0.10198   0.11421
 Alpha virt. eigenvalues --    0.11884   0.15328   0.15977   0.16486   0.19955
 Alpha virt. eigenvalues --    0.20105   0.25240   0.32416   0.33628   0.35285

 Mulliken charges:
               1
     1  C   -0.098646
     2  C   -0.004824
     3  N   -0.198699
     4  H    0.102973
     5  H    0.095079
     6  H    0.104116
 Sum of Mulliken charges =   0.00000

 Dipole moment (field-independent basis, Debye):
    X=             -4.0852    Y=             -0.0012    Z=              0.0174  Tot=              4.0852
 Quadrupole moment (field-independent basis, Debye-Ang):
   XX=            -21.2030   YY=            -17.5409   ZZ=            -17.7772
   XY=              0.0551   XZ=             -0.0704   YZ=             -0.0799

 Normal termination of Gaussian 09 at Wed Aug 26 13:12:39 2020.
