 Gaussian 09, Revision D.01,
 Gaussian 09:  ES64L-G09RevD.01 24-Apr-2013

 --------------------
 #p B2PLYPD3/Def2QZVP
 --------------------

 ------------
 cyanomethane
 ------------
 Symbolic Z-matrix:
 Charge =  0 Multiplicity = 1

                         Standard orientation:
 ---------------------------------------------------------------------
 Center     Atomic      Atomic             Coordinates (Angstroms)
 Number     Number       Type             X           Y           Z
 ---------------------------------------------------------------------
      1          6           0       -1.145142    0.012818    0.013147
      2          6           0        0.278092   -0.025978   -0.051334
      3          7           0        1.430737    0.019391    0.029765
      4          1           0       -1.655623   -0.099836    1.023537
      5          1           0       -1.491407   -0.896422   -0.561695
      6          1           0       -1.665830    0.939480   -0.441076
 ---------------------------------------------------------------------

 SCF Done:  E(RB2PLYPD3) =  -132.523603102     A.U. after   12 cycles
 E2(B2PLYPD3) =    -0.1818144758D+00 E(B2PLYPD3) =    -0.13270541757778D+03

 The electronic state is 1-A.
 Alpha  occ. eigenvalues --  -14.84511 -10.68240 -10.66485  -1.04326  -0.88623
 Alpha  occ. eigenvalues --   -0.60853  -0.52760  -0.51721  -0.45120  -0.38896
 Alpha  occ. eigenvalues --   -0.38683
 Alpha virt. eigenvalues --    0.03371   0.06233   0.07239   0.09874   0.11688
 Alpha virt. eigenvalues --    0.11943   0.15475   0.15981   0.17902   0.19965
 Alpha virt. eigenvalues --    0.20468   0.26206   0.32654   0.33395   0.34143

 Mulliken charges:
               1
     1  C   -0.084292
     2  C    0.010194
     3  N   -0.203893
     4  H    0.093495
     5  H    0.090848
     6  H    0.093648
 Sum of Mulliken charges =   0.00000

 Dipole moment (field-independent basis, Debye):
    X=             -4.1003    Y=             -0.0563    Z=             -0.0345  Tot=              4.1008
 Quadrupole moment (field-independent basis, Debye-Ang):
   XX=            -20.7276   YY=            -17.8335   ZZ=            -18.0294
   XY=             -0.1647   XZ=             -0.2605   YZ=             -0.0033

 Normal termination of Gaussian 09 at Wed Aug 26 20:49:24 2020.
