 Gaussian 09, Revision D.01,
 Gaussian 09:  ES64L-G09RevD.01 24-Apr-2013

 --------------------
 #p B2PLYPD3/Def2QZVP
 --------------------

 ------------
 cyanomethane
 ------------
 Symbolic Z-matrix:
 Charge =  0 Multiplicity = 1

                         Standard orientation:
 ---------------------------------------------------------------------
 Center     Atomic      Atomic             Coordinates (Angstroms)
 Number     Number       Type             X           Y           Z
 ---------------------------------------------------------------------
      1          6           0        1.150997   -0.008917   -0.030651
      2          6           0       -0.275109    0.009935   -0.011013
      3          7           0       -1.427428   -0.006376    0.018899
      4          1           0        1.722064   -0.195245    0.955961
      5          1           0        1.506199    0.961667   -0.250755
      6          1           0        1.508404   -0.727899   -0.587513
 ---------------------------------------------------------------------

 SCF Done:  E(RB2PLYPD3) =  -132.517623875     A.U. after   12 cycles
 E2(B2PLYPD3) =    -0.1803945157D+00 E(B2PLYPD3) =    -0.13269801839028D+03

 The electronic state is 1-A.
 Alpha  occ. eigenvalues --  -14.84284 -10.66247 -10.65873  -1.04396  -0.90509
 Alpha  occ. eigenvalues --   -0.61896  -0.56945  -0.51215  -0.44996  -0.39442
 Alpha  occ. eigenvalues --   -0.38636
 Alpha virt. eigenvalues --    0.03623   0.06974   0.08703   0.10130   0.11175
 Alpha virt. eigenvalues --    0.12100   0.15641   0.16653   0.17300   0.19938
 Alpha virt. eigenvalues --    0.20312   0.25931   0.32416   0.34160   0.36208

 Mulliken charges:
               1
     1  C   -0.060782
     2  C    0.006182
     3  N   -0.205630
     4  H    0.070907
     5  H    0.091430
     6  H    0.097892
 Sum of Mulliken charges =   0.00000

 Dipole moment (field-independent basis, Debye):
    X=              4.1428    Y=              0.0155    Z=             -0.0253  Tot=              4.1429
 Quadrupole moment (field-independent basis, Debye-Ang):
   XX=            -20.5258   YY=            -17.5766   ZZ=            -18.0792
   XY=             -0.0600   XZ=              0.2833   YZ=              0.1208

 Normal termination of Gaussian 09 at Wed Aug 26 21:07:48 2020.
