 Gaussian 09, Revision D.01,
 Gaussian 09:  ES64L-G09RevD.01 24-Apr-2013

 --------------------
 #p B2PLYPD3/Def2QZVP
 --------------------

 ------------
 cyanomethane
 ------------
 Symbolic Z-matrix:
 Charge =  0 Multiplicity = 1

                         Standard orientation:
 ---------------------------------------------------------------------
 Center     Atomic      Atomic             Coordinates (Angstroms)
 Number     Number       Type             X           Y           Z
 ---------------------------------------------------------------------
      1          6           0        1.191455    0.014221    0.027330
      2          6           0       -0.262185    0.006056   -0.055722
      3          7           0       -1.435773   -0.009778    0.020065
      4          1           0        1.426594    1.044102   -0.043913
      5          1           0        1.599057   -0.598597   -0.838388
      6          1           0        1.449135   -0.498726    0.912203
 ---------------------------------------------------------------------

 SCF Done:  E(RB2PLYPD3) =  -132.526387398     A.U. after   12 cycles
 E2(B2PLYPD3) =    -0.1824356863D+00 E(B2PLYPD3) =    -0.13270882308392D+03

 The electronic state is 1-A.
 Alpha  occ. eigenvalues --  -14.84565 -10.67096 -10.66638  -1.03180  -0.89780
 Alpha  occ. eigenvalues --   -0.58769  -0.56351  -0.53267  -0.44615  -0.38536
 Alpha  occ. eigenvalues --   -0.38241
 Alpha virt. eigenvalues --    0.03701   0.07276   0.08262   0.10094   0.10929
 Alpha virt. eigenvalues --    0.11394   0.14976   0.15707   0.15849   0.20167
 Alpha virt. eigenvalues --    0.20233   0.25471   0.32024   0.34043   0.35273

 Mulliken charges:
               1
     1  C   -0.099376
     2  C    0.000175
     3  N   -0.219246
     4  H    0.113063
     5  H    0.095444
     6  H    0.109940
 Sum of Mulliken charges =   0.00000

 Dipole moment (field-independent basis, Debye):
    X=              4.1208    Y=             -0.0062    Z=             -0.0141  Tot=              4.1208
 Quadrupole moment (field-independent basis, Debye-Ang):
   XX=            -21.4292   YY=            -17.5385   ZZ=            -17.8568
   XY=             -0.1976   XZ=              0.0072   YZ=             -0.0819

 Normal termination of Gaussian 09 at Wed Aug 26 21:00:23 2020.
