 Gaussian 09, Revision D.01,
 Gaussian 09:  ES64L-G09RevD.01 24-Apr-2013

 --------------------
 #p B2PLYPD3/Def2QZVP
 --------------------

 ------------
 cyanomethane
 ------------
 Symbolic Z-matrix:
 Charge =  0 Multiplicity = 1

                         Standard orientation:
 ---------------------------------------------------------------------
 Center     Atomic      Atomic             Coordinates (Angstroms)
 Number     Number       Type             X           Y           Z
 ---------------------------------------------------------------------
      1          6           0       -1.176016    0.008891   -0.000768
      2          6           0        0.269158   -0.029531   -0.012050
      3          7           0        1.427721    0.015801    0.003680
      4          1           0       -1.477398   -0.203357    0.974916
      5          1           0       -1.529160   -0.757225   -0.632762
      6          1           0       -1.546345    0.973812   -0.291010
 ---------------------------------------------------------------------

 SCF Done:  E(RB2PLYPD3) =  -132.532740288     A.U. after   12 cycles
 E2(B2PLYPD3) =    -0.1805027615D+00 E(B2PLYPD3) =    -0.13271324304906D+03

 The electronic state is 1-A.
 Alpha  occ. eigenvalues --  -14.84205 -10.66218 -10.66019  -1.03902  -0.90299
 Alpha  occ. eigenvalues --   -0.59854  -0.55121  -0.54882  -0.44719  -0.38947
 Alpha  occ. eigenvalues --   -0.38852
 Alpha virt. eigenvalues --    0.03888   0.08016   0.08501   0.10147   0.11295
 Alpha virt. eigenvalues --    0.11441   0.15534   0.15696   0.16619   0.20107
 Alpha virt. eigenvalues --    0.20187   0.25603   0.33039   0.34952   0.35164

 Mulliken charges:
               1
     1  C   -0.078210
     2  C   -0.001947
     3  N   -0.210824
     4  H    0.096462
     5  H    0.096118
     6  H    0.098400
 Sum of Mulliken charges =   0.00000

 Dipole moment (field-independent basis, Debye):
    X=             -4.1320    Y=             -0.0354    Z=              0.0165  Tot=              4.1322
 Quadrupole moment (field-independent basis, Debye-Ang):
   XX=            -21.0375   YY=            -17.5933   ZZ=            -17.7595
   XY=             -0.0725   XZ=             -0.0242   YZ=             -0.0007

 Normal termination of Gaussian 09 at Wed Aug 26 12:42:00 2020.
