 Gaussian 09, Revision D.01,
 Gaussian 09:  ES64L-G09RevD.01 24-Apr-2013

 --------------------
 #p B2PLYPD3/Def2QZVP
 --------------------

 ------------
 cyanomethane
 ------------
 Symbolic Z-matrix:
 Charge =  0 Multiplicity = 1

                         Standard orientation:
 ---------------------------------------------------------------------
 Center     Atomic      Atomic             Coordinates (Angstroms)
 Number     Number       Type             X           Y           Z
 ---------------------------------------------------------------------
      1          6           0       -1.171673    0.000256   -0.002929
      2          6           0        0.274181    0.016502   -0.001196
      3          7           0        1.432428   -0.010659   -0.000879
      4          1           0       -1.529374    0.986589   -0.294979
      5          1           0       -1.529164   -0.238218    1.013665
      6          1           0       -1.583510   -0.774304   -0.687784
 ---------------------------------------------------------------------

 SCF Done:  E(RB2PLYPD3) =  -132.534331701     A.U. after   12 cycles
 E2(B2PLYPD3) =    -0.1809818025D+00 E(B2PLYPD3) =    -0.13271531350298D+03

 The electronic state is 1-A.
 Alpha  occ. eigenvalues --  -14.84280 -10.67398 -10.66314  -1.03974  -0.89185
 Alpha  occ. eigenvalues --   -0.59696  -0.54186  -0.53317  -0.44803  -0.38918
 Alpha  occ. eigenvalues --   -0.38818
 Alpha virt. eigenvalues --    0.03687   0.07430   0.07877   0.10137   0.11411
 Alpha virt. eigenvalues --    0.11593   0.15440   0.16008   0.16547   0.20084
 Alpha virt. eigenvalues --    0.20153   0.25549   0.32713   0.34197   0.34580

 Mulliken charges:
               1
     1  C   -0.088698
     2  C    0.000045
     3  N   -0.208053
     4  H    0.100547
     5  H    0.098099
     6  H    0.098059
 Sum of Mulliken charges =   0.00000

 Dipole moment (field-independent basis, Debye):
    X=             -4.1224    Y=              0.0132    Z=              0.0108  Tot=              4.1225
 Quadrupole moment (field-independent basis, Debye-Ang):
   XX=            -21.0696   YY=            -17.7122   ZZ=            -17.8059
   XY=              0.0992   XZ=              0.0130   YZ=             -0.0162

 Normal termination of Gaussian 09 at Thu Aug 27 00:13:09 2020.
