 Gaussian 09, Revision D.01,
 Gaussian 09:  ES64L-G09RevD.01 24-Apr-2013

 --------------------
 #p B2PLYPD3/Def2QZVP
 --------------------

 ------------
 cyanomethane
 ------------
 Symbolic Z-matrix:
 Charge =  0 Multiplicity = 1

                         Standard orientation:
 ---------------------------------------------------------------------
 Center     Atomic      Atomic             Coordinates (Angstroms)
 Number     Number       Type             X           Y           Z
 ---------------------------------------------------------------------
      1          6           0       -1.183554   -0.005343   -0.019709
      2          6           0        0.290718    0.033225   -0.021413
      3          7           0        1.446448   -0.024989    0.011245
      4          1           0       -1.490411    1.109348   -0.017504
      5          1           0       -1.604235   -0.479235    0.980875
      6          1           0       -1.673474   -0.622478   -0.795356
 ---------------------------------------------------------------------

 SCF Done:  E(RB2PLYPD3) =  -132.522479428     A.U. after   12 cycles
 E2(B2PLYPD3) =    -0.1818657412D+00 E(B2PLYPD3) =    -0.13270434516886D+03

 The electronic state is 1-A.
 Alpha  occ. eigenvalues --  -14.84461 -10.69075 -10.66647  -1.04056  -0.87636
 Alpha  occ. eigenvalues --   -0.59597  -0.53248  -0.50983  -0.44911  -0.39129
 Alpha  occ. eigenvalues --   -0.38718
 Alpha virt. eigenvalues --    0.03265   0.06654   0.07462   0.10056   0.11279
 Alpha virt. eigenvalues --    0.11800   0.15031   0.15930   0.17236   0.19943
 Alpha virt. eigenvalues --    0.20232   0.25116   0.31847   0.32561   0.34297

 Mulliken charges:
               1
     1  C   -0.101482
     2  C    0.006811
     3  N   -0.204768
     4  H    0.101429
     5  H    0.092438
     6  H    0.105572
 Sum of Mulliken charges =   0.00000

 Dipole moment (field-independent basis, Debye):
    X=             -4.1129    Y=              0.0114    Z=             -0.0031  Tot=              4.1129
 Quadrupole moment (field-independent basis, Debye-Ang):
   XX=            -21.0506   YY=            -17.6859   ZZ=            -18.1052
   XY=              0.3495   XZ=             -0.0737   YZ=              0.0913

 Normal termination of Gaussian 09 at Wed Aug 26 22:58:39 2020.
