 Gaussian 09, Revision D.01,
 Gaussian 09:  ES64L-G09RevD.01 24-Apr-2013

 --------------------
 #p B2PLYPD3/Def2QZVP
 --------------------

 ------------
 cyanomethane
 ------------
 Symbolic Z-matrix:
 Charge =  0 Multiplicity = 1

                         Standard orientation:
 ---------------------------------------------------------------------
 Center     Atomic      Atomic             Coordinates (Angstroms)
 Number     Number       Type             X           Y           Z
 ---------------------------------------------------------------------
      1          6           0        1.180954    0.002012   -0.005620
      2          6           0       -0.276322   -0.021710   -0.031498
      3          7           0       -1.441782    0.019535    0.020066
      4          1           0        1.463923   -0.502645   -0.844054
      5          1           0        1.532026   -0.548105    0.877782
      6          1           0        1.668735    1.032191    0.048516
 ---------------------------------------------------------------------

 SCF Done:  E(RB2PLYPD3) =  -132.526725452     A.U. after   12 cycles
 E2(B2PLYPD3) =    -0.1817195599D+00 E(B2PLYPD3) =    -0.13270844501210D+03

 The electronic state is 1-A.
 Alpha  occ. eigenvalues --  -14.84603 -10.67025 -10.66676  -1.03654  -0.89525
 Alpha  occ. eigenvalues --   -0.59802  -0.55268  -0.52701  -0.44871  -0.38866
 Alpha  occ. eigenvalues --   -0.38671
 Alpha virt. eigenvalues --    0.03556   0.06924   0.08525   0.10085   0.11105
 Alpha virt. eigenvalues --    0.11530   0.15367   0.15579   0.17161   0.20077
 Alpha virt. eigenvalues --    0.20274   0.25428   0.32432   0.34084   0.35032

 Mulliken charges:
               1
     1  C   -0.084194
     2  C    0.001865
     3  N   -0.211820
     4  H    0.103347
     5  H    0.095075
     6  H    0.095727
 Sum of Mulliken charges =   0.00000

 Dipole moment (field-independent basis, Debye):
    X=              4.1432    Y=             -0.0594    Z=             -0.0245  Tot=              4.1437
 Quadrupole moment (field-independent basis, Debye-Ang):
   XX=            -20.9441   YY=            -17.7738   ZZ=            -17.8394
   XY=              0.1708   XZ=              0.1687   YZ=              0.0582

 Normal termination of Gaussian 09 at Wed Aug 26 15:24:38 2020.
