 Gaussian 09, Revision D.01,
 Gaussian 09:  ES64L-G09RevD.01 24-Apr-2013

 --------------------
 #p B2PLYPD3/Def2QZVP
 --------------------

 ------------
 cyanomethane
 ------------
 Symbolic Z-matrix:
 Charge =  0 Multiplicity = 1

                         Standard orientation:
 ---------------------------------------------------------------------
 Center     Atomic      Atomic             Coordinates (Angstroms)
 Number     Number       Type             X           Y           Z
 ---------------------------------------------------------------------
      1          6           0        1.179745   -0.010965   -0.011184
      2          6           0       -0.288670   -0.019298    0.008608
      3          7           0       -1.434794    0.011627   -0.006223
      4          1           0        1.575597    1.026081   -0.142261
      5          1           0        1.596724   -0.610638   -0.711599
      6          1           0        1.524789   -0.315256    0.912880
 ---------------------------------------------------------------------

 SCF Done:  E(RB2PLYPD3) =  -132.529103602     A.U. after   12 cycles
 E2(B2PLYPD3) =    -0.1794473477D+00 E(B2PLYPD3) =    -0.13270855094938D+03

 The electronic state is 1-A.
 Alpha  occ. eigenvalues --  -14.84065 -10.66165 -10.66048  -1.04474  -0.89872
 Alpha  occ. eigenvalues --   -0.60636  -0.55233  -0.53284  -0.44840  -0.39573
 Alpha  occ. eigenvalues --   -0.39286
 Alpha virt. eigenvalues --    0.03818   0.08072   0.08815   0.10220   0.11293
 Alpha virt. eigenvalues --    0.11592   0.15476   0.16167   0.17202   0.20026
 Alpha virt. eigenvalues --    0.20092   0.25171   0.32823   0.34408   0.35875

 Mulliken charges:
               1
     1  C   -0.064962
     2  C    0.000064
     3  N   -0.202354
     4  H    0.086403
     5  H    0.092191
     6  H    0.088658
 Sum of Mulliken charges =   0.00000

 Dipole moment (field-independent basis, Debye):
    X=              4.1397    Y=             -0.0352    Z=              0.0381  Tot=              4.1400
 Quadrupole moment (field-independent basis, Debye-Ang):
   XX=            -20.7032   YY=            -17.6971   ZZ=            -17.8033
   XY=              0.0352   XZ=             -0.0152   YZ=              0.0482

 Normal termination of Gaussian 09 at Wed Aug 26 16:18:23 2020.
