 Gaussian 09, Revision D.01,
 Gaussian 09:  ES64L-G09RevD.01 24-Apr-2013

 --------------------
 #p B2PLYPD3/Def2QZVP
 --------------------

 ------------
 cyanomethane
 ------------
 Symbolic Z-matrix:
 Charge =  0 Multiplicity = 1

                         Standard orientation:
 ---------------------------------------------------------------------
 Center     Atomic      Atomic             Coordinates (Angstroms)
 Number     Number       Type             X           Y           Z
 ---------------------------------------------------------------------
      1          6           0        1.174632   -0.020845   -0.012812
      2          6           0       -0.279476   -0.000587   -0.019917
      3          7           0       -1.421710    0.000387    0.013795
      4          1           0        1.561212   -0.265866    1.009412
      5          1           0        1.494142    1.040942   -0.191611
      6          1           0        1.525685   -0.649195   -0.717989
 ---------------------------------------------------------------------

 SCF Done:  E(RB2PLYPD3) =  -132.529765604     A.U. after   12 cycles
 E2(B2PLYPD3) =    -0.1794317640D+00 E(B2PLYPD3) =    -0.13270919736829D+03

 The electronic state is 1-A.
 Alpha  occ. eigenvalues --  -14.83754 -10.66867 -10.65782  -1.04549  -0.89550
 Alpha  occ. eigenvalues --   -0.59660  -0.55724  -0.52648  -0.44664  -0.39523
 Alpha  occ. eigenvalues --   -0.39002
 Alpha virt. eigenvalues --    0.03725   0.07718   0.08802   0.10184   0.11296
 Alpha virt. eigenvalues --    0.11916   0.15448   0.15849   0.16729   0.19976
 Alpha virt. eigenvalues --    0.20141   0.25392   0.32798   0.33491   0.35492

 Mulliken charges:
               1
     1  C   -0.090565
     2  C   -0.003737
     3  N   -0.201210
     4  H    0.095488
     5  H    0.094315
     6  H    0.105708
 Sum of Mulliken charges =   0.00000

 Dipole moment (field-independent basis, Debye):
    X=              4.0963    Y=              0.0153    Z=             -0.0141  Tot=              4.0963
 Quadrupole moment (field-independent basis, Debye-Ang):
   XX=            -21.1076   YY=            -17.6762   ZZ=            -17.6507
   XY=              0.0026   XZ=              0.1296   YZ=              0.1100

 Normal termination of Gaussian 09 at Wed Aug 26 14:50:43 2020.
