 Gaussian 09, Revision D.01,
 Gaussian 09:  ES64L-G09RevD.01 24-Apr-2013

 --------------------
 #p B2PLYPD3/Def2QZVP
 --------------------

 ------------
 cyanomethane
 ------------
 Symbolic Z-matrix:
 Charge =  0 Multiplicity = 1

                         Standard orientation:
 ---------------------------------------------------------------------
 Center     Atomic      Atomic             Coordinates (Angstroms)
 Number     Number       Type             X           Y           Z
 ---------------------------------------------------------------------
      1          6           0       -1.183044    0.000049    0.004636
      2          6           0        0.275778   -0.022004   -0.006474
      3          7           0        1.437076    0.009212   -0.000491
      4          1           0       -1.500119   -0.207848    0.987999
      5          1           0       -1.593375   -0.720494   -0.683982
      6          1           0       -1.522441    0.995587   -0.289553
 ---------------------------------------------------------------------

 SCF Done:  E(RB2PLYPD3) =  -132.534314963     A.U. after   12 cycles
 E2(B2PLYPD3) =    -0.1808909697D+00 E(B2PLYPD3) =    -0.13271520593312D+03

 The electronic state is 1-A.
 Alpha  occ. eigenvalues --  -14.84349 -10.66732 -10.66422  -1.03804  -0.89602
 Alpha  occ. eigenvalues --   -0.59700  -0.54849  -0.53931  -0.44765  -0.38955
 Alpha  occ. eigenvalues --   -0.38853
 Alpha virt. eigenvalues --    0.03807   0.07822   0.08208   0.10193   0.11249
 Alpha virt. eigenvalues --    0.11402   0.15371   0.16072   0.16369   0.20109
 Alpha virt. eigenvalues --    0.20150   0.25315   0.32699   0.34536   0.35124

 Mulliken charges:
               1
     1  C   -0.081600
     2  C   -0.001343
     3  N   -0.210384
     4  H    0.099994
     5  H    0.096362
     6  H    0.096972
 Sum of Mulliken charges =   0.00000

 Dipole moment (field-independent basis, Debye):
    X=             -4.1423    Y=             -0.0082    Z=              0.0072  Tot=              4.1423
 Quadrupole moment (field-independent basis, Debye-Ang):
   XX=            -21.0224   YY=            -17.7545   ZZ=            -17.7280
   XY=             -0.0199   XZ=              0.0492   YZ=             -0.0050

 Normal termination of Gaussian 09 at Thu Aug 27 00:05:41 2020.
