 Gaussian 09, Revision D.01,
 Gaussian 09:  ES64L-G09RevD.01 24-Apr-2013

 --------------------
 #p B2PLYPD3/Def2QZVP
 --------------------

 ------------
 cyanomethane
 ------------
 Symbolic Z-matrix:
 Charge =  0 Multiplicity = 1

                         Standard orientation:
 ---------------------------------------------------------------------
 Center     Atomic      Atomic             Coordinates (Angstroms)
 Number     Number       Type             X           Y           Z
 ---------------------------------------------------------------------
      1          6           0       -1.174796    0.001518   -0.001164
      2          6           0        0.279740    0.016381    0.003094
      3          7           0        1.426617   -0.004483   -0.002448
      4          1           0       -1.511901   -0.290680    0.977561
      5          1           0       -1.507597   -0.774006   -0.706189
      6          1           0       -1.596483    0.988670   -0.265819
 ---------------------------------------------------------------------

 SCF Done:  E(RB2PLYPD3) =  -132.535493223     A.U. after   12 cycles
 E2(B2PLYPD3) =    -0.1798648048D+00 E(B2PLYPD3) =    -0.13271535802831D+03

 The electronic state is 1-A.
 Alpha  occ. eigenvalues --  -14.83914 -10.67198 -10.65957  -1.04386  -0.89207
 Alpha  occ. eigenvalues --   -0.59412  -0.54100  -0.53787  -0.44708  -0.39245
 Alpha  occ. eigenvalues --   -0.39117
 Alpha virt. eigenvalues --    0.03749   0.07891   0.08188   0.10197   0.11489
 Alpha virt. eigenvalues --    0.11670   0.15409   0.15988   0.16601   0.20030
 Alpha virt. eigenvalues --    0.20107   0.25396   0.32762   0.34341   0.34793

 Mulliken charges:
               1
     1  C   -0.090414
     2  C   -0.003113
     3  N   -0.202808
     4  H    0.098411
     5  H    0.098613
     6  H    0.099311
 Sum of Mulliken charges =   0.00000

 Dipole moment (field-independent basis, Debye):
    X=             -4.1085    Y=             -0.0148    Z=              0.0196  Tot=              4.1086
 Quadrupole moment (field-independent basis, Debye-Ang):
   XX=            -21.0857   YY=            -17.6145   ZZ=            -17.7908
   XY=              0.0024   XZ=             -0.0081   YZ=             -0.0106

 Normal termination of Gaussian 09 at Wed Aug 26 10:06:50 2020.
