 Gaussian 09, Revision D.01,
 Gaussian 09:  ES64L-G09RevD.01 24-Apr-2013

 --------------------
 #p B2PLYPD3/Def2QZVP
 --------------------

 ------------
 cyanomethane
 ------------
 Symbolic Z-matrix:
 Charge =  0 Multiplicity = 1

                         Standard orientation:
 ---------------------------------------------------------------------
 Center     Atomic      Atomic             Coordinates (Angstroms)
 Number     Number       Type             X           Y           Z
 ---------------------------------------------------------------------
      1          6           0       -1.178127   -0.002019    0.011567
      2          6           0        0.274744   -0.012494   -0.012554
      3          7           0        1.431161    0.005531    0.003542
      4          1           0       -1.562136   -0.554970   -0.861498
      5          1           0       -1.518022    1.047393   -0.070310
      6          1           0       -1.517673   -0.444063    0.912936
 ---------------------------------------------------------------------

 SCF Done:  E(RB2PLYPD3) =  -132.534615563     A.U. after   11 cycles
 E2(B2PLYPD3) =    -0.1806260991D+00 E(B2PLYPD3) =    -0.13271524166200D+03

 The electronic state is 1-A.
 Alpha  occ. eigenvalues --  -14.84167 -10.67108 -10.66213  -1.03997  -0.89381
 Alpha  occ. eigenvalues --   -0.59436  -0.54780  -0.53540  -0.44723  -0.39030
 Alpha  occ. eigenvalues --   -0.38853
 Alpha virt. eigenvalues --    0.03753   0.07764   0.08110   0.10168   0.11347
 Alpha virt. eigenvalues --    0.11543   0.15382   0.16056   0.16277   0.20088
 Alpha virt. eigenvalues --    0.20135   0.25413   0.32699   0.34124   0.34994

 Mulliken charges:
               1
     1  C   -0.089667
     2  C   -0.001935
     3  N   -0.208003
     4  H    0.097283
     5  H    0.098996
     6  H    0.103326
 Sum of Mulliken charges =   0.00000

 Dipole moment (field-independent basis, Debye):
    X=             -4.1208    Y=             -0.0060    Z=             -0.0057  Tot=              4.1208
 Quadrupole moment (field-independent basis, Debye-Ang):
   XX=            -21.1303   YY=            -17.7278   ZZ=            -17.7024
   XY=             -0.0134   XZ=              0.0173   YZ=             -0.0383

 Normal termination of Gaussian 09 at Wed Aug 26 09:27:48 2020.
