 Gaussian 09, Revision D.01,
 Gaussian 09:  ES64L-G09RevD.01 24-Apr-2013

 --------------------
 #p B2PLYPD3/Def2QZVP
 --------------------

 ------------
 cyanomethane
 ------------
 Symbolic Z-matrix:
 Charge =  0 Multiplicity = 1

                         Standard orientation:
 ---------------------------------------------------------------------
 Center     Atomic      Atomic             Coordinates (Angstroms)
 Number     Number       Type             X           Y           Z
 ---------------------------------------------------------------------
      1          6           0       -1.196818    0.014768   -0.029982
      2          6           0        0.256763   -0.069701    0.030121
      3          7           0        1.455278    0.032381   -0.009976
      4          1           0       -1.555281    0.040500    0.956836
      5          1           0       -1.518466   -0.844291   -0.447616
      6          1           0       -1.472870    0.906720   -0.440219
 ---------------------------------------------------------------------

 SCF Done:  E(RB2PLYPD3) =  -132.515398762     A.U. after   13 cycles
 E2(B2PLYPD3) =    -0.1843733962D+00 E(B2PLYPD3) =    -0.13269977215801D+03

 The electronic state is 1-A.
 Alpha  occ. eigenvalues --  -14.85479 -10.67560 -10.65378  -1.02255  -0.90961
 Alpha  occ. eigenvalues --   -0.60307  -0.57577  -0.54143  -0.44861  -0.38153
 Alpha  occ. eigenvalues --   -0.37814
 Alpha virt. eigenvalues --    0.03756   0.07158   0.07917   0.10032   0.10666
 Alpha virt. eigenvalues --    0.11227   0.15041   0.15710   0.16545   0.20188
 Alpha virt. eigenvalues --    0.20415   0.25655   0.32465   0.34554   0.36061

 Mulliken charges:
               1
     1  C   -0.065226
     2  C    0.006173
     3  N   -0.228803
     4  H    0.085650
     5  H    0.100244
     6  H    0.101963
 Sum of Mulliken charges =   0.00000

 Dipole moment (field-independent basis, Debye):
    X=             -4.2005    Y=             -0.0219    Z=              0.0582  Tot=              4.2010
 Quadrupole moment (field-independent basis, Debye-Ang):
   XX=            -20.9698   YY=            -17.5661   ZZ=            -18.0414
   XY=             -0.1217   XZ=             -0.1268   YZ=              0.0274

 Normal termination of Gaussian 09 at Wed Aug 26 19:25:49 2020.
