 Gaussian 09, Revision D.01,
 Gaussian 09:  ES64L-G09RevD.01 24-Apr-2013

 --------------------
 #p B2PLYPD3/Def2QZVP
 --------------------

 ------------
 cyanomethane
 ------------
 Symbolic Z-matrix:
 Charge =  0 Multiplicity = 1

                         Standard orientation:
 ---------------------------------------------------------------------
 Center     Atomic      Atomic             Coordinates (Angstroms)
 Number     Number       Type             X           Y           Z
 ---------------------------------------------------------------------
      1          6           0       -1.182502    0.000441   -0.006530
      2          6           0        0.279728   -0.001148    0.008047
      3          7           0        1.434901    0.002259   -0.002070
      4          1           0       -1.551268   -0.423975    0.912977
      5          1           0       -1.512282   -0.584446   -0.816999
      6          1           0       -1.564113    0.996849   -0.090592
 ---------------------------------------------------------------------

 SCF Done:  E(RB2PLYPD3) =  -132.535026170     A.U. after   11 cycles
 E2(B2PLYPD3) =    -0.1802218937D+00 E(B2PLYPD3) =    -0.13271524806367D+03

 The electronic state is 1-A.
 Alpha  occ. eigenvalues --  -14.84185 -10.66489 -10.66252  -1.04063  -0.89681
 Alpha  occ. eigenvalues --   -0.59813  -0.54844  -0.54084  -0.44757  -0.39147
 Alpha  occ. eigenvalues --   -0.39066
 Alpha virt. eigenvalues --    0.03868   0.08097   0.08338   0.10208   0.11326
 Alpha virt. eigenvalues --    0.11414   0.15409   0.16183   0.16464   0.20089
 Alpha virt. eigenvalues --    0.20111   0.25246   0.32811   0.34807   0.35202

 Mulliken charges:
               1
     1  C   -0.076992
     2  C   -0.002665
     3  N   -0.207186
     4  H    0.093849
     5  H    0.097770
     6  H    0.095224
 Sum of Mulliken charges =   0.00000

 Dipole moment (field-independent basis, Debye):
    X=             -4.1395    Y=             -0.0069    Z=              0.0034  Tot=              4.1395
 Quadrupole moment (field-independent basis, Debye-Ang):
   XX=            -20.9528   YY=            -17.7208   ZZ=            -17.7293
   XY=             -0.0339   XZ=             -0.0176   YZ=              0.0252

 Normal termination of Gaussian 09 at Thu Aug 27 00:05:11 2020.
