 Gaussian 09, Revision D.01,
 Gaussian 09:  ES64L-G09RevD.01 24-Apr-2013

 --------------------
 #p B2PLYPD3/Def2QZVP
 --------------------

 ------------
 cyanomethane
 ------------
 Symbolic Z-matrix:
 Charge =  0 Multiplicity = 1

                         Standard orientation:
 ---------------------------------------------------------------------
 Center     Atomic      Atomic             Coordinates (Angstroms)
 Number     Number       Type             X           Y           Z
 ---------------------------------------------------------------------
      1          6           0       -1.170677   -0.010456   -0.009390
      2          6           0        0.279698    0.019290    0.011274
      3          7           0        1.430750   -0.009069   -0.007862
      4          1           0       -1.585046   -0.742097   -0.701252
      5          1           0       -1.566579    1.003811   -0.267423
      6          1           0       -1.517753   -0.251231    1.012409
 ---------------------------------------------------------------------

 SCF Done:  E(RB2PLYPD3) =  -132.534428504     A.U. after   12 cycles
 E2(B2PLYPD3) =    -0.1804460176D+00 E(B2PLYPD3) =    -0.13271487452132D+03

 The electronic state is 1-A.
 Alpha  occ. eigenvalues --  -14.84128 -10.67490 -10.66172  -1.04268  -0.88977
 Alpha  occ. eigenvalues --   -0.59792  -0.53765  -0.53259  -0.44813  -0.39146
 Alpha  occ. eigenvalues --   -0.38987
 Alpha virt. eigenvalues --    0.03686   0.07600   0.07832   0.10133   0.11533
 Alpha virt. eigenvalues --    0.11638   0.15453   0.15927   0.16890   0.20078
 Alpha virt. eigenvalues --    0.20091   0.25522   0.32698   0.34021   0.34763

 Mulliken charges:
               1
     1  C   -0.088208
     2  C    0.000069
     3  N   -0.204192
     4  H    0.100258
     5  H    0.095494
     6  H    0.096577
 Sum of Mulliken charges =   0.00000

 Dipole moment (field-independent basis, Debye):
    X=             -4.1126    Y=              0.0103    Z=              0.0224  Tot=              4.1126
 Quadrupole moment (field-independent basis, Debye-Ang):
   XX=            -21.0132   YY=            -17.7467   ZZ=            -17.7793
   XY=              0.0558   XZ=              0.0673   YZ=              0.0263

 Normal termination of Gaussian 09 at Thu Aug 27 00:02:40 2020.
