 Gaussian 09, Revision D.01,
 Gaussian 09:  ES64L-G09RevD.01 24-Apr-2013

 --------------------
 #p B2PLYPD3/Def2QZVP
 --------------------

 ------------
 cyanomethane
 ------------
 Symbolic Z-matrix:
 Charge =  0 Multiplicity = 1

                         Standard orientation:
 ---------------------------------------------------------------------
 Center     Atomic      Atomic             Coordinates (Angstroms)
 Number     Number       Type             X           Y           Z
 ---------------------------------------------------------------------
      1          6           0        1.180039    0.003076    0.014693
      2          6           0       -0.273108   -0.003665   -0.023190
      3          7           0       -1.438141    0.001321    0.009537
      4          1           0        1.541525    0.995163   -0.243503
      5          1           0        1.554644   -0.707674   -0.743661
      6          1           0        1.529231   -0.293203    0.971387
 ---------------------------------------------------------------------

 SCF Done:  E(RB2PLYPD3) =  -132.533903113     A.U. after   12 cycles
 E2(B2PLYPD3) =    -0.1813531483D+00 E(B2PLYPD3) =    -0.13271525626165D+03

 The electronic state is 1-A.
 Alpha  occ. eigenvalues --  -14.84466 -10.66982 -10.66528  -1.03674  -0.89476
 Alpha  occ. eigenvalues --   -0.59773  -0.54721  -0.53639  -0.44799  -0.38856
 Alpha  occ. eigenvalues --   -0.38690
 Alpha virt. eigenvalues --    0.03772   0.07711   0.07843   0.10137   0.11277
 Alpha virt. eigenvalues --    0.11400   0.15399   0.15949   0.16465   0.20135
 Alpha virt. eigenvalues --    0.20156   0.25437   0.32614   0.34257   0.35075

 Mulliken charges:
               1
     1  C   -0.083621
     2  C    0.000169
     3  N   -0.211853
     4  H    0.098617
     5  H    0.095046
     6  H    0.101641
 Sum of Mulliken charges =   0.00000

 Dipole moment (field-independent basis, Debye):
    X=              4.1408    Y=             -0.0038    Z=             -0.0133  Tot=              4.1408
 Quadrupole moment (field-independent basis, Debye-Ang):
   XX=            -21.0532   YY=            -17.7677   ZZ=            -17.7542
   XY=             -0.0038   XZ=              0.0265   YZ=             -0.0383

 Normal termination of Gaussian 09 at Thu Aug 27 00:00:34 2020.
