 Gaussian 09, Revision D.01,
 Gaussian 09:  ES64L-G09RevD.01 24-Apr-2013

 --------------------
 #p B2PLYPD3/Def2QZVP
 --------------------

 ------------
 cyanomethane
 ------------
 Symbolic Z-matrix:
 Charge =  0 Multiplicity = 1

                         Standard orientation:
 ---------------------------------------------------------------------
 Center     Atomic      Atomic             Coordinates (Angstroms)
 Number     Number       Type             X           Y           Z
 ---------------------------------------------------------------------
      1          6           0       -1.163555   -0.005129    0.015624
      2          6           0        0.279390   -0.020933   -0.015764
      3          7           0        1.426363    0.010318   -0.001081
      4          1           0       -1.595684    0.908981   -0.484542
      5          1           0       -1.453819    0.012461    1.002358
      6          1           0       -1.630049   -0.837294   -0.509412
 ---------------------------------------------------------------------

 SCF Done:  E(RB2PLYPD3) =  -132.531834823     A.U. after   12 cycles
 E2(B2PLYPD3) =    -0.1798509609D+00 E(B2PLYPD3) =    -0.13271168578344D+03

 The electronic state is 1-A.
 Alpha  occ. eigenvalues --  -14.84035 -10.66669 -10.66044  -1.04483  -0.89650
 Alpha  occ. eigenvalues --   -0.60402  -0.55247  -0.52614  -0.44843  -0.39361
 Alpha  occ. eigenvalues --   -0.39055
 Alpha virt. eigenvalues --    0.03765   0.07498   0.08410   0.10209   0.11453
 Alpha virt. eigenvalues --    0.11796   0.15538   0.16398   0.16800   0.20005
 Alpha virt. eigenvalues --    0.20126   0.25656   0.32784   0.34132   0.35566

 Mulliken charges:
               1
     1  C   -0.075248
     2  C   -0.000410
     3  N   -0.202787
     4  H    0.087162
     5  H    0.100003
     6  H    0.091280
 Sum of Mulliken charges =   0.00000

 Dipole moment (field-independent basis, Debye):
    X=             -4.1191    Y=             -0.0117    Z=              0.0120  Tot=              4.1191
 Quadrupole moment (field-independent basis, Debye-Ang):
   XX=            -20.8199   YY=            -17.8250   ZZ=            -17.6881
   XY=             -0.0523   XZ=              0.1211   YZ=              0.0330

 Normal termination of Gaussian 09 at Wed Aug 26 11:13:06 2020.
