 Gaussian 09, Revision D.01,
 Gaussian 09:  ES64L-G09RevD.01 24-Apr-2013

 --------------------
 #p B2PLYPD3/Def2QZVP
 --------------------

 ------------
 cyanomethane
 ------------
 Symbolic Z-matrix:
 Charge =  0 Multiplicity = 1

                         Standard orientation:
 ---------------------------------------------------------------------
 Center     Atomic      Atomic             Coordinates (Angstroms)
 Number     Number       Type             X           Y           Z
 ---------------------------------------------------------------------
      1          6           0       -1.183111    0.023256    0.010172
      2          6           0        0.292126   -0.029045   -0.017578
      3          7           0        1.431962    0.012757    0.006644
      4          1           0       -1.557851    1.051364   -0.026385
      5          1           0       -1.541467   -0.532848    0.909519
      6          1           0       -1.578511   -0.573086   -0.885206
 ---------------------------------------------------------------------

 SCF Done:  E(RB2PLYPD3) =  -132.532335665     A.U. after   12 cycles
 E2(B2PLYPD3) =    -0.1797714307D+00 E(B2PLYPD3) =    -0.13271210709578D+03

 The electronic state is 1-A.
 Alpha  occ. eigenvalues --  -14.83831 -10.68174 -10.65934  -1.04632  -0.88179
 Alpha  occ. eigenvalues --   -0.58883  -0.54097  -0.52224  -0.44718  -0.39556
 Alpha  occ. eigenvalues --   -0.39206
 Alpha virt. eigenvalues --    0.03572   0.07741   0.07981   0.10176   0.11454
 Alpha virt. eigenvalues --    0.11783   0.15208   0.15833   0.16957   0.19962
 Alpha virt. eigenvalues --    0.20050   0.25140   0.32303   0.33527   0.34889

 Mulliken charges:
               1
     1  C   -0.099091
     2  C   -0.002654
     3  N   -0.197746
     4  H    0.106550
     5  H    0.099527
     6  H    0.093414
 Sum of Mulliken charges =   0.00000

 Dipole moment (field-independent basis, Debye):
    X=             -4.0938    Y=             -0.0348    Z=             -0.0072  Tot=              4.0940
 Quadrupole moment (field-independent basis, Debye-Ang):
   XX=            -21.1229   YY=            -17.6072   ZZ=            -17.8780
   XY=             -0.0271   XZ=             -0.0160   YZ=             -0.0417

 Normal termination of Gaussian 09 at Wed Aug 26 13:56:23 2020.
