 Gaussian 09, Revision D.01,
 Gaussian 09:  ES64L-G09RevD.01 24-Apr-2013

 --------------------
 #p B2PLYPD3/Def2QZVP
 --------------------

 ------------
 cyanomethane
 ------------
 Symbolic Z-matrix:
 Charge =  0 Multiplicity = 1

                         Standard orientation:
 ---------------------------------------------------------------------
 Center     Atomic      Atomic             Coordinates (Angstroms)
 Number     Number       Type             X           Y           Z
 ---------------------------------------------------------------------
      1          6           0        1.179487   -0.011860    0.005345
      2          6           0       -0.285854    0.004475    0.018785
      3          7           0       -1.441851    0.001715   -0.007677
      4          1           0        1.610755    1.042174   -0.118870
      5          1           0        1.523137   -0.583637   -0.862200
      6          1           0        1.597275   -0.426232    0.890033
 ---------------------------------------------------------------------

 SCF Done:  E(RB2PLYPD3) =  -132.532734887     A.U. after   12 cycles
 E2(B2PLYPD3) =    -0.1808321052D+00 E(B2PLYPD3) =    -0.13271356699222D+03

 The electronic state is 1-A.
 Alpha  occ. eigenvalues --  -14.84363 -10.67537 -10.66479  -1.04094  -0.88794
 Alpha  occ. eigenvalues --   -0.59989  -0.54187  -0.52508  -0.44887  -0.39206
 Alpha  occ. eigenvalues --   -0.38955
 Alpha virt. eigenvalues --    0.03639   0.07362   0.08003   0.10190   0.11303
 Alpha virt. eigenvalues --    0.11605   0.15339   0.16350   0.16708   0.20041
 Alpha virt. eigenvalues --    0.20114   0.25210   0.32338   0.33964   0.35015

 Mulliken charges:
               1
     1  C   -0.081651
     2  C    0.001306
     3  N   -0.205689
     4  H    0.090517
     5  H    0.096965
     6  H    0.098552
 Sum of Mulliken charges =   0.00000

 Dipole moment (field-independent basis, Debye):
    X=              4.1360    Y=             -0.0166    Z=              0.0044  Tot=              4.1360
 Quadrupole moment (field-independent basis, Debye-Ang):
   XX=            -20.8889   YY=            -17.8544   ZZ=            -17.8000
   XY=              0.0310   XZ=             -0.0120   YZ=             -0.0122

 Normal termination of Gaussian 09 at Wed Aug 26 12:25:20 2020.
