 Gaussian 09, Revision D.01,
 Gaussian 09:  ES64L-G09RevD.01 24-Apr-2013

 --------------------
 #p B2PLYPD3/Def2QZVP
 --------------------

 ------------
 cyanomethane
 ------------
 Symbolic Z-matrix:
 Charge =  0 Multiplicity = 1

                         Standard orientation:
 ---------------------------------------------------------------------
 Center     Atomic      Atomic             Coordinates (Angstroms)
 Number     Number       Type             X           Y           Z
 ---------------------------------------------------------------------
      1          6           0        1.167560   -0.007157    0.007674
      2          6           0       -0.271446   -0.001414   -0.027609
      3          7           0       -1.430823    0.008413    0.010775
      4          1           0        1.646265    0.950275   -0.392450
      5          1           0        1.495215   -0.844513   -0.576848
      6          1           0        1.497594   -0.113232    1.013483
 ---------------------------------------------------------------------

 SCF Done:  E(RB2PLYPD3) =  -132.531961843     A.U. after   12 cycles
 E2(B2PLYPD3) =    -0.1810398442D+00 E(B2PLYPD3) =    -0.13271300168716D+03

 The electronic state is 1-A.
 Alpha  occ. eigenvalues --  -14.84326 -10.67043 -10.66339  -1.03953  -0.89562
 Alpha  occ. eigenvalues --   -0.60010  -0.54822  -0.53064  -0.44831  -0.38891
 Alpha  occ. eigenvalues --   -0.38767
 Alpha virt. eigenvalues --    0.03708   0.07203   0.08117   0.10134   0.11394
 Alpha virt. eigenvalues --    0.11621   0.15497   0.15947   0.16710   0.20088
 Alpha virt. eigenvalues --    0.20173   0.25703   0.32504   0.34401   0.34877

 Mulliken charges:
               1
     1  C   -0.083967
     2  C    0.000717
     3  N   -0.209224
     4  H    0.092754
     5  H    0.099918
     6  H    0.099802
 Sum of Mulliken charges =   0.00000

 Dipole moment (field-independent basis, Debye):
    X=              4.1245    Y=             -0.0309    Z=              0.0078  Tot=              4.1247
 Quadrupole moment (field-independent basis, Debye-Ang):
   XX=            -21.0040   YY=            -17.7258   ZZ=            -17.7971
   XY=              0.1251   XZ=              0.0622   YZ=              0.0474

 Normal termination of Gaussian 09 at Wed Aug 26 13:20:09 2020.
