 Gaussian 09, Revision D.01,
 Gaussian 09:  ES64L-G09RevD.01 24-Apr-2013

 --------------------
 #p B2PLYPD3/Def2QZVP
 --------------------

 ------------
 cyanomethane
 ------------
 Symbolic Z-matrix:
 Charge =  0 Multiplicity = 1

                         Standard orientation:
 ---------------------------------------------------------------------
 Center     Atomic      Atomic             Coordinates (Angstroms)
 Number     Number       Type             X           Y           Z
 ---------------------------------------------------------------------
      1          6           0       -1.208795    0.002561    0.005560
      2          6           0        0.276361    0.024190   -0.001108
      3          7           0        1.439538   -0.021786    0.001359
      4          1           0       -1.375844    0.971038   -0.354938
      5          1           0       -1.531500   -0.180705    0.970448
      6          1           0       -1.574818   -0.798338   -0.651737
 ---------------------------------------------------------------------

 SCF Done:  E(RB2PLYPD3) =  -132.526709625     A.U. after   12 cycles
 E2(B2PLYPD3) =    -0.1811264421D+00 E(B2PLYPD3) =    -0.13270783606721D+03

 The electronic state is 1-A.
 Alpha  occ. eigenvalues --  -14.84263 -10.66639 -10.66406  -1.03569  -0.89845
 Alpha  occ. eigenvalues --   -0.59029  -0.55620  -0.54167  -0.44524  -0.38896
 Alpha  occ. eigenvalues --   -0.38780
 Alpha virt. eigenvalues --    0.03799   0.07955   0.08994   0.10157   0.11016
 Alpha virt. eigenvalues --    0.11217   0.14824   0.15409   0.16401   0.20135
 Alpha virt. eigenvalues --    0.20192   0.24745   0.32408   0.34574   0.35226

 Mulliken charges:
               1
     1  C   -0.096035
     2  C   -0.005171
     3  N   -0.213130
     4  H    0.110170
     5  H    0.104010
     6  H    0.100156
 Sum of Mulliken charges =   0.00000

 Dipole moment (field-independent basis, Debye):
    X=             -4.1335    Y=              0.0240    Z=              0.0088  Tot=              4.1336
 Quadrupole moment (field-independent basis, Debye-Ang):
   XX=            -21.3123   YY=            -17.5854   ZZ=            -17.7530
   XY=              0.2999   XZ=             -0.0616   YZ=             -0.0565

 Normal termination of Gaussian 09 at Wed Aug 26 23:49:16 2020.
