 Gaussian 09, Revision D.01,
 Gaussian 09:  ES64L-G09RevD.01 24-Apr-2013

 --------------------
 #p B2PLYPD3/Def2QZVP
 --------------------

 ------------
 cyanomethane
 ------------
 Symbolic Z-matrix:
 Charge =  0 Multiplicity = 1

                         Standard orientation:
 ---------------------------------------------------------------------
 Center     Atomic      Atomic             Coordinates (Angstroms)
 Number     Number       Type             X           Y           Z
 ---------------------------------------------------------------------
      1          6           0       -1.174781    0.012794   -0.005415
      2          6           0        0.266130    0.002288    0.031864
      3          7           0        1.431588   -0.000430   -0.016490
      4          1           0       -1.511926   -0.212211    0.988920
      5          1           0       -1.507118   -0.851845   -0.666031
      6          1           0       -1.550166    0.976568   -0.366146
 ---------------------------------------------------------------------

 SCF Done:  E(RB2PLYPD3) =  -132.531421291     A.U. after   12 cycles
 E2(B2PLYPD3) =    -0.1817008819D+00 E(B2PLYPD3) =    -0.13271312217306D+03

 The electronic state is 1-A.
 Alpha  occ. eigenvalues --  -14.84392 -10.67420 -10.66423  -1.03621  -0.89417
 Alpha  occ. eigenvalues --   -0.59317  -0.54845  -0.53304  -0.44735  -0.38725
 Alpha  occ. eigenvalues --   -0.38452
 Alpha virt. eigenvalues --    0.03607   0.07303   0.07928   0.10102   0.11251
 Alpha virt. eigenvalues --    0.11573   0.15326   0.15573   0.16516   0.20122
 Alpha virt. eigenvalues --    0.20212   0.25632   0.32613   0.33640   0.34818

 Mulliken charges:
               1
     1  C   -0.096639
     2  C    0.001219
     3  N   -0.213098
     4  H    0.101796
     5  H    0.099973
     6  H    0.106748
 Sum of Mulliken charges =   0.00000

 Dipole moment (field-independent basis, Debye):
    X=             -4.1215    Y=             -0.0155    Z=              0.0415  Tot=              4.1217
 Quadrupole moment (field-independent basis, Debye-Ang):
   XX=            -21.2509   YY=            -17.6128   ZZ=            -17.8419
   XY=              0.0086   XZ=              0.0475   YZ=             -0.0546

 Normal termination of Gaussian 09 at Wed Aug 26 14:25:44 2020.
