 Gaussian 09, Revision D.01,
 Gaussian 09:  ES64L-G09RevD.01 24-Apr-2013

 --------------------
 #p B2PLYPD3/Def2QZVP
 --------------------

 ------------
 cyanomethane
 ------------
 Symbolic Z-matrix:
 Charge =  0 Multiplicity = 1

                         Standard orientation:
 ---------------------------------------------------------------------
 Center     Atomic      Atomic             Coordinates (Angstroms)
 Number     Number       Type             X           Y           Z
 ---------------------------------------------------------------------
      1          6           0       -1.172224   -0.010978    0.008953
      2          6           0        0.283225    0.022558   -0.003350
      3          7           0        1.428518   -0.008861   -0.000086
      4          1           0       -1.535587   -0.358726    0.950526
      5          1           0       -1.548416   -0.668717   -0.796596
      6          1           0       -1.581626    1.019992   -0.186944
 ---------------------------------------------------------------------

 SCF Done:  E(RB2PLYPD3) =  -132.534801955     A.U. after   11 cycles
 E2(B2PLYPD3) =    -0.1798586503D+00 E(B2PLYPD3) =    -0.13271466060560D+03

 The electronic state is 1-A.
 Alpha  occ. eigenvalues --  -14.83958 -10.67376 -10.65999  -1.04486  -0.88973
 Alpha  occ. eigenvalues --   -0.59665  -0.54212  -0.53005  -0.44777  -0.39340
 Alpha  occ. eigenvalues --   -0.39152
 Alpha virt. eigenvalues --    0.03712   0.07717   0.08092   0.10174   0.11524
 Alpha virt. eigenvalues --    0.11694   0.15436   0.16257   0.16600   0.20027
 Alpha virt. eigenvalues --    0.20061   0.25425   0.32652   0.34103   0.34944

 Mulliken charges:
               1
     1  C   -0.087549
     2  C   -0.002013
     3  N   -0.201155
     4  H    0.100676
     5  H    0.096695
     6  H    0.093345
 Sum of Mulliken charges =   0.00000

 Dipole moment (field-independent basis, Debye):
    X=             -4.1050    Y=              0.0054    Z=              0.0017  Tot=              4.1050
 Quadrupole moment (field-independent basis, Debye-Ang):
   XX=            -21.0062   YY=            -17.7564   ZZ=            -17.7200
   XY=              0.0355   XZ=              0.0153   YZ=             -0.0173

 Normal termination of Gaussian 09 at Wed Aug 26 10:23:42 2020.
