 Gaussian 09, Revision D.01,
 Gaussian 09:  ES64L-G09RevD.01 24-Apr-2013

 --------------------
 #p B2PLYPD3/Def2QZVP
 --------------------

 ------------
 cyanomethane
 ------------
 Symbolic Z-matrix:
 Charge =  0 Multiplicity = 1

                         Standard orientation:
 ---------------------------------------------------------------------
 Center     Atomic      Atomic             Coordinates (Angstroms)
 Number     Number       Type             X           Y           Z
 ---------------------------------------------------------------------
      1          6           0       -1.178228    0.008524    0.004349
      2          6           0        0.284688   -0.012580   -0.009928
      3          7           0        1.436093    0.002676    0.004187
      4          1           0       -1.523994    1.025278   -0.122534
      5          1           0       -1.572368   -0.400004    0.924549
      6          1           0       -1.595048   -0.619675   -0.797846
 ---------------------------------------------------------------------

 SCF Done:  E(RB2PLYPD3) =  -132.535545149     A.U. after   11 cycles
 E2(B2PLYPD3) =    -0.1802125413D+00 E(B2PLYPD3) =    -0.13271575769027D+03

 The electronic state is 1-A.
 Alpha  occ. eigenvalues --  -14.84166 -10.67110 -10.66249  -1.04252  -0.89099
 Alpha  occ. eigenvalues --   -0.59899  -0.54287  -0.53213  -0.44821  -0.39251
 Alpha  occ. eigenvalues --   -0.39128
 Alpha virt. eigenvalues --    0.03764   0.07849   0.08057   0.10202   0.11399
 Alpha virt. eigenvalues --    0.11557   0.15376   0.16411   0.16568   0.20037
 Alpha virt. eigenvalues --    0.20094   0.25270   0.32688   0.34525   0.34933

 Mulliken charges:
               1
     1  C   -0.079276
     2  C   -0.001200
     3  N   -0.204187
     4  H    0.098357
     5  H    0.094448
     6  H    0.091858
 Sum of Mulliken charges =   0.00000

 Dipole moment (field-independent basis, Debye):
    X=             -4.1316    Y=             -0.0127    Z=             -0.0005  Tot=              4.1316
 Quadrupole moment (field-independent basis, Debye-Ang):
   XX=            -20.9029   YY=            -17.6914   ZZ=            -17.8570
   XY=              0.0630   XZ=             -0.0263   YZ=             -0.0234

 Normal termination of Gaussian 09 at Wed Aug 26 12:26:05 2020.
