 Gaussian 09, Revision D.01,
 Gaussian 09:  ES64L-G09RevD.01 24-Apr-2013

 --------------------
 #p B2PLYPD3/Def2QZVP
 --------------------

 ------------
 cyanomethane
 ------------
 Symbolic Z-matrix:
 Charge =  0 Multiplicity = 1

                         Standard orientation:
 ---------------------------------------------------------------------
 Center     Atomic      Atomic             Coordinates (Angstroms)
 Number     Number       Type             X           Y           Z
 ---------------------------------------------------------------------
      1          6           0       -1.170993   -0.008392   -0.015545
      2          6           0        0.262095   -0.016417    0.021330
      3          7           0        1.431414    0.010130   -0.006315
      4          1           0       -1.566024    0.021319    0.990683
      5          1           0       -1.491242   -0.877938   -0.495245
      6          1           0       -1.509244    0.934562   -0.485948
 ---------------------------------------------------------------------

 SCF Done:  E(RB2PLYPD3) =  -132.531224502     A.U. after   11 cycles
 E2(B2PLYPD3) =    -0.1816799269D+00 E(B2PLYPD3) =    -0.13271290442863D+03

 The electronic state is 1-A.
 Alpha  occ. eigenvalues --  -14.84487 -10.66592 -10.66481  -1.03522  -0.90088
 Alpha  occ. eigenvalues --   -0.59966  -0.55818  -0.53424  -0.44771  -0.38693
 Alpha  occ. eigenvalues --   -0.38392
 Alpha virt. eigenvalues --    0.03769   0.07458   0.08045   0.10125   0.11144
 Alpha virt. eigenvalues --    0.11572   0.15367   0.15974   0.16324   0.20128
 Alpha virt. eigenvalues --    0.20250   0.25768   0.32854   0.33985   0.35293

 Mulliken charges:
               1
     1  C   -0.082432
     2  C    0.000718
     3  N   -0.215390
     4  H    0.093151
     5  H    0.104566
     6  H    0.099388
 Sum of Mulliken charges =   0.00000

 Dipole moment (field-independent basis, Debye):
    X=             -4.1428    Y=             -0.0058    Z=              0.0346  Tot=              4.1430
 Quadrupole moment (field-independent basis, Debye-Ang):
   XX=            -21.1051   YY=            -17.5667   ZZ=            -17.8886
   XY=             -0.0847   XZ=             -0.0906   YZ=              0.0581

 Normal termination of Gaussian 09 at Wed Aug 26 14:40:27 2020.
