 Gaussian 09, Revision D.01,
 Gaussian 09:  ES64L-G09RevD.01 24-Apr-2013

 --------------------
 #p B2PLYPD3/Def2QZVP
 --------------------

 ------------
 cyanomethane
 ------------
 Symbolic Z-matrix:
 Charge =  0 Multiplicity = 1

                         Standard orientation:
 ---------------------------------------------------------------------
 Center     Atomic      Atomic             Coordinates (Angstroms)
 Number     Number       Type             X           Y           Z
 ---------------------------------------------------------------------
      1          6           0       -1.201263   -0.010011    0.030844
      2          6           0        0.275736    0.018332    0.043120
      3          7           0        1.442969   -0.010110   -0.031946
      4          1           0       -1.432808   -0.201013    0.970974
      5          1           0       -1.586862   -0.859291   -0.761594
      6          1           0       -1.527951    1.081153   -0.429544
 ---------------------------------------------------------------------

 SCF Done:  E(RB2PLYPD3) =  -132.502194902     A.U. after   12 cycles
 E2(B2PLYPD3) =    -0.1829736250D+00 E(B2PLYPD3) =    -0.13268516852732D+03

 The electronic state is 1-A.
 Alpha  occ. eigenvalues --  -14.84522 -10.69017 -10.66646  -1.03393  -0.88578
 Alpha  occ. eigenvalues --   -0.58364  -0.55274  -0.50728  -0.44625  -0.38817
 Alpha  occ. eigenvalues --   -0.38156
 Alpha virt. eigenvalues --    0.02859   0.05854   0.08775   0.10115   0.10699
 Alpha virt. eigenvalues --    0.11649   0.14901   0.15310   0.16032   0.20054
 Alpha virt. eigenvalues --    0.20220   0.24870   0.30659   0.31343   0.34225

 Mulliken charges:
               1
     1  C   -0.127484
     2  C    0.004695
     3  N   -0.213438
     4  H    0.124962
     5  H    0.104371
     6  H    0.106894
 Sum of Mulliken charges =   0.00000

 Dipole moment (field-independent basis, Debye):
    X=             -4.0795    Y=              0.0063    Z=              0.0376  Tot=              4.0797
 Quadrupole moment (field-independent basis, Debye-Ang):
   XX=            -21.6410   YY=            -17.7730   ZZ=            -17.7018
   XY=              0.1066   XZ=              0.2823   YZ=             -0.0885

 Normal termination of Gaussian 09 at Wed Aug 26 20:52:23 2020.
