 Gaussian 09, Revision D.01,
 Gaussian 09:  ES64L-G09RevD.01 24-Apr-2013

 --------------------
 #p B2PLYPD3/Def2QZVP
 --------------------

 ------------
 cyanomethane
 ------------
 Symbolic Z-matrix:
 Charge =  0 Multiplicity = 1

                         Standard orientation:
 ---------------------------------------------------------------------
 Center     Atomic      Atomic             Coordinates (Angstroms)
 Number     Number       Type             X           Y           Z
 ---------------------------------------------------------------------
      1          6           0       -1.178627   -0.008072   -0.016875
      2          6           0        0.291918    0.022727    0.005071
      3          7           0        1.437447   -0.006011    0.001525
      4          1           0       -1.602054   -0.169592    1.007684
      5          1           0       -1.505259   -0.818709   -0.603269
      6          1           0       -1.634557    0.942441   -0.344266
 ---------------------------------------------------------------------

 SCF Done:  E(RB2PLYPD3) =  -132.533444187     A.U. after   11 cycles
 E2(B2PLYPD3) =    -0.1798555141D+00 E(B2PLYPD3) =    -0.13271329970137D+03

 The electronic state is 1-A.
 Alpha  occ. eigenvalues --  -14.84080 -10.67286 -10.66194  -1.04512  -0.88838
 Alpha  occ. eigenvalues --   -0.59957  -0.54599  -0.52284  -0.44855  -0.39537
 Alpha  occ. eigenvalues --   -0.39223
 Alpha virt. eigenvalues --    0.03720   0.07654   0.08241   0.10231   0.11357
 Alpha virt. eigenvalues --    0.11720   0.15338   0.16444   0.16913   0.19966
 Alpha virt. eigenvalues --    0.20088   0.25151   0.32517   0.34042   0.35416

 Mulliken charges:
               1
     1  C   -0.077492
     2  C   -0.000737
     3  N   -0.200602
     4  H    0.086605
     5  H    0.099454
     6  H    0.092772
 Sum of Mulliken charges =   0.00000

 Dipole moment (field-independent basis, Debye):
    X=             -4.1288    Y=             -0.0035    Z=              0.0120  Tot=              4.1288
 Quadrupole moment (field-independent basis, Debye-Ang):
   XX=            -20.8054   YY=            -17.6946   ZZ=            -17.9140
   XY=             -0.0265   XZ=             -0.0927   YZ=              0.0612

 Normal termination of Gaussian 09 at Wed Aug 26 14:20:34 2020.
