 Gaussian 09, Revision D.01,
 Gaussian 09:  ES64L-G09RevD.01 24-Apr-2013

 --------------------
 #p B2PLYPD3/Def2QZVP
 --------------------

 ------------
 cyanomethane
 ------------
 Symbolic Z-matrix:
 Charge =  0 Multiplicity = 1

                         Standard orientation:
 ---------------------------------------------------------------------
 Center     Atomic      Atomic             Coordinates (Angstroms)
 Number     Number       Type             X           Y           Z
 ---------------------------------------------------------------------
      1          6           0       -1.216284   -0.038958   -0.028829
      2          6           0        0.301369    0.073205    0.017501
      3          7           0        1.434368   -0.031606   -0.007897
      4          1           0       -1.493765   -0.134290    1.006838
      5          1           0       -1.486227   -0.756331   -0.553252
      6          1           0       -1.571093    0.906380   -0.330332
 ---------------------------------------------------------------------

 SCF Done:  E(RB2PLYPD3) =  -132.510438310     A.U. after   12 cycles
 E2(B2PLYPD3) =    -0.1785781195D+00 E(B2PLYPD3) =    -0.13268901642964D+03

 The electronic state is 1-A.
 Alpha  occ. eigenvalues --  -14.83682 -10.65785 -10.65598  -1.04621  -0.90143
 Alpha  occ. eigenvalues --   -0.59836  -0.56593  -0.53570  -0.44539  -0.39963
 Alpha  occ. eigenvalues --   -0.39530
 Alpha virt. eigenvalues --    0.03907   0.08981   0.09238   0.10139   0.11174
 Alpha virt. eigenvalues --    0.11403   0.15139   0.15519   0.16984   0.19874
 Alpha virt. eigenvalues --    0.20098   0.24624   0.32593   0.34337   0.35985

 Mulliken charges:
               1
     1  C   -0.090543
     2  C   -0.008513
     3  N   -0.198619
     4  H    0.091309
     5  H    0.114026
     6  H    0.092340
 Sum of Mulliken charges =   0.00000

 Dipole moment (field-independent basis, Debye):
    X=             -4.1173    Y=              0.0671    Z=              0.0374  Tot=              4.1181
 Quadrupole moment (field-independent basis, Debye-Ang):
   XX=            -20.9640   YY=            -17.5629   ZZ=            -17.6558
   XY=              0.0750   XZ=              0.0081   YZ=              0.1080

 Normal termination of Gaussian 09 at Wed Aug 26 22:51:10 2020.
