 Gaussian 09, Revision D.01,
 Gaussian 09:  ES64L-G09RevD.01 24-Apr-2013

 --------------------
 #p B2PLYPD3/Def2QZVP
 --------------------

 ------------
 cyanomethane
 ------------
 Symbolic Z-matrix:
 Charge =  0 Multiplicity = 1

                         Standard orientation:
 ---------------------------------------------------------------------
 Center     Atomic      Atomic             Coordinates (Angstroms)
 Number     Number       Type             X           Y           Z
 ---------------------------------------------------------------------
      1          6           0        1.175897    0.016780   -0.005942
      2          6           0       -0.296954   -0.070307    0.015357
      3          7           0       -1.420063    0.040910   -0.012015
      4          1           0        1.632969    1.081533   -0.189129
      5          1           0        1.557305   -0.712761   -0.758882
      6          1           0        1.476503   -0.333977    0.975620
 ---------------------------------------------------------------------

 SCF Done:  E(RB2PLYPD3) =  -132.527068445     A.U. after   12 cycles
 E2(B2PLYPD3) =    -0.1790631529D+00 E(B2PLYPD3) =    -0.13270613159804D+03

 The electronic state is 1-A.
 Alpha  occ. eigenvalues --  -14.83525 -10.68189 -10.65546  -1.05164  -0.88117
 Alpha  occ. eigenvalues --   -0.58549  -0.53467  -0.52493  -0.44717  -0.39683
 Alpha  occ. eigenvalues --   -0.39603
 Alpha virt. eigenvalues --    0.03266   0.07350   0.08760   0.10119   0.11691
 Alpha virt. eigenvalues --    0.11793   0.15318   0.15403   0.17515   0.19989
 Alpha virt. eigenvalues --    0.20023   0.25560   0.32565   0.33707   0.34241

 Mulliken charges:
               1
     1  C   -0.103642
     2  C   -0.004112
     3  N   -0.190184
     4  H    0.100542
     5  H    0.097962
     6  H    0.099434
 Sum of Mulliken charges =   0.00000

 Dipole moment (field-independent basis, Debye):
    X=              4.0462    Y=             -0.0950    Z=              0.0490  Tot=              4.0476
 Quadrupole moment (field-independent basis, Debye-Ang):
   XX=            -21.1005   YY=            -17.5814   ZZ=            -17.8266
   XY=              0.2676   XZ=             -0.0808   YZ=              0.0107

 Normal termination of Gaussian 09 at Wed Aug 26 22:16:13 2020.
