 Gaussian 09, Revision D.01,
 Gaussian 09:  ES64L-G09RevD.01 24-Apr-2013

 --------------------
 #p B2PLYPD3/Def2QZVP
 --------------------

 ------------
 cyanomethane
 ------------
 Symbolic Z-matrix:
 Charge =  0 Multiplicity = 1

                         Standard orientation:
 ---------------------------------------------------------------------
 Center     Atomic      Atomic             Coordinates (Angstroms)
 Number     Number       Type             X           Y           Z
 ---------------------------------------------------------------------
      1          6           0       -1.177025    0.009937   -0.004972
      2          6           0        0.273092    0.015471   -0.008656
      3          7           0        1.431788   -0.012272    0.007710
      4          1           0       -1.483730    0.992946   -0.228771
      5          1           0       -1.579457   -0.319879    0.997489
      6          1           0       -1.535730   -0.739614   -0.740921
 ---------------------------------------------------------------------

 SCF Done:  E(RB2PLYPD3) =  -132.532227290     A.U. after   12 cycles
 E2(B2PLYPD3) =    -0.1809921943D+00 E(B2PLYPD3) =    -0.13271321948419D+03

 The electronic state is 1-A.
 Alpha  occ. eigenvalues --  -14.84239 -10.67332 -10.66278  -1.03909  -0.89314
 Alpha  occ. eigenvalues --   -0.59317  -0.55240  -0.52832  -0.44736  -0.38975
 Alpha  occ. eigenvalues --   -0.38707
 Alpha virt. eigenvalues --    0.03663   0.07307   0.08267   0.10153   0.11232
 Alpha virt. eigenvalues --    0.11653   0.15354   0.15967   0.16330   0.20063
 Alpha virt. eigenvalues --    0.20186   0.25443   0.32608   0.33796   0.34993

 Mulliken charges:
               1
     1  C   -0.092607
     2  C   -0.001234
     3  N   -0.208972
     4  H    0.106307
     5  H    0.096485
     6  H    0.100022
 Sum of Mulliken charges =   0.00000

 Dipole moment (field-independent basis, Debye):
    X=             -4.1182    Y=              0.0102    Z=             -0.0099  Tot=              4.1182
 Quadrupole moment (field-independent basis, Debye-Ang):
   XX=            -21.1662   YY=            -17.6263   ZZ=            -17.8301
   XY=              0.1426   XZ=             -0.0946   YZ=             -0.0120

 Normal termination of Gaussian 09 at Thu Aug 27 00:02:01 2020.
