 Gaussian 09, Revision D.01,
 Gaussian 09:  ES64L-G09RevD.01 24-Apr-2013

 --------------------
 #p B2PLYPD3/Def2QZVP
 --------------------

 ------------
 cyanomethane
 ------------
 Symbolic Z-matrix:
 Charge =  0 Multiplicity = 1

                         Standard orientation:
 ---------------------------------------------------------------------
 Center     Atomic      Atomic             Coordinates (Angstroms)
 Number     Number       Type             X           Y           Z
 ---------------------------------------------------------------------
      1          6           0       -1.160868   -0.020539   -0.021497
      2          6           0        0.262708    0.008612    0.057013
      3          7           0        1.428889   -0.003175   -0.033118
      4          1           0       -1.464214   -0.296779    0.927919
      5          1           0       -1.608698   -0.617194   -0.729436
      6          1           0       -1.540349    1.007761   -0.179752
 ---------------------------------------------------------------------

 SCF Done:  E(RB2PLYPD3) =  -132.525243336     A.U. after   12 cycles
 E2(B2PLYPD3) =    -0.1816759604D+00 E(B2PLYPD3) =    -0.13270691929621D+03

 The electronic state is 1-A.
 Alpha  occ. eigenvalues --  -14.84613 -10.66581 -10.65794  -1.03667  -0.90621
 Alpha  occ. eigenvalues --   -0.61382  -0.55401  -0.53696  -0.44931  -0.38734
 Alpha  occ. eigenvalues --   -0.38462
 Alpha virt. eigenvalues --    0.03783   0.07195   0.08303   0.09878   0.11366
 Alpha virt. eigenvalues --    0.11570   0.15351   0.15788   0.17508   0.20152
 Alpha virt. eigenvalues --    0.20355   0.26177   0.33091   0.34361   0.35588

 Mulliken charges:
               1
     1  C   -0.069340
     2  C    0.007189
     3  N   -0.214693
     4  H    0.093641
     5  H    0.095596
     6  H    0.087606
 Sum of Mulliken charges =   0.00000

 Dipole moment (field-independent basis, Debye):
    X=             -4.1385    Y=              0.0065    Z=              0.0668  Tot=              4.1390
 Quadrupole moment (field-independent basis, Debye-Ang):
   XX=            -20.8284   YY=            -17.7914   ZZ=            -17.7382
   XY=              0.0152   XZ=              0.2134   YZ=              0.0280

 Normal termination of Gaussian 09 at Wed Aug 26 22:30:02 2020.
