 Gaussian 09, Revision D.01,
 Gaussian 09:  ES64L-G09RevD.01 24-Apr-2013

 --------------------
 #p B2PLYPD3/Def2QZVP
 --------------------

 ------------
 cyanomethane
 ------------
 Symbolic Z-matrix:
 Charge =  0 Multiplicity = 1

                         Standard orientation:
 ---------------------------------------------------------------------
 Center     Atomic      Atomic             Coordinates (Angstroms)
 Number     Number       Type             X           Y           Z
 ---------------------------------------------------------------------
      1          6           0        1.172765    0.002884    0.016265
      2          6           0       -0.283216   -0.029912   -0.027994
      3          7           0       -1.452447    0.024352    0.014688
      4          1           0        1.721389    1.014445   -0.235539
      5          1           0        1.506504   -0.718664   -0.706463
      6          1           0        1.601942   -0.304079    0.909558
 ---------------------------------------------------------------------

 SCF Done:  E(RB2PLYPD3) =  -132.522869313     A.U. after   12 cycles
 E2(B2PLYPD3) =    -0.1824290813D+00 E(B2PLYPD3) =    -0.13270529839467D+03

 The electronic state is 1-A.
 Alpha  occ. eigenvalues --  -14.84974 -10.67286 -10.67098  -1.03658  -0.89170
 Alpha  occ. eigenvalues --   -0.61205  -0.53768  -0.52111  -0.45140  -0.38858
 Alpha  occ. eigenvalues --   -0.38699
 Alpha virt. eigenvalues --    0.03383   0.06610   0.07826   0.09977   0.11372
 Alpha virt. eigenvalues --    0.11474   0.15401   0.15919   0.17804   0.20061
 Alpha virt. eigenvalues --    0.20469   0.25533   0.32034   0.33875   0.34972

 Mulliken charges:
               1
     1  C   -0.068526
     2  C    0.010229
     3  N   -0.211437
     4  H    0.087656
     5  H    0.089486
     6  H    0.092593
 Sum of Mulliken charges =   0.00000

 Dipole moment (field-independent basis, Debye):
    X=              4.1600    Y=             -0.0950    Z=             -0.0045  Tot=              4.1611
 Quadrupole moment (field-independent basis, Debye-Ang):
   XX=            -20.5917   YY=            -17.8681   ZZ=            -18.0584
   XY=              0.1406   XZ=              0.1394   YZ=              0.0099

 Normal termination of Gaussian 09 at Wed Aug 26 21:11:39 2020.
