 Gaussian 09, Revision D.01,
 Gaussian 09:  ES64L-G09RevD.01 24-Apr-2013

 --------------------
 #p B2PLYPD3/Def2QZVP
 --------------------

 ------------
 cyanomethane
 ------------
 Symbolic Z-matrix:
 Charge =  0 Multiplicity = 1

                         Standard orientation:
 ---------------------------------------------------------------------
 Center     Atomic      Atomic             Coordinates (Angstroms)
 Number     Number       Type             X           Y           Z
 ---------------------------------------------------------------------
      1          6           0        1.182907   -0.007104   -0.009708
      2          6           0       -0.282664   -0.004894   -0.011081
      3          7           0       -1.434920    0.002633    0.010837
      4          1           0        1.603894   -0.022512    1.008900
      5          1           0        1.513460    0.934780   -0.447516
      6          1           0        1.525635   -0.858708   -0.512516
 ---------------------------------------------------------------------

 SCF Done:  E(RB2PLYPD3) =  -132.533813816     A.U. after   11 cycles
 E2(B2PLYPD3) =    -0.1801984472D+00 E(B2PLYPD3) =    -0.13271401226283D+03

 The electronic state is 1-A.
 Alpha  occ. eigenvalues --  -14.84125 -10.66908 -10.66205  -1.04171  -0.89338
 Alpha  occ. eigenvalues --   -0.59657  -0.55326  -0.52903  -0.44752  -0.39289
 Alpha  occ. eigenvalues --   -0.39007
 Alpha virt. eigenvalues --    0.03778   0.07749   0.08479   0.10208   0.11208
 Alpha virt. eigenvalues --    0.11631   0.15328   0.16199   0.16535   0.20010
 Alpha virt. eigenvalues --    0.20149   0.25186   0.32705   0.34198   0.35347

 Mulliken charges:
               1
     1  C   -0.081796
     2  C   -0.002584
     3  N   -0.205336
     4  H    0.090620
     5  H    0.097802
     6  H    0.101293
 Sum of Mulliken charges =   0.00000

 Dipole moment (field-independent basis, Debye):
    X=              4.1313    Y=              0.0003    Z=             -0.0003  Tot=              4.1313
 Quadrupole moment (field-independent basis, Debye-Ang):
   XX=            -20.9838   YY=            -17.5957   ZZ=            -17.8821
   XY=              0.0122   XZ=              0.1720   YZ=              0.0394

 Normal termination of Gaussian 09 at Thu Aug 27 00:03:59 2020.
