 Gaussian 09, Revision D.01,
 Gaussian 09:  ES64L-G09RevD.01 24-Apr-2013

 --------------------
 #p B2PLYPD3/Def2QZVP
 --------------------

 ------------
 cyanomethane
 ------------
 Symbolic Z-matrix:
 Charge =  0 Multiplicity = 1

                         Standard orientation:
 ---------------------------------------------------------------------
 Center     Atomic      Atomic             Coordinates (Angstroms)
 Number     Number       Type             X           Y           Z
 ---------------------------------------------------------------------
      1          6           0        1.193438   -0.016089    0.005606
      2          6           0       -0.279129    0.029917   -0.015045
      3          7           0       -1.439776   -0.017665    0.008775
      4          1           0        1.569822   -0.471926    0.931140
      5          1           0        1.482716    1.069692   -0.047724
      6          1           0        1.540040   -0.557084   -0.888206
 ---------------------------------------------------------------------

 SCF Done:  E(RB2PLYPD3) =  -132.531738952     A.U. after   12 cycles
 E2(B2PLYPD3) =    -0.1814249065D+00 E(B2PLYPD3) =    -0.13271316385818D+03

 The electronic state is 1-A.
 Alpha  occ. eigenvalues --  -14.84316 -10.67935 -10.66443  -1.03727  -0.88673
 Alpha  occ. eigenvalues --   -0.58764  -0.54054  -0.53406  -0.44677  -0.38932
 Alpha  occ. eigenvalues --   -0.38711
 Alpha virt. eigenvalues --    0.03599   0.07590   0.07935   0.10110   0.11269
 Alpha virt. eigenvalues --    0.11373   0.15147   0.15381   0.16649   0.20120
 Alpha virt. eigenvalues --    0.20132   0.25112   0.32289   0.33661   0.34700

 Mulliken charges:
               1
     1  C   -0.103296
     2  C    0.000045
     3  N   -0.209962
     4  H    0.106094
     5  H    0.101649
     6  H    0.105469
 Sum of Mulliken charges =   0.00000

 Dipole moment (field-independent basis, Debye):
    X=              4.1189    Y=              0.0275    Z=             -0.0120  Tot=              4.1190
 Quadrupole moment (field-independent basis, Debye-Ang):
   XX=            -21.3004   YY=            -17.7582   ZZ=            -17.7235
   XY=             -0.1514   XZ=              0.0723   YZ=              0.0043

 Normal termination of Gaussian 09 at Wed Aug 26 14:38:10 2020.
