 Gaussian 09, Revision D.01,
 Gaussian 09:  ES64L-G09RevD.01 24-Apr-2013

 --------------------
 #p B2PLYPD3/Def2QZVP
 --------------------

 ------------
 cyanomethane
 ------------
 Symbolic Z-matrix:
 Charge =  0 Multiplicity = 1

                         Standard orientation:
 ---------------------------------------------------------------------
 Center     Atomic      Atomic             Coordinates (Angstroms)
 Number     Number       Type             X           Y           Z
 ---------------------------------------------------------------------
      1          6           0        1.197295    0.018945   -0.007698
      2          6           0       -0.298301    0.047950   -0.022197
      3          7           0       -1.441267   -0.014651    0.008486
      4          1           0        1.485725   -0.856620   -0.684925
      5          1           0        1.465627   -0.367163    1.023963
      6          1           0        1.743552    0.924969   -0.219064
 ---------------------------------------------------------------------

 SCF Done:  E(RB2PLYPD3) =  -132.528132384     A.U. after   12 cycles
 E2(B2PLYPD3) =    -0.1802935160D+00 E(B2PLYPD3) =    -0.13270842590021D+03

 The electronic state is 1-A.
 Alpha  occ. eigenvalues --  -14.83958 -10.68433 -10.66261  -1.04437  -0.87915
 Alpha  occ. eigenvalues --   -0.59225  -0.53865  -0.51793  -0.44704  -0.39589
 Alpha  occ. eigenvalues --   -0.39025
 Alpha virt. eigenvalues --    0.03475   0.07790   0.07996   0.10324   0.11170
 Alpha virt. eigenvalues --    0.11917   0.14955   0.15530   0.17452   0.19951
 Alpha virt. eigenvalues --    0.20141   0.24616   0.31991   0.32986   0.34921

 Mulliken charges:
               1
     1  C   -0.103491
     2  C    0.002412
     3  N   -0.200774
     4  H    0.097692
     5  H    0.096784
     6  H    0.107377
 Sum of Mulliken charges =   0.00000

 Dipole moment (field-independent basis, Debye):
    X=              4.1326    Y=             -0.0143    Z=              0.0170  Tot=              4.1326
 Quadrupole moment (field-independent basis, Debye-Ang):
   XX=            -21.0316   YY=            -17.6309   ZZ=            -18.0006
   XY=              0.0478   XZ=              0.0539   YZ=             -0.0295

 Normal termination of Gaussian 09 at Wed Aug 26 22:21:58 2020.
