 Gaussian 09, Revision D.01,
 Gaussian 09:  ES64L-G09RevD.01 24-Apr-2013

 --------------------
 #p B2PLYPD3/Def2QZVP
 --------------------

 ------------
 cyanomethane
 ------------
 Symbolic Z-matrix:
 Charge =  0 Multiplicity = 1

                         Standard orientation:
 ---------------------------------------------------------------------
 Center     Atomic      Atomic             Coordinates (Angstroms)
 Number     Number       Type             X           Y           Z
 ---------------------------------------------------------------------
      1          6           0       -1.175314    0.009076    0.003291
      2          6           0        0.273689   -0.006000    0.012631
      3          7           0        1.432026    0.002526   -0.008360
      4          1           0       -1.518124   -0.214422    0.970782
      5          1           0       -1.547598   -0.783442   -0.674895
      6          1           0       -1.548707    0.961729   -0.332902
 ---------------------------------------------------------------------

 SCF Done:  E(RB2PLYPD3) =  -132.534212387     A.U. after   11 cycles
 E2(B2PLYPD3) =    -0.1806630441D+00 E(B2PLYPD3) =    -0.13271487543105D+03

 The electronic state is 1-A.
 Alpha  occ. eigenvalues --  -14.84251 -10.66715 -10.66284  -1.03954  -0.89686
 Alpha  occ. eigenvalues --   -0.59861  -0.54985  -0.53655  -0.44773  -0.39017
 Alpha  occ. eigenvalues --   -0.38838
 Alpha virt. eigenvalues --    0.03795   0.07717   0.08246   0.10161   0.11309
 Alpha virt. eigenvalues --    0.11533   0.15470   0.15996   0.16527   0.20096
 Alpha virt. eigenvalues --    0.20153   0.25491   0.32813   0.34343   0.35164

 Mulliken charges:
               1
     1  C   -0.081505
     2  C   -0.001254
     3  N   -0.208950
     4  H    0.098536
     5  H    0.093954
     6  H    0.099219
 Sum of Mulliken charges =   0.00000

 Dipole moment (field-independent basis, Debye):
    X=             -4.1322    Y=             -0.0123    Z=              0.0205  Tot=              4.1323
 Quadrupole moment (field-independent basis, Debye-Ang):
   XX=            -21.0197   YY=            -17.6921   ZZ=            -17.7647
   XY=              0.0051   XZ=              0.0506   YZ=             -0.0438

 Normal termination of Gaussian 09 at Wed Aug 26 13:47:34 2020.
