 Gaussian 09, Revision D.01,
 Gaussian 09:  ES64L-G09RevD.01 24-Apr-2013

 --------------------
 #p B2PLYPD3/Def2QZVP
 --------------------

 ------------
 cyanomethane
 ------------
 Symbolic Z-matrix:
 Charge =  0 Multiplicity = 1

                         Standard orientation:
 ---------------------------------------------------------------------
 Center     Atomic      Atomic             Coordinates (Angstroms)
 Number     Number       Type             X           Y           Z
 ---------------------------------------------------------------------
      1          6           0       -1.182263   -0.004184    0.020402
      2          6           0        0.293122    0.002711   -0.035996
      3          7           0        1.436564   -0.001698    0.016985
      4          1           0       -1.575820   -0.043400    1.043644
      5          1           0       -1.580763   -0.895957   -0.578058
      6          1           0       -1.564518    0.960078   -0.490921
 ---------------------------------------------------------------------

 SCF Done:  E(RB2PLYPD3) =  -132.530129074     A.U. after   12 cycles
 E2(B2PLYPD3) =    -0.1803069844D+00 E(B2PLYPD3) =    -0.13271043605852D+03

 The electronic state is 1-A.
 Alpha  occ. eigenvalues --  -14.84014 -10.68582 -10.66136  -1.04523  -0.87857
 Alpha  occ. eigenvalues --   -0.59065  -0.53167  -0.52235  -0.44796  -0.39402
 Alpha  occ. eigenvalues --   -0.39184
 Alpha virt. eigenvalues --    0.03483   0.07529   0.07587   0.10149   0.11545
 Alpha virt. eigenvalues --    0.11678   0.15232   0.15953   0.16908   0.20012
 Alpha virt. eigenvalues --    0.20016   0.25140   0.32101   0.33338   0.34528

 Mulliken charges:
               1
     1  C   -0.101322
     2  C    0.000285
     3  N   -0.198793
     4  H    0.105186
     5  H    0.098148
     6  H    0.096495
 Sum of Mulliken charges =   0.00000

 Dipole moment (field-independent basis, Debye):
    X=             -4.0928    Y=              0.0025    Z=             -0.0173  Tot=              4.0929
 Quadrupole moment (field-independent basis, Debye-Ang):
   XX=            -21.1013   YY=            -17.8104   ZZ=            -17.7723
   XY=              0.0206   XZ=             -0.1138   YZ=              0.0076

 Normal termination of Gaussian 09 at Wed Aug 26 13:24:27 2020.
