 Gaussian 09, Revision D.01,
 Gaussian 09:  ES64L-G09RevD.01 24-Apr-2013

 --------------------
 #p B2PLYPD3/Def2QZVP
 --------------------

 ------------
 cyanomethane
 ------------
 Symbolic Z-matrix:
 Charge =  0 Multiplicity = 1

                         Standard orientation:
 ---------------------------------------------------------------------
 Center     Atomic      Atomic             Coordinates (Angstroms)
 Number     Number       Type             X           Y           Z
 ---------------------------------------------------------------------
      1          6           0        1.192043    0.004394    0.021541
      2          6           0       -0.285446    0.020615   -0.030922
      3          7           0       -1.434225   -0.010511    0.012793
      4          1           0        1.514308   -0.109906    0.995084
      5          1           0        1.550391    0.891878   -0.439473
      6          1           0        1.535300   -0.858452   -0.588873
 ---------------------------------------------------------------------

 SCF Done:  E(RB2PLYPD3) =  -132.532760411     A.U. after   12 cycles
 E2(B2PLYPD3) =    -0.1798494466D+00 E(B2PLYPD3) =    -0.13271260985744D+03

 The electronic state is 1-A.
 Alpha  occ. eigenvalues --  -14.84014 -10.66703 -10.66101  -1.04215  -0.89419
 Alpha  occ. eigenvalues --   -0.59260  -0.55523  -0.53439  -0.44673  -0.39397
 Alpha  occ. eigenvalues --   -0.39113
 Alpha virt. eigenvalues --    0.03812   0.08194   0.08597   0.10191   0.11200
 Alpha virt. eigenvalues --    0.11508   0.15286   0.15874   0.16583   0.20012
 Alpha virt. eigenvalues --    0.20113   0.25048   0.32635   0.34152   0.35661

 Mulliken charges:
               1
     1  C   -0.084746
     2  C   -0.004506
     3  N   -0.204619
     4  H    0.102939
     5  H    0.097951
     6  H    0.092981
 Sum of Mulliken charges =   0.00000

 Dipole moment (field-independent basis, Debye):
    X=              4.1235    Y=              0.0120    Z=             -0.0230  Tot=              4.1236
 Quadrupole moment (field-independent basis, Debye-Ang):
   XX=            -21.0586   YY=            -17.7364   ZZ=            -17.6495
   XY=             -0.0550   XZ=              0.0328   YZ=             -0.0492

 Normal termination of Gaussian 09 at Wed Aug 26 10:41:17 2020.
