 Gaussian 09, Revision D.01,
 Gaussian 09:  ES64L-G09RevD.01 24-Apr-2013

 --------------------
 #p B2PLYPD3/Def2QZVP
 --------------------

 ------------
 cyanomethane
 ------------
 Symbolic Z-matrix:
 Charge =  0 Multiplicity = 1

                         Standard orientation:
 ---------------------------------------------------------------------
 Center     Atomic      Atomic             Coordinates (Angstroms)
 Number     Number       Type             X           Y           Z
 ---------------------------------------------------------------------
      1          6           0        1.183926   -0.007287   -0.022439
      2          6           0       -0.280149   -0.002963   -0.042847
      3          7           0       -1.450716   -0.002112    0.021441
      4          1           0        1.522000    1.036903   -0.024366
      5          1           0        1.660311   -0.578912   -0.635727
      6          1           0        1.550033   -0.381705    0.901721
 ---------------------------------------------------------------------

 SCF Done:  E(RB2PLYPD3) =  -132.516783641     A.U. after   12 cycles
 E2(B2PLYPD3) =    -0.1817766759D+00 E(B2PLYPD3) =    -0.13269856031646D+03

 The electronic state is 1-A.
 Alpha  occ. eigenvalues --  -14.84861 -10.67059 -10.65743  -1.03520  -0.90397
 Alpha  occ. eigenvalues --   -0.62267  -0.55413  -0.52724  -0.45017  -0.39048
 Alpha  occ. eigenvalues --   -0.38587
 Alpha virt. eigenvalues --    0.03757   0.07537   0.08246   0.10129   0.10967
 Alpha virt. eigenvalues --    0.11629   0.15354   0.16157   0.17474   0.20097
 Alpha virt. eigenvalues --    0.20280   0.25223   0.32605   0.34130   0.35664

 Mulliken charges:
               1
     1  C   -0.056337
     2  C    0.013390
     3  N   -0.214952
     4  H    0.089927
     5  H    0.090873
     6  H    0.077098
 Sum of Mulliken charges =   0.00000

 Dipole moment (field-independent basis, Debye):
    X=              4.1917    Y=             -0.0340    Z=              0.0320  Tot=              4.1920
 Quadrupole moment (field-independent basis, Debye-Ang):
   XX=            -20.5548   YY=            -17.6355   ZZ=            -18.1068
   XY=             -0.1811   XZ=              0.2127   YZ=              0.0862

 Normal termination of Gaussian 09 at Wed Aug 26 18:14:51 2020.
