 Gaussian 09, Revision D.01,
 Gaussian 09:  ES64L-G09RevD.01 24-Apr-2013

 --------------------
 #p B2PLYPD3/Def2QZVP
 --------------------

 ------------
 cyanomethane
 ------------
 Symbolic Z-matrix:
 Charge =  0 Multiplicity = 1

                         Standard orientation:
 ---------------------------------------------------------------------
 Center     Atomic      Atomic             Coordinates (Angstroms)
 Number     Number       Type             X           Y           Z
 ---------------------------------------------------------------------
      1          6           0        1.154417    0.000005   -0.020967
      2          6           0       -0.267648    0.032193    0.023678
      3          7           0       -1.434238   -0.015609   -0.006122
      4          1           0        1.618346   -0.337532    0.966709
      5          1           0        1.578804    0.970649   -0.209195
      6          1           0        1.521898   -0.717044   -0.730930
 ---------------------------------------------------------------------

 SCF Done:  E(RB2PLYPD3) =  -132.530522601     A.U. after   11 cycles
 E2(B2PLYPD3) =    -0.1818978347D+00 E(B2PLYPD3) =    -0.13271242043543D+03

 The electronic state is 1-A.
 Alpha  occ. eigenvalues --  -14.84666 -10.67005 -10.66629  -1.03761  -0.89634
 Alpha  occ. eigenvalues --   -0.61032  -0.54745  -0.52409  -0.45014  -0.38794
 Alpha  occ. eigenvalues --   -0.38441
 Alpha virt. eigenvalues --    0.03672   0.06866   0.07532   0.10055   0.11337
 Alpha virt. eigenvalues --    0.11766   0.15630   0.16379   0.16787   0.20087
 Alpha virt. eigenvalues --    0.20221   0.26057   0.32597   0.34048   0.35203

 Mulliken charges:
               1
     1  C   -0.070680
     2  C    0.005004
     3  N   -0.211631
     4  H    0.084711
     5  H    0.095260
     6  H    0.097336
 Sum of Mulliken charges =   0.00000

 Dipole moment (field-independent basis, Debye):
    X=              4.1426    Y=              0.0094    Z=              0.0058  Tot=              4.1426
 Quadrupole moment (field-independent basis, Debye-Ang):
   XX=            -20.7943   YY=            -17.7460   ZZ=            -17.9580
   XY=             -0.0902   XZ=              0.0395   YZ=              0.0439

 Normal termination of Gaussian 09 at Wed Aug 26 11:12:50 2020.
