 Gaussian 09, Revision D.01,
 Gaussian 09:  ES64L-G09RevD.01 24-Apr-2013

 --------------------
 #p B2PLYPD3/Def2QZVP
 --------------------

 ------------
 cyanomethane
 ------------
 Symbolic Z-matrix:
 Charge =  0 Multiplicity = 1

                         Standard orientation:
 ---------------------------------------------------------------------
 Center     Atomic      Atomic             Coordinates (Angstroms)
 Number     Number       Type             X           Y           Z
 ---------------------------------------------------------------------
      1          6           0       -1.175244    0.002536   -0.010411
      2          6           0        0.269671    0.001903    0.019644
      3          7           0        1.432461   -0.002933   -0.008847
      4          1           0       -1.507920    0.995979   -0.171017
      5          1           0       -1.543176   -0.349459    0.943237
      6          1           0       -1.542684   -0.652624   -0.765686
 ---------------------------------------------------------------------

 SCF Done:  E(RB2PLYPD3) =  -132.534097005     A.U. after   11 cycles
 E2(B2PLYPD3) =    -0.1809393912D+00 E(B2PLYPD3) =    -0.13271503639652D+03

 The electronic state is 1-A.
 Alpha  occ. eigenvalues --  -14.84353 -10.66423 -10.66360  -1.03776  -0.89982
 Alpha  occ. eigenvalues --   -0.60000  -0.55060  -0.54175  -0.44775  -0.38872
 Alpha  occ. eigenvalues --   -0.38753
 Alpha virt. eigenvalues --    0.03860   0.07877   0.08108   0.10146   0.11299
 Alpha virt. eigenvalues --    0.11431   0.15493   0.15964   0.16460   0.20139
 Alpha virt. eigenvalues --    0.20166   0.25573   0.32893   0.34645   0.35154

 Mulliken charges:
               1
     1  C   -0.078183
     2  C   -0.000798
     3  N   -0.211681
     4  H    0.098982
     5  H    0.094020
     6  H    0.097659
 Sum of Mulliken charges =   0.00000

 Dipole moment (field-independent basis, Debye):
    X=             -4.1405    Y=              0.0008    Z=              0.0170  Tot=              4.1405
 Quadrupole moment (field-independent basis, Debye-Ang):
   XX=            -21.0159   YY=            -17.6742   ZZ=            -17.7711
   XY=              0.0546   XZ=              0.0272   YZ=              0.0104

 Normal termination of Gaussian 09 at Wed Aug 26 22:57:52 2020.
