 Gaussian 09, Revision D.01,
 Gaussian 09:  ES64L-G09RevD.01 24-Apr-2013

 --------------------
 #p B2PLYPD3/Def2QZVP
 --------------------

 ------------
 cyanomethane
 ------------
 Symbolic Z-matrix:
 Charge =  0 Multiplicity = 1

                         Standard orientation:
 ---------------------------------------------------------------------
 Center     Atomic      Atomic             Coordinates (Angstroms)
 Number     Number       Type             X           Y           Z
 ---------------------------------------------------------------------
      1          6           0        1.167149    0.013590   -0.001279
      2          6           0       -0.268806   -0.015731   -0.065374
      3          7           0       -1.449649    0.002805    0.030211
      4          1           0        1.541938    1.058249   -0.042811
      5          1           0        1.666102   -0.631120   -0.704793
      6          1           0        1.549445   -0.433915    0.936043
 ---------------------------------------------------------------------

 SCF Done:  E(RB2PLYPD3) =  -132.526802413     A.U. after   12 cycles
 E2(B2PLYPD3) =    -0.1835636283D+00 E(B2PLYPD3) =    -0.13271036604084D+03

 The electronic state is 1-A.
 Alpha  occ. eigenvalues --  -14.85211 -10.67295 -10.67230  -1.03100  -0.89348
 Alpha  occ. eigenvalues --   -0.61222  -0.54442  -0.52137  -0.45107  -0.38508
 Alpha  occ. eigenvalues --   -0.38114
 Alpha virt. eigenvalues --    0.03507   0.06663   0.07110   0.10063   0.10987
 Alpha virt. eigenvalues --    0.11667   0.15455   0.16206   0.16988   0.20093
 Alpha virt. eigenvalues --    0.20294   0.25914   0.32488   0.33939   0.34896

 Mulliken charges:
               1
     1  C   -0.068142
     2  C    0.010035
     3  N   -0.217786
     4  H    0.098242
     5  H    0.089686
     6  H    0.087964
 Sum of Mulliken charges =   0.00000

 Dipole moment (field-independent basis, Debye):
    X=              4.1744    Y=             -0.0467    Z=              0.0008  Tot=              4.1747
 Quadrupole moment (field-independent basis, Debye-Ang):
   XX=            -20.7408   YY=            -17.6751   ZZ=            -18.2140
   XY=             -0.1710   XZ=              0.1843   YZ=              0.0145

 Normal termination of Gaussian 09 at Wed Aug 26 23:18:29 2020.
