 Gaussian 09, Revision D.01,
 Gaussian 09:  ES64L-G09RevD.01 24-Apr-2013

 --------------------
 #p B2PLYPD3/Def2QZVP
 --------------------

 ------------
 cyanomethane
 ------------
 Symbolic Z-matrix:
 Charge =  0 Multiplicity = 1

                         Standard orientation:
 ---------------------------------------------------------------------
 Center     Atomic      Atomic             Coordinates (Angstroms)
 Number     Number       Type             X           Y           Z
 ---------------------------------------------------------------------
      1          6           0       -1.160789    0.006322    0.004452
      2          6           0        0.270646    0.028607   -0.028268
      3          7           0        1.434453   -0.017451    0.009943
      4          1           0       -1.632340   -0.548316   -0.818901
      5          1           0       -1.544245    0.972266    0.008845
      6          1           0       -1.523726   -0.511367    0.883355
 ---------------------------------------------------------------------

 SCF Done:  E(RB2PLYPD3) =  -132.531476697     A.U. after   11 cycles
 E2(B2PLYPD3) =    -0.1813406814D+00 E(B2PLYPD3) =    -0.13271281737832D+03

 The electronic state is 1-A.
 Alpha  occ. eigenvalues --  -14.84580 -10.66579 -10.66354  -1.03832  -0.89990
 Alpha  occ. eigenvalues --   -0.61136  -0.55057  -0.53023  -0.44976  -0.38908
 Alpha  occ. eigenvalues --   -0.38647
 Alpha virt. eigenvalues --    0.03766   0.07226   0.08011   0.10099   0.11245
 Alpha virt. eigenvalues --    0.11696   0.15640   0.16414   0.16789   0.20063
 Alpha virt. eigenvalues --    0.20231   0.25886   0.32950   0.34514   0.35276

 Mulliken charges:
               1
     1  C   -0.063530
     2  C    0.003833
     3  N   -0.211182
     4  H    0.086681
     5  H    0.094140
     6  H    0.090058
 Sum of Mulliken charges =   0.00000

 Dipole moment (field-independent basis, Debye):
    X=             -4.1517    Y=              0.0125    Z=              0.0032  Tot=              4.1517
 Quadrupole moment (field-independent basis, Debye-Ang):
   XX=            -20.7253   YY=            -17.7238   ZZ=            -17.9171
   XY=              0.1545   XZ=             -0.0192   YZ=             -0.0092

 Normal termination of Gaussian 09 at Wed Aug 26 12:47:11 2020.
