 Gaussian 09, Revision D.01,
 Gaussian 09:  ES64L-G09RevD.01 24-Apr-2013

 --------------------
 #p B2PLYPD3/Def2QZVP
 --------------------

 ------------
 cyanomethane
 ------------
 Symbolic Z-matrix:
 Charge =  0 Multiplicity = 1

                         Standard orientation:
 ---------------------------------------------------------------------
 Center     Atomic      Atomic             Coordinates (Angstroms)
 Number     Number       Type             X           Y           Z
 ---------------------------------------------------------------------
      1          6           0        1.187788    0.019166   -0.002925
      2          6           0       -0.280530   -0.009570   -0.053383
      3          7           0       -1.447109   -0.001889    0.027867
      4          1           0        1.496633    1.029328    0.043059
      5          1           0        1.600980   -0.541005   -0.773190
      6          1           0        1.588600   -0.532682    0.872907
 ---------------------------------------------------------------------

 SCF Done:  E(RB2PLYPD3) =  -132.528610434     A.U. after   12 cycles
 E2(B2PLYPD3) =    -0.1816996711D+00 E(B2PLYPD3) =    -0.13271031010508D+03

 The electronic state is 1-A.
 Alpha  occ. eigenvalues --  -14.84701 -10.66812 -10.66647  -1.03552  -0.89552
 Alpha  occ. eigenvalues --   -0.60297  -0.55927  -0.52342  -0.44892  -0.39028
 Alpha  occ. eigenvalues --   -0.38597
 Alpha virt. eigenvalues --    0.03646   0.07418   0.08252   0.10176   0.10855
 Alpha virt. eigenvalues --    0.11563   0.15273   0.16150   0.16758   0.20013
 Alpha virt. eigenvalues --    0.20236   0.25281   0.32606   0.34021   0.35680

 Mulliken charges:
               1
     1  C   -0.070641
     2  C    0.003323
     3  N   -0.212762
     4  H    0.102508
     5  H    0.092072
     6  H    0.085500
 Sum of Mulliken charges =   0.00000

 Dipole moment (field-independent basis, Debye):
    X=              4.1644    Y=             -0.0370    Z=             -0.0301  Tot=              4.1647
 Quadrupole moment (field-independent basis, Debye-Ang):
   XX=            -20.8339   YY=            -17.5685   ZZ=            -18.0878
   XY=             -0.2082   XZ=              0.1648   YZ=              0.0609

 Normal termination of Gaussian 09 at Wed Aug 26 23:53:49 2020.
