 Gaussian 09, Revision D.01,
 Gaussian 09:  ES64L-G09RevD.01 24-Apr-2013

 --------------------
 #p B2PLYPD3/Def2QZVP
 --------------------

 ------------
 cyanomethane
 ------------
 Symbolic Z-matrix:
 Charge =  0 Multiplicity = 1

                         Standard orientation:
 ---------------------------------------------------------------------
 Center     Atomic      Atomic             Coordinates (Angstroms)
 Number     Number       Type             X           Y           Z
 ---------------------------------------------------------------------
      1          6           0       -1.168156   -0.003960    0.022149
      2          6           0        0.295312    0.016007   -0.014865
      3          7           0        1.438618    0.003810    0.010626
      4          1           0       -1.642848   -0.315168    1.006394
      5          1           0       -1.453818   -0.837317   -0.795165
      6          1           0       -1.736595    1.053536   -0.329321
 ---------------------------------------------------------------------

 SCF Done:  E(RB2PLYPD3) =  -132.510965625     A.U. after   12 cycles
 E2(B2PLYPD3) =    -0.1814377079D+00 E(B2PLYPD3) =    -0.13269240333287D+03

 The electronic state is 1-A.
 Alpha  occ. eigenvalues --  -14.84141 -10.70201 -10.66328  -1.04721  -0.86937
 Alpha  occ. eigenvalues --   -0.59125  -0.51780  -0.50597  -0.44954  -0.39294
 Alpha  occ. eigenvalues --   -0.38907
 Alpha virt. eigenvalues --    0.02972   0.06016   0.06988   0.10156   0.11789
 Alpha virt. eigenvalues --    0.12058   0.15102   0.15797   0.17625   0.19994
 Alpha virt. eigenvalues --    0.20170   0.25261   0.30598   0.32078   0.33758

 Mulliken charges:
               1
     1  C   -0.118546
     2  C    0.009994
     3  N   -0.195877
     4  H    0.108572
     5  H    0.099593
     6  H    0.096265
 Sum of Mulliken charges =   0.00000

 Dipole moment (field-independent basis, Debye):
    X=             -4.0695    Y=             -0.0500    Z=             -0.0012  Tot=              4.0698
 Quadrupole moment (field-independent basis, Debye-Ang):
   XX=            -21.0643   YY=            -17.9037   ZZ=            -17.9373
   XY=             -0.1229   XZ=             -0.1800   YZ=             -0.0184

 Normal termination of Gaussian 09 at Wed Aug 26 22:32:05 2020.
