 Gaussian 09, Revision D.01,
 Gaussian 09:  ES64L-G09RevD.01 24-Apr-2013

 --------------------
 #p B2PLYPD3/Def2QZVP
 --------------------

 ------------
 cyanomethane
 ------------
 Symbolic Z-matrix:
 Charge =  0 Multiplicity = 1

                         Standard orientation:
 ---------------------------------------------------------------------
 Center     Atomic      Atomic             Coordinates (Angstroms)
 Number     Number       Type             X           Y           Z
 ---------------------------------------------------------------------
      1          6           0        1.181987    0.007854    0.014590
      2          6           0       -0.284851   -0.001648   -0.013084
      3          7           0       -1.441884   -0.003139    0.002618
      4          1           0        1.531716    1.070789   -0.076630
      5          1           0        1.623832   -0.604804   -0.849826
      6          1           0        1.554827   -0.481242    0.899097
 ---------------------------------------------------------------------

 SCF Done:  E(RB2PLYPD3) =  -132.531366391     A.U. after   12 cycles
 E2(B2PLYPD3) =    -0.1811126922D+00 E(B2PLYPD3) =    -0.13271247908318D+03

 The electronic state is 1-A.
 Alpha  occ. eigenvalues --  -14.84343 -10.68036 -10.66461  -1.04024  -0.88477
 Alpha  occ. eigenvalues --   -0.59522  -0.54119  -0.52174  -0.44836  -0.39128
 Alpha  occ. eigenvalues --   -0.38865
 Alpha virt. eigenvalues --    0.03575   0.07235   0.07814   0.10179   0.11290
 Alpha virt. eigenvalues --    0.11641   0.15202   0.16307   0.16506   0.20019
 Alpha virt. eigenvalues --    0.20137   0.25178   0.32159   0.33710   0.34709

 Mulliken charges:
               1
     1  C   -0.091100
     2  C    0.001135
     3  N   -0.206049
     4  H    0.102615
     5  H    0.091751
     6  H    0.101648
 Sum of Mulliken charges =   0.00000

 Dipole moment (field-independent basis, Debye):
    X=              4.1278    Y=             -0.0174    Z=              0.0068  Tot=              4.1278
 Quadrupole moment (field-independent basis, Debye-Ang):
   XX=            -21.0338   YY=            -17.6610   ZZ=            -17.9730
   XY=             -0.1334   XZ=             -0.0132   YZ=             -0.0695

 Normal termination of Gaussian 09 at Wed Aug 26 12:36:28 2020.
