 Gaussian 09, Revision D.01,
 Gaussian 09:  ES64L-G09RevD.01 24-Apr-2013

 --------------------
 #p B2PLYPD3/Def2QZVP
 --------------------

 ------------
 cyanomethane
 ------------
 Symbolic Z-matrix:
 Charge =  0 Multiplicity = 1

                         Standard orientation:
 ---------------------------------------------------------------------
 Center     Atomic      Atomic             Coordinates (Angstroms)
 Number     Number       Type             X           Y           Z
 ---------------------------------------------------------------------
      1          6           0        1.170219    0.004162   -0.004204
      2          6           0       -0.276016   -0.012608    0.010517
      3          7           0       -1.438702    0.007176   -0.003925
      4          1           0        1.548253   -0.832275   -0.608013
      5          1           0        1.582424   -0.109203    1.015898
      6          1           0        1.575017    0.941922   -0.418291
 ---------------------------------------------------------------------

 SCF Done:  E(RB2PLYPD3) =  -132.534066281     A.U. after   11 cycles
 E2(B2PLYPD3) =    -0.1814061035D+00 E(B2PLYPD3) =    -0.13271547238421D+03

 The electronic state is 1-A.
 Alpha  occ. eigenvalues --  -14.84502 -10.67414 -10.66555  -1.03854  -0.89098
 Alpha  occ. eigenvalues --   -0.60180  -0.53644  -0.53339  -0.44912  -0.38843
 Alpha  occ. eigenvalues --   -0.38802
 Alpha virt. eigenvalues --    0.03684   0.07363   0.07560   0.10126   0.11453
 Alpha virt. eigenvalues --    0.11491   0.15467   0.16241   0.16647   0.20115
 Alpha virt. eigenvalues --    0.20138   0.25564   0.32644   0.34362   0.34530

 Mulliken charges:
               1
     1  C   -0.080600
     2  C    0.002057
     3  N   -0.209207
     4  H    0.096433
     5  H    0.094470
     6  H    0.096847
 Sum of Mulliken charges =   0.00000

 Dipole moment (field-independent basis, Debye):
    X=              4.1389    Y=             -0.0127    Z=              0.0056  Tot=              4.1389
 Quadrupole moment (field-independent basis, Debye-Ang):
   XX=            -20.9226   YY=            -17.8033   ZZ=            -17.8435
   XY=              0.0494   XZ=              0.0004   YZ=              0.0046

 Normal termination of Gaussian 09 at Thu Aug 27 00:03:27 2020.
