 Gaussian 09, Revision D.01,
 Gaussian 09:  ES64L-G09RevD.01 24-Apr-2013

 --------------------
 #p B2PLYPD3/Def2QZVP
 --------------------

 ------------
 cyanomethane
 ------------
 Symbolic Z-matrix:
 Charge =  0 Multiplicity = 1

                         Standard orientation:
 ---------------------------------------------------------------------
 Center     Atomic      Atomic             Coordinates (Angstroms)
 Number     Number       Type             X           Y           Z
 ---------------------------------------------------------------------
      1          6           0        1.175912    0.011453    0.006076
      2          6           0       -0.277161   -0.001129   -0.020524
      3          7           0       -1.439213   -0.002773    0.006381
      4          1           0        1.539494    1.006640   -0.122578
      5          1           0        1.619584   -0.647030   -0.772385
      6          1           0        1.522907   -0.402139    0.936983
 ---------------------------------------------------------------------

 SCF Done:  E(RB2PLYPD3) =  -132.533852080     A.U. after   12 cycles
 E2(B2PLYPD3) =    -0.1811299441D+00 E(B2PLYPD3) =    -0.13271498202448D+03

 The electronic state is 1-A.
 Alpha  occ. eigenvalues --  -14.84458 -10.66971 -10.66528  -1.03846  -0.89393
 Alpha  occ. eigenvalues --   -0.60149  -0.54802  -0.53027  -0.44870  -0.39002
 Alpha  occ. eigenvalues --   -0.38778
 Alpha virt. eigenvalues --    0.03764   0.07490   0.07965   0.10169   0.11237
 Alpha virt. eigenvalues --    0.11563   0.15417   0.16273   0.16581   0.20073
 Alpha virt. eigenvalues --    0.20170   0.25439   0.32592   0.34396   0.35122

 Mulliken charges:
               1
     1  C   -0.076594
     2  C    0.000928
     3  N   -0.209686
     4  H    0.099412
     5  H    0.090300
     6  H    0.095640
 Sum of Mulliken charges =   0.00000

 Dipole moment (field-independent basis, Debye):
    X=              4.1463    Y=             -0.0097    Z=              0.0070  Tot=              4.1463
 Quadrupole moment (field-independent basis, Debye-Ang):
   XX=            -20.9038   YY=            -17.6941   ZZ=            -17.9045
   XY=             -0.0899   XZ=              0.0059   YZ=             -0.0418

 Normal termination of Gaussian 09 at Wed Aug 26 23:32:44 2020.
