 Gaussian 09, Revision D.01,
 Gaussian 09:  ES64L-G09RevD.01 24-Apr-2013

 --------------------
 #p B2PLYPD3/Def2QZVP
 --------------------

 ------------
 cyanomethane
 ------------
 Symbolic Z-matrix:
 Charge =  0 Multiplicity = 1

                         Standard orientation:
 ---------------------------------------------------------------------
 Center     Atomic      Atomic             Coordinates (Angstroms)
 Number     Number       Type             X           Y           Z
 ---------------------------------------------------------------------
      1          6           0       -1.168745    0.021256   -0.032390
      2          6           0        0.255432   -0.060312    0.017200
      3          7           0        1.427682    0.028780   -0.005030
      4          1           0       -1.514525   -0.138495    0.938287
      5          1           0       -1.500380   -0.709282   -0.538607
      6          1           0       -1.498984    0.880647   -0.273331
 ---------------------------------------------------------------------

 SCF Done:  E(RB2PLYPD3) =  -132.498770235     A.U. after   12 cycles
 E2(B2PLYPD3) =    -0.1814061541D+00 E(B2PLYPD3) =    -0.13268017638880D+03

 The electronic state is 1-A.
 Alpha  occ. eigenvalues --  -14.84694 -10.66630 -10.63451  -1.03457  -0.92552
 Alpha  occ. eigenvalues --   -0.61839  -0.58797  -0.54723  -0.44872  -0.38844
 Alpha  occ. eigenvalues --   -0.38352
 Alpha virt. eigenvalues --    0.04033   0.07943   0.08863   0.10073   0.10972
 Alpha virt. eigenvalues --    0.11547   0.15516   0.15901   0.17121   0.20167
 Alpha virt. eigenvalues --    0.20340   0.26162   0.33204   0.35097   0.36752

 Mulliken charges:
               1
     1  C   -0.052874
     2  C    0.009455
     3  N   -0.219798
     4  H    0.075989
     5  H    0.094438
     6  H    0.092790
 Sum of Mulliken charges =   0.00000

 Dipole moment (field-independent basis, Debye):
    X=             -4.1680    Y=             -0.0476    Z=              0.0501  Tot=              4.1685
 Quadrupole moment (field-independent basis, Debye-Ang):
   XX=            -20.6779   YY=            -17.5208   ZZ=            -17.7916
   XY=             -0.1020   XZ=             -0.0907   YZ=              0.0441

 Normal termination of Gaussian 09 at Wed Aug 26 19:28:32 2020.
