 Gaussian 09, Revision D.01,
 Gaussian 09:  ES64L-G09RevD.01 24-Apr-2013

 --------------------
 #p B2PLYPD3/Def2QZVP
 --------------------

 ------------
 cyanomethane
 ------------
 Symbolic Z-matrix:
 Charge =  0 Multiplicity = 1

                         Standard orientation:
 ---------------------------------------------------------------------
 Center     Atomic      Atomic             Coordinates (Angstroms)
 Number     Number       Type             X           Y           Z
 ---------------------------------------------------------------------
      1          6           0       -1.168982   -0.001673   -0.014785
      2          6           0        0.277796    0.030467   -0.003839
      3          7           0        1.439673   -0.019505    0.001127
      4          1           0       -1.532100    1.081683   -0.022046
      5          1           0       -1.566402   -0.506029    0.959729
      6          1           0       -1.632093   -0.611880   -0.833831
 ---------------------------------------------------------------------

 SCF Done:  E(RB2PLYPD3) =  -132.526431158     A.U. after   12 cycles
 E2(B2PLYPD3) =    -0.1821087037D+00 E(B2PLYPD3) =    -0.13270853986149D+03

 The electronic state is 1-A.
 Alpha  occ. eigenvalues --  -14.84538 -10.68651 -10.66613  -1.03872  -0.88263
 Alpha  occ. eigenvalues --   -0.59723  -0.53394  -0.51745  -0.44933  -0.38847
 Alpha  occ. eigenvalues --   -0.38547
 Alpha virt. eigenvalues --    0.03394   0.06651   0.07199   0.10049   0.11375
 Alpha virt. eigenvalues --    0.11798   0.15300   0.15951   0.16937   0.20022
 Alpha virt. eigenvalues --    0.20223   0.25562   0.32185   0.33017   0.34298

 Mulliken charges:
               1
     1  C   -0.097644
     2  C    0.005702
     3  N   -0.207812
     4  H    0.101862
     5  H    0.095070
     6  H    0.102821
 Sum of Mulliken charges =   0.00000

 Dipole moment (field-independent basis, Debye):
    X=             -4.1137    Y=              0.0053    Z=              0.0088  Tot=              4.1137
 Quadrupole moment (field-independent basis, Debye-Ang):
   XX=            -21.0740   YY=            -17.7052   ZZ=            -18.0214
   XY=              0.2292   XZ=              0.0022   YZ=              0.0509

 Normal termination of Gaussian 09 at Wed Aug 26 13:58:58 2020.
