 Gaussian 09, Revision D.01,
 Gaussian 09:  ES64L-G09RevD.01 24-Apr-2013

 --------------------
 #p B2PLYPD3/Def2QZVP
 --------------------

 ------------
 cyanomethane
 ------------
 Symbolic Z-matrix:
 Charge =  0 Multiplicity = 1

                         Standard orientation:
 ---------------------------------------------------------------------
 Center     Atomic      Atomic             Coordinates (Angstroms)
 Number     Number       Type             X           Y           Z
 ---------------------------------------------------------------------
      1          6           0        1.160162   -0.024979   -0.002919
      2          6           0       -0.299146    0.057485   -0.037311
      3          7           0       -1.415896   -0.017313    0.025741
      4          1           0        1.415555   -0.843888   -0.527212
      5          1           0        1.646331   -0.103455    0.965581
      6          1           0        1.683294    0.873497   -0.377177
 ---------------------------------------------------------------------

 SCF Done:  E(RB2PLYPD3) =  -132.525466700     A.U. after   12 cycles
 E2(B2PLYPD3) =    -0.1777127944D+00 E(B2PLYPD3) =    -0.13270317949394D+03

 The electronic state is 1-A.
 Alpha  occ. eigenvalues --  -14.83410 -10.66194 -10.65430  -1.05620  -0.89545
 Alpha  occ. eigenvalues --   -0.60768  -0.55599  -0.51778  -0.44844  -0.40251
 Alpha  occ. eigenvalues --   -0.39771
 Alpha virt. eigenvalues --    0.03804   0.07874   0.08968   0.10316   0.11666
 Alpha virt. eigenvalues --    0.12014   0.15568   0.16665   0.17496   0.19788
 Alpha virt. eigenvalues --    0.20083   0.25658   0.32917   0.34548   0.36068

 Mulliken charges:
               1
     1  C   -0.067877
     2  C   -0.000906
     3  N   -0.186833
     4  H    0.096289
     5  H    0.080096
     6  H    0.079231
 Sum of Mulliken charges =   0.00000

 Dipole moment (field-independent basis, Debye):
    X=              4.0814    Y=              0.0200    Z=             -0.0228  Tot=              4.0815
 Quadrupole moment (field-independent basis, Debye-Ang):
   XX=            -20.5193   YY=            -17.6049   ZZ=            -17.8814
   XY=              0.0469   XZ=              0.3100   YZ=              0.1282

 Normal termination of Gaussian 09 at Wed Aug 26 21:12:41 2020.
