 Gaussian 09, Revision D.01,
 Gaussian 09:  ES64L-G09RevD.01 24-Apr-2013

 --------------------
 #p B2PLYPD3/Def2QZVP
 --------------------

 ------------
 cyanomethane
 ------------
 Symbolic Z-matrix:
 Charge =  0 Multiplicity = 1

                         Standard orientation:
 ---------------------------------------------------------------------
 Center     Atomic      Atomic             Coordinates (Angstroms)
 Number     Number       Type             X           Y           Z
 ---------------------------------------------------------------------
      1          6           0       -1.193396   -0.013127   -0.003830
      2          6           0        0.286162    0.029644    0.002655
      3          7           0        1.437231   -0.005941   -0.000494
      4          1           0       -1.528624   -0.194012    0.977521
      5          1           0       -1.450738   -0.845168   -0.623011
      6          1           0       -1.637850    0.981661   -0.344001
 ---------------------------------------------------------------------

 SCF Done:  E(RB2PLYPD3) =  -132.531838356     A.U. after   12 cycles
 E2(B2PLYPD3) =    -0.1802322706D+00 E(B2PLYPD3) =    -0.13271207062706D+03

 The electronic state is 1-A.
 Alpha  occ. eigenvalues --  -14.84059 -10.67311 -10.66186  -1.04146  -0.89024
 Alpha  occ. eigenvalues --   -0.58981  -0.54758  -0.53291  -0.44666  -0.39226
 Alpha  occ. eigenvalues --   -0.39143
 Alpha virt. eigenvalues --    0.03715   0.07770   0.08533   0.10244   0.11321
 Alpha virt. eigenvalues --    0.11445   0.15113   0.15925   0.16507   0.20019
 Alpha virt. eigenvalues --    0.20117   0.24947   0.32150   0.34401   0.34965

 Mulliken charges:
               1
     1  C   -0.092509
     2  C   -0.003808
     3  N   -0.205092
     4  H    0.099087
     5  H    0.105056
     6  H    0.097267
 Sum of Mulliken charges =   0.00000

 Dipole moment (field-independent basis, Debye):
    X=             -4.1257    Y=             -0.0180    Z=              0.0360  Tot=              4.1259
 Quadrupole moment (field-independent basis, Debye-Ang):
   XX=            -21.1173   YY=            -17.5758   ZZ=            -17.8666
   XY=             -0.0561   XZ=             -0.0958   YZ=              0.0437

 Normal termination of Gaussian 09 at Wed Aug 26 11:09:38 2020.
