 Gaussian 09, Revision D.01,
 Gaussian 09:  ES64L-G09RevD.01 24-Apr-2013

 --------------------
 #p B2PLYPD3/Def2QZVP
 --------------------

 ------------
 cyanomethane
 ------------
 Symbolic Z-matrix:
 Charge =  0 Multiplicity = 1

                         Standard orientation:
 ---------------------------------------------------------------------
 Center     Atomic      Atomic             Coordinates (Angstroms)
 Number     Number       Type             X           Y           Z
 ---------------------------------------------------------------------
      1          6           0       -1.173615    0.018297    0.043138
      2          6           0        0.282386    0.050190    0.038764
      3          7           0        1.410214   -0.037283   -0.036030
      4          1           0       -1.706800   -0.714993   -0.826915
      5          1           0       -1.417726    0.973968   -0.272422
      6          1           0       -1.399602   -0.408912    0.860135
 ---------------------------------------------------------------------

 SCF Done:  E(RB2PLYPD3) =  -132.494418748     A.U. after   12 cycles
 E2(B2PLYPD3) =    -0.1793194259D+00 E(B2PLYPD3) =    -0.13267373817417D+03

 The electronic state is 1-A.
 Alpha  occ. eigenvalues --  -14.83569 -10.66634 -10.65446  -1.05018  -0.90343
 Alpha  occ. eigenvalues --   -0.60280  -0.58112  -0.50002  -0.44659  -0.40003
 Alpha  occ. eigenvalues --   -0.38733
 Alpha virt. eigenvalues --    0.02776   0.07103   0.09829   0.10202   0.11254
 Alpha virt. eigenvalues --    0.12035   0.15403   0.15748   0.16969   0.19891
 Alpha virt. eigenvalues --    0.20112   0.25392   0.30359   0.33830   0.36956

 Mulliken charges:
               1
     1  C   -0.105984
     2  C   -0.005711
     3  N   -0.194998
     4  H    0.075059
     5  H    0.112808
     6  H    0.118827
 Sum of Mulliken charges =   0.00000

 Dipole moment (field-independent basis, Debye):
    X=             -4.0098    Y=              0.0827    Z=              0.0681  Tot=              4.0112
 Quadrupole moment (field-independent basis, Debye-Ang):
   XX=            -21.1829   YY=            -17.5565   ZZ=            -17.7243
   XY=              0.3443   XZ=              0.3840   YZ=             -0.3456

 Normal termination of Gaussian 09 at Wed Aug 26 20:47:33 2020.
