 Gaussian 09, Revision D.01,
 Gaussian 09:  ES64L-G09RevD.01 24-Apr-2013

 --------------------
 #p B2PLYPD3/Def2QZVP
 --------------------

 ------------
 cyanomethane
 ------------
 Symbolic Z-matrix:
 Charge =  0 Multiplicity = 1

                         Standard orientation:
 ---------------------------------------------------------------------
 Center     Atomic      Atomic             Coordinates (Angstroms)
 Number     Number       Type             X           Y           Z
 ---------------------------------------------------------------------
      1          6           0        1.180402    0.007218   -0.002598
      2          6           0       -0.283113   -0.028879   -0.026081
      3          7           0       -1.435318    0.012807    0.014444
      4          1           0        1.532523    1.061505   -0.032501
      5          1           0        1.561481   -0.556936   -0.828982
      6          1           0        1.569486   -0.464252    0.932450
 ---------------------------------------------------------------------

 SCF Done:  E(RB2PLYPD3) =  -132.534176073     A.U. after   11 cycles
 E2(B2PLYPD3) =    -0.1805618237D+00 E(B2PLYPD3) =    -0.13271473789658D+03

 The electronic state is 1-A.
 Alpha  occ. eigenvalues --  -14.84193 -10.67501 -10.66264  -1.04146  -0.88860
 Alpha  occ. eigenvalues --   -0.59441  -0.54248  -0.53033  -0.44789  -0.39162
 Alpha  occ. eigenvalues --   -0.39012
 Alpha virt. eigenvalues --    0.03631   0.07534   0.08162   0.10172   0.11316
 Alpha virt. eigenvalues --    0.11589   0.15332   0.16077   0.16587   0.20013
 Alpha virt. eigenvalues --    0.20120   0.25315   0.32637   0.34106   0.34721

 Mulliken charges:
               1
     1  C   -0.088713
     2  C   -0.001056
     3  N   -0.205049
     4  H    0.100375
     5  H    0.099177
     6  H    0.095266
 Sum of Mulliken charges =   0.00000

 Dipole moment (field-independent basis, Debye):
    X=              4.1180    Y=             -0.0282    Z=             -0.0186  Tot=              4.1181
 Quadrupole moment (field-independent basis, Debye-Ang):
   XX=            -21.0391   YY=            -17.6918   ZZ=            -17.8323
   XY=              0.0153   XZ=              0.0962   YZ=              0.0328

 Normal termination of Gaussian 09 at Wed Aug 26 12:19:35 2020.
