 Gaussian 09, Revision D.01,
 Gaussian 09:  ES64L-G09RevD.01 24-Apr-2013

 --------------------
 #p B2PLYPD3/Def2QZVP
 --------------------

 ------------
 cyanomethane
 ------------
 Symbolic Z-matrix:
 Charge =  0 Multiplicity = 1

                         Standard orientation:
 ---------------------------------------------------------------------
 Center     Atomic      Atomic             Coordinates (Angstroms)
 Number     Number       Type             X           Y           Z
 ---------------------------------------------------------------------
      1          6           0       -1.177841    0.016199    0.001019
      2          6           0        0.277668   -0.006724   -0.030920
      3          7           0        1.423757    0.000493    0.015410
      4          1           0       -1.503888    1.011950   -0.059112
      5          1           0       -1.521442   -0.462888    0.942372
      6          1           0       -1.539931   -0.609361   -0.811722
 ---------------------------------------------------------------------

 SCF Done:  E(RB2PLYPD3) =  -132.534356880     A.U. after   11 cycles
 E2(B2PLYPD3) =    -0.1797394388D+00 E(B2PLYPD3) =    -0.13271409631836D+03

 The electronic state is 1-A.
 Alpha  occ. eigenvalues --  -14.83855 -10.66891 -10.65876  -1.04355  -0.89484
 Alpha  occ. eigenvalues --   -0.59204  -0.55434  -0.53324  -0.44649  -0.39323
 Alpha  occ. eigenvalues --   -0.39021
 Alpha virt. eigenvalues --    0.03771   0.07968   0.08507   0.10179   0.11346
 Alpha virt. eigenvalues --    0.11701   0.15399   0.15924   0.16420   0.20021
 Alpha virt. eigenvalues --    0.20120   0.25408   0.32889   0.33984   0.35340

 Mulliken charges:
               1
     1  C   -0.090846
     2  C   -0.004439
     3  N   -0.203596
     4  H    0.104854
     5  H    0.096424
     6  H    0.097603
 Sum of Mulliken charges =   0.00000

 Dipole moment (field-independent basis, Debye):
    X=             -4.1010    Y=             -0.0142    Z=             -0.0180  Tot=              4.1011
 Quadrupole moment (field-independent basis, Debye-Ang):
   XX=            -21.1564   YY=            -17.5550   ZZ=            -17.7665
   XY=              0.0573   XZ=             -0.0884   YZ=              0.0091

 Normal termination of Gaussian 09 at Wed Aug 26 15:16:03 2020.
