 Gaussian 09, Revision D.01,
 Gaussian 09:  ES64L-G09RevD.01 24-Apr-2013

 --------------------
 #p B2PLYPD3/Def2QZVP
 --------------------

 ------------
 cyanomethane
 ------------
 Symbolic Z-matrix:
 Charge =  0 Multiplicity = 1

                         Standard orientation:
 ---------------------------------------------------------------------
 Center     Atomic      Atomic             Coordinates (Angstroms)
 Number     Number       Type             X           Y           Z
 ---------------------------------------------------------------------
      1          6           0       -1.215878   -0.021240   -0.002868
      2          6           0        0.302881    0.077764   -0.001130
      3          7           0        1.435776   -0.036647   -0.000197
      4          1           0       -1.503248   -0.201074    0.966741
      5          1           0       -1.506311   -0.796799   -0.616859
      6          1           0       -1.562892    0.915256   -0.324516
 ---------------------------------------------------------------------

 SCF Done:  E(RB2PLYPD3) =  -132.527869394     A.U. after   12 cycles
 E2(B2PLYPD3) =    -0.1786384242D+00 E(B2PLYPD3) =    -0.13270650781856D+03

 The electronic state is 1-A.
 Alpha  occ. eigenvalues --  -14.83697 -10.66082 -10.65791  -1.04580  -0.89516
 Alpha  occ. eigenvalues --   -0.58411  -0.55349  -0.55004  -0.44532  -0.39770
 Alpha  occ. eigenvalues --   -0.39707
 Alpha virt. eigenvalues --    0.03838   0.08914   0.09337   0.10192   0.11096
 Alpha virt. eigenvalues --    0.11266   0.15120   0.15706   0.16715   0.19889
 Alpha virt. eigenvalues --    0.20058   0.24567   0.32645   0.35396   0.35635

 Mulliken charges:
               1
     1  C   -0.081306
     2  C   -0.011482
     3  N   -0.197992
     4  H    0.096376
     5  H    0.099487
     6  H    0.094917
 Sum of Mulliken charges =   0.00000

 Dipole moment (field-independent basis, Debye):
    X=             -4.1233    Y=              0.0486    Z=              0.0154  Tot=              4.1236
 Quadrupole moment (field-independent basis, Debye-Ang):
   XX=            -20.9907   YY=            -17.5630   ZZ=            -17.6920
   XY=              0.1789   XZ=             -0.0182   YZ=              0.0162

 Normal termination of Gaussian 09 at Wed Aug 26 22:52:19 2020.
