 Gaussian 09, Revision D.01,
 Gaussian 09:  ES64L-G09RevD.01 24-Apr-2013

 --------------------
 #p B2PLYPD3/Def2QZVP
 --------------------

 ------------
 cyanomethane
 ------------
 Symbolic Z-matrix:
 Charge =  0 Multiplicity = 1

                         Standard orientation:
 ---------------------------------------------------------------------
 Center     Atomic      Atomic             Coordinates (Angstroms)
 Number     Number       Type             X           Y           Z
 ---------------------------------------------------------------------
      1          6           0        1.166847   -0.013465   -0.009204
      2          6           0       -0.273268    0.020749    0.007949
      3          7           0       -1.440546   -0.007719   -0.002522
      4          1           0        1.579360   -0.129600    0.995408
      5          1           0        1.591944    0.931387   -0.371917
      6          1           0        1.551040   -0.791457   -0.598307
 ---------------------------------------------------------------------

 SCF Done:  E(RB2PLYPD3) =  -132.532578825     A.U. after   11 cycles
 E2(B2PLYPD3) =    -0.1815821847D+00 E(B2PLYPD3) =    -0.13271416100970D+03

 The electronic state is 1-A.
 Alpha  occ. eigenvalues --  -14.84672 -10.66726 -10.66644  -1.03717  -0.89694
 Alpha  occ. eigenvalues --   -0.60981  -0.54535  -0.53163  -0.44986  -0.38869
 Alpha  occ. eigenvalues --   -0.38661
 Alpha virt. eigenvalues --    0.03791   0.07415   0.07621   0.10105   0.11344
 Alpha virt. eigenvalues --    0.11509   0.15574   0.16327   0.16837   0.20135
 Alpha virt. eigenvalues --    0.20178   0.25700   0.32755   0.34372   0.35277

 Mulliken charges:
               1
     1  C   -0.065420
     2  C    0.003880
     3  N   -0.211824
     4  H    0.088823
     5  H    0.088753
     6  H    0.095788
 Sum of Mulliken charges =   0.00000

 Dipole moment (field-independent basis, Debye):
    X=              4.1589    Y=              0.0094    Z=              0.0098  Tot=              4.1590
 Quadrupole moment (field-independent basis, Debye-Ang):
   XX=            -20.7488   YY=            -17.8156   ZZ=            -17.8729
   XY=             -0.0095   XZ=              0.0170   YZ=              0.0487

 Normal termination of Gaussian 09 at Wed Aug 26 13:19:59 2020.
