 Gaussian 09, Revision D.01,
 Gaussian 09:  ES64L-G09RevD.01 24-Apr-2013

 --------------------
 #p B2PLYPD3/Def2QZVP
 --------------------

 ------------
 cyanomethane
 ------------
 Symbolic Z-matrix:
 Charge =  0 Multiplicity = 1

                         Standard orientation:
 ---------------------------------------------------------------------
 Center     Atomic      Atomic             Coordinates (Angstroms)
 Number     Number       Type             X           Y           Z
 ---------------------------------------------------------------------
      1          6           0        1.172228    0.019632   -0.003535
      2          6           0       -0.268765    0.024702   -0.003241
      3          7           0       -1.433515   -0.018434   -0.000547
      4          1           0        1.494199    1.046083   -0.000197
      5          1           0        1.590684   -0.606870   -0.872410
      6          1           0        1.528946   -0.576179    0.917089
 ---------------------------------------------------------------------

 SCF Done:  E(RB2PLYPD3) =  -132.527157223     A.U. after   12 cycles
 E2(B2PLYPD3) =    -0.1820239894D+00 E(B2PLYPD3) =    -0.13270918121254D+03

 The electronic state is 1-A.
 Alpha  occ. eigenvalues --  -14.84422 -10.68120 -10.66459  -1.03680  -0.88926
 Alpha  occ. eigenvalues --   -0.59178  -0.55197  -0.51765  -0.44779  -0.38808
 Alpha  occ. eigenvalues --   -0.38300
 Alpha virt. eigenvalues --    0.03461   0.06668   0.07831   0.10098   0.11117
 Alpha virt. eigenvalues --    0.11869   0.15250   0.15885   0.16386   0.20023
 Alpha virt. eigenvalues --    0.20269   0.25566   0.32358   0.32869   0.34842

 Mulliken charges:
               1
     1  C   -0.099999
     2  C    0.002086
     3  N   -0.211292
     4  H    0.111678
     5  H    0.099105
     6  H    0.098422
 Sum of Mulliken charges =   0.00000

 Dipole moment (field-independent basis, Debye):
    X=              4.1142    Y=             -0.0051    Z=              0.0088  Tot=              4.1142
 Quadrupole moment (field-independent basis, Debye-Ang):
   XX=            -21.2680   YY=            -17.5315   ZZ=            -18.0103
   XY=             -0.2412   XZ=             -0.0279   YZ=              0.0052

 Normal termination of Gaussian 09 at Wed Aug 26 10:54:54 2020.
