 Gaussian 09, Revision D.01,
 Gaussian 09:  ES64L-G09RevD.01 24-Apr-2013

 --------------------
 #p B2PLYPD3/Def2QZVP
 --------------------

 ------------
 cyanomethane
 ------------
 Symbolic Z-matrix:
 Charge =  0 Multiplicity = 1

                         Standard orientation:
 ---------------------------------------------------------------------
 Center     Atomic      Atomic             Coordinates (Angstroms)
 Number     Number       Type             X           Y           Z
 ---------------------------------------------------------------------
      1          6           0        1.168654   -0.036779   -0.003287
      2          6           0       -0.275596    0.026188   -0.025596
      3          7           0       -1.457847   -0.006486    0.016930
      4          1           0        1.649189    0.971798   -0.130638
      5          1           0        1.553766   -0.562182   -0.714171
      6          1           0        1.643628   -0.300663    0.899593
 ---------------------------------------------------------------------

 SCF Done:  E(RB2PLYPD3) =  -132.513254420     A.U. after   12 cycles
 E2(B2PLYPD3) =    -0.1830063663D+00 E(B2PLYPD3) =    -0.13269626078661D+03

 The electronic state is 1-A.
 Alpha  occ. eigenvalues --  -14.85349 -10.67469 -10.65713  -1.03247  -0.90496
 Alpha  occ. eigenvalues --   -0.62732  -0.56089  -0.51735  -0.45267  -0.38886
 Alpha  occ. eigenvalues --   -0.38280
 Alpha virt. eigenvalues --    0.03723   0.06615   0.07781   0.10037   0.11004
 Alpha virt. eigenvalues --    0.11672   0.15618   0.16420   0.17719   0.20174
 Alpha virt. eigenvalues --    0.20434   0.25639   0.32287   0.34180   0.36090

 Mulliken charges:
               1
     1  C   -0.042709
     2  C    0.015798
     3  N   -0.217763
     4  H    0.069407
     5  H    0.093043
     6  H    0.082224
 Sum of Mulliken charges =   0.00000

 Dipole moment (field-independent basis, Debye):
    X=              4.2066    Y=              0.0207    Z=             -0.0158  Tot=              4.2066
 Quadrupole moment (field-independent basis, Debye-Ang):
   XX=            -20.2956   YY=            -18.0754   ZZ=            -17.9127
   XY=              0.0679   XZ=              0.1547   YZ=              0.1159

 Normal termination of Gaussian 09 at Wed Aug 26 18:37:08 2020.
