 Gaussian 09, Revision D.01,
 Gaussian 09:  ES64L-G09RevD.01 24-Apr-2013

 --------------------
 #p B2PLYPD3/Def2QZVP
 --------------------

 ------------
 cyanomethane
 ------------
 Symbolic Z-matrix:
 Charge =  0 Multiplicity = 1

                         Standard orientation:
 ---------------------------------------------------------------------
 Center     Atomic      Atomic             Coordinates (Angstroms)
 Number     Number       Type             X           Y           Z
 ---------------------------------------------------------------------
      1          6           0        1.182865    0.001153   -0.003459
      2          6           0       -0.275264   -0.016160    0.018013
      3          7           0       -1.437596    0.008629   -0.006857
      4          1           0        1.516229   -0.754790   -0.702726
      5          1           0        1.567397   -0.205271    0.991481
      6          1           0        1.533934    0.989701   -0.328082
 ---------------------------------------------------------------------

 SCF Done:  E(RB2PLYPD3) =  -132.534710734     A.U. after   12 cycles
 E2(B2PLYPD3) =    -0.1811678596D+00 E(B2PLYPD3) =    -0.13271587859318D+03

 The electronic state is 1-A.
 Alpha  occ. eigenvalues --  -14.84376 -10.67176 -10.66451  -1.03752  -0.89285
 Alpha  occ. eigenvalues --   -0.59455  -0.54349  -0.53876  -0.44761  -0.38860
 Alpha  occ. eigenvalues --   -0.38811
 Alpha virt. eigenvalues --    0.03736   0.07709   0.07970   0.10167   0.11284
 Alpha virt. eigenvalues --    0.11400   0.15338   0.16050   0.16274   0.20114
 Alpha virt. eigenvalues --    0.20147   0.25330   0.32622   0.34454   0.34705

 Mulliken charges:
               1
     1  C   -0.088058
     2  C   -0.000870
     3  N   -0.210533
     4  H    0.100975
     5  H    0.098894
     6  H    0.099592
 Sum of Mulliken charges =   0.00000

 Dipole moment (field-independent basis, Debye):
    X=              4.1353    Y=             -0.0110    Z=              0.0063  Tot=              4.1353
 Quadrupole moment (field-independent basis, Debye-Ang):
   XX=            -21.1025   YY=            -17.7509   ZZ=            -17.7479
   XY=              0.0540   XZ=             -0.0033   YZ=              0.0148

 Normal termination of Gaussian 09 at Wed Aug 26 09:59:51 2020.
