 Gaussian 09, Revision D.01,
 Gaussian 09:  ES64L-G09RevD.01 24-Apr-2013

 --------------------
 #p B2PLYPD3/Def2QZVP
 --------------------

 ------------
 cyanomethane
 ------------
 Symbolic Z-matrix:
 Charge =  0 Multiplicity = 1

                         Standard orientation:
 ---------------------------------------------------------------------
 Center     Atomic      Atomic             Coordinates (Angstroms)
 Number     Number       Type             X           Y           Z
 ---------------------------------------------------------------------
      1          6           0       -1.173735    0.010169    0.002108
      2          6           0        0.274080   -0.027693    0.004213
      3          7           0        1.437210    0.012862   -0.002093
      4          1           0       -1.559093   -0.032453    1.022003
      5          1           0       -1.557768   -0.883321   -0.555042
      6          1           0       -1.545676    0.930886   -0.490235
 ---------------------------------------------------------------------

 SCF Done:  E(RB2PLYPD3) =  -132.533437616     A.U. after   11 cycles
 E2(B2PLYPD3) =    -0.1815249973D+00 E(B2PLYPD3) =    -0.13271496261340D+03

 The electronic state is 1-A.
 Alpha  occ. eigenvalues --  -14.84466 -10.67589 -10.66516  -1.03777  -0.89026
 Alpha  occ. eigenvalues --   -0.59741  -0.53803  -0.53368  -0.44848  -0.38805
 Alpha  occ. eigenvalues --   -0.38713
 Alpha virt. eigenvalues --    0.03644   0.07362   0.07594   0.10117   0.11417
 Alpha virt. eigenvalues --    0.11469   0.15410   0.16014   0.16531   0.20119
 Alpha virt. eigenvalues --    0.20139   0.25550   0.32549   0.34108   0.34524

 Mulliken charges:
               1
     1  C   -0.088758
     2  C    0.001602
     3  N   -0.210045
     4  H    0.099560
     5  H    0.096839
     6  H    0.100802
 Sum of Mulliken charges =   0.00000

 Dipole moment (field-independent basis, Debye):
    X=             -4.1286    Y=             -0.0172    Z=              0.0093  Tot=              4.1287
 Quadrupole moment (field-independent basis, Debye-Ang):
   XX=            -21.0635   YY=            -17.7684   ZZ=            -17.8156
   XY=             -0.0574   XZ=             -0.0097   YZ=             -0.0165

 Normal termination of Gaussian 09 at Wed Aug 26 22:23:16 2020.
