 Gaussian 09, Revision D.01,
 Gaussian 09:  ES64L-G09RevD.01 24-Apr-2013

 --------------------
 #p B2PLYPD3/Def2QZVP
 --------------------

 ------------
 cyanomethane
 ------------
 Symbolic Z-matrix:
 Charge =  0 Multiplicity = 1

                         Standard orientation:
 ---------------------------------------------------------------------
 Center     Atomic      Atomic             Coordinates (Angstroms)
 Number     Number       Type             X           Y           Z
 ---------------------------------------------------------------------
      1          6           0        1.164695   -0.008420   -0.012606
      2          6           0       -0.279440    0.023170    0.032343
      3          7           0       -1.425863   -0.009905   -0.018236
      4          1           0        1.583422    1.017900   -0.291284
      5          1           0        1.567556   -0.777751   -0.709879
      6          1           0        1.518532   -0.259314    1.010389
 ---------------------------------------------------------------------

 SCF Done:  E(RB2PLYPD3) =  -132.532192412     A.U. after   12 cycles
 E2(B2PLYPD3) =    -0.1804304036D+00 E(B2PLYPD3) =    -0.13271262281516D+03

 The electronic state is 1-A.
 Alpha  occ. eigenvalues --  -14.84033 -10.67941 -10.66037  -1.04434  -0.88693
 Alpha  occ. eigenvalues --   -0.59531  -0.53295  -0.53047  -0.44816  -0.39129
 Alpha  occ. eigenvalues --   -0.39016
 Alpha virt. eigenvalues --    0.03558   0.07265   0.07777   0.10099   0.11683
 Alpha virt. eigenvalues --    0.11709   0.15478   0.15800   0.16979   0.20054
 Alpha virt. eigenvalues --    0.20074   0.25700   0.32616   0.33810   0.34393

 Mulliken charges:
               1
     1  C   -0.095852
     2  C    0.000962
     3  N   -0.201827
     4  H    0.097478
     5  H    0.101673
     6  H    0.097565
 Sum of Mulliken charges =   0.00000

 Dipole moment (field-independent basis, Debye):
    X=              4.0874    Y=              0.0008    Z=              0.0429  Tot=              4.0876
 Quadrupole moment (field-independent basis, Debye-Ang):
   XX=            -21.0841   YY=            -17.7016   ZZ=            -17.8119
   XY=             -0.0635   XZ=             -0.1096   YZ=              0.0134

 Normal termination of Gaussian 09 at Wed Aug 26 14:25:21 2020.
