 Gaussian 09, Revision D.01,
 Gaussian 09:  ES64L-G09RevD.01 24-Apr-2013

 --------------------
 #p B2PLYPD3/Def2QZVP
 --------------------

 ------------
 cyanomethane
 ------------
 Symbolic Z-matrix:
 Charge =  0 Multiplicity = 1

                         Standard orientation:
 ---------------------------------------------------------------------
 Center     Atomic      Atomic             Coordinates (Angstroms)
 Number     Number       Type             X           Y           Z
 ---------------------------------------------------------------------
      1          6           0        1.154553   -0.016624    0.036339
      2          6           0       -0.283910   -0.042079    0.012934
      3          7           0       -1.433783    0.035466   -0.019698
      4          1           0        1.800114    0.892222   -0.544592
      5          1           0        1.527292   -0.853710   -0.513908
      6          1           0        1.485224    0.065444    0.900750
 ---------------------------------------------------------------------

 SCF Done:  E(RB2PLYPD3) =  -132.494493525     A.U. after   12 cycles
 E2(B2PLYPD3) =    -0.1809706887D+00 E(B2PLYPD3) =    -0.13267546421350D+03

 The electronic state is 1-A.
 Alpha  occ. eigenvalues --  -14.84504 -10.66528 -10.66441  -1.04510  -0.90261
 Alpha  occ. eigenvalues --   -0.61891  -0.57034  -0.49770  -0.45148  -0.39648
 Alpha  occ. eigenvalues --   -0.38524
 Alpha virt. eigenvalues --    0.02640   0.06501   0.08976   0.10100   0.11025
 Alpha virt. eigenvalues --    0.12110   0.15671   0.16431   0.17647   0.19877
 Alpha virt. eigenvalues --    0.20480   0.25759   0.30571   0.33663   0.36078

 Mulliken charges:
               1
     1  C   -0.087228
     2  C    0.009016
     3  N   -0.202497
     4  H    0.072110
     5  H    0.093971
     6  H    0.114629
 Sum of Mulliken charges =   0.00000

 Dipole moment (field-independent basis, Debye):
    X=              4.0954    Y=             -0.1150    Z=              0.0605  Tot=              4.0975
 Quadrupole moment (field-independent basis, Debye-Ang):
   XX=            -20.5023   YY=            -18.0050   ZZ=            -17.8062
   XY=              0.2636   XZ=             -0.1950   YZ=              0.2056

 Normal termination of Gaussian 09 at Wed Aug 26 22:23:31 2020.
