 Gaussian 09, Revision D.01,
 Gaussian 09:  ES64L-G09RevD.01 24-Apr-2013

 --------------------
 #p B2PLYPD3/Def2QZVP
 --------------------

 ------------
 cyanomethane
 ------------
 Symbolic Z-matrix:
 Charge =  0 Multiplicity = 1

                         Standard orientation:
 ---------------------------------------------------------------------
 Center     Atomic      Atomic             Coordinates (Angstroms)
 Number     Number       Type             X           Y           Z
 ---------------------------------------------------------------------
      1          6           0       -1.179310   -0.008369   -0.021695
      2          6           0        0.249892   -0.075094    0.018951
      3          7           0        1.438878    0.039553   -0.004052
      4          1           0       -1.550093    0.066762    0.969793
      5          1           0       -1.467192   -0.824362   -0.471619
      6          1           0       -1.478358    0.981507   -0.453342
 ---------------------------------------------------------------------

 SCF Done:  E(RB2PLYPD3) =  -132.513797122     A.U. after   12 cycles
 E2(B2PLYPD3) =    -0.1838820918D+00 E(B2PLYPD3) =    -0.13269767921420D+03

 The electronic state is 1-A.
 Alpha  occ. eigenvalues --  -14.85138 -10.67127 -10.65873  -1.02632  -0.90931
 Alpha  occ. eigenvalues --   -0.60083  -0.57990  -0.53037  -0.44814  -0.38225
 Alpha  occ. eigenvalues --   -0.37698
 Alpha virt. eigenvalues --    0.03460   0.06895   0.08363   0.09976   0.10576
 Alpha virt. eigenvalues --    0.11509   0.15083   0.15914   0.16227   0.20122
 Alpha virt. eigenvalues --    0.20425   0.25980   0.32871   0.33428   0.35801

 Mulliken charges:
               1
     1  C   -0.081310
     2  C    0.004835
     3  N   -0.226437
     4  H    0.092113
     5  H    0.109430
     6  H    0.101369
 Sum of Mulliken charges =   0.00000

 Dipole moment (field-independent basis, Debye):
    X=             -4.1606    Y=             -0.0132    Z=              0.0543  Tot=              4.1610
 Quadrupole moment (field-independent basis, Debye-Ang):
   XX=            -21.1451   YY=            -17.5031   ZZ=            -17.9947
   XY=             -0.2447   XZ=             -0.1630   YZ=              0.1289

 Normal termination of Gaussian 09 at Wed Aug 26 23:35:42 2020.
