 Gaussian 09, Revision D.01,
 Gaussian 09:  ES64L-G09RevD.01 24-Apr-2013

 --------------------
 #p B2PLYPD3/Def2QZVP
 --------------------

 ------------
 cyanomethane
 ------------
 Symbolic Z-matrix:
 Charge =  0 Multiplicity = 1

                         Standard orientation:
 ---------------------------------------------------------------------
 Center     Atomic      Atomic             Coordinates (Angstroms)
 Number     Number       Type             X           Y           Z
 ---------------------------------------------------------------------
      1          6           0       -1.177810    0.011577    0.000380
      2          6           0        0.286892   -0.012384   -0.016785
      3          7           0        1.437633    0.004028    0.008765
      4          1           0       -1.558325    0.948387   -0.434737
      5          1           0       -1.572947   -0.096972    1.058765
      6          1           0       -1.586651   -0.874771   -0.586951
 ---------------------------------------------------------------------

 SCF Done:  E(RB2PLYPD3) =  -132.532295731     A.U. after   12 cycles
 E2(B2PLYPD3) =    -0.1806956499D+00 E(B2PLYPD3) =    -0.13271299138096D+03

 The electronic state is 1-A.
 Alpha  occ. eigenvalues --  -14.84184 -10.68249 -10.66283  -1.04278  -0.88255
 Alpha  occ. eigenvalues --   -0.59338  -0.53524  -0.52405  -0.44832  -0.39213
 Alpha  occ. eigenvalues --   -0.39027
 Alpha virt. eigenvalues --    0.03542   0.07341   0.07690   0.10171   0.11464
 Alpha virt. eigenvalues --    0.11663   0.15294   0.16235   0.16617   0.20020
 Alpha virt. eigenvalues --    0.20079   0.25242   0.32308   0.33693   0.34493

 Mulliken charges:
               1
     1  C   -0.094617
     2  C    0.000418
     3  N   -0.202523
     4  H    0.102673
     5  H    0.097888
     6  H    0.096160
 Sum of Mulliken charges =   0.00000

 Dipole moment (field-independent basis, Debye):
    X=             -4.1110    Y=             -0.0056    Z=             -0.0089  Tot=              4.1110
 Quadrupole moment (field-independent basis, Debye-Ang):
   XX=            -21.0469   YY=            -17.7670   ZZ=            -17.8422
   XY=              0.0029   XZ=             -0.0602   YZ=             -0.0383

 Normal termination of Gaussian 09 at Wed Aug 26 21:17:16 2020.
