 Gaussian 09, Revision D.01,
 Gaussian 09:  ES64L-G09RevD.01 24-Apr-2013

 --------------------
 #p B2PLYPD3/Def2QZVP
 --------------------

 ------------
 cyanomethane
 ------------
 Symbolic Z-matrix:
 Charge =  0 Multiplicity = 1

                         Standard orientation:
 ---------------------------------------------------------------------
 Center     Atomic      Atomic             Coordinates (Angstroms)
 Number     Number       Type             X           Y           Z
 ---------------------------------------------------------------------
      1          6           0       -1.159583   -0.023683    0.022050
      2          6           0        0.292688    0.047412   -0.011388
      3          7           0        1.419043   -0.008384    0.005983
      4          1           0       -1.568254   -0.280319    0.925777
      5          1           0       -1.419517   -0.805250   -0.719266
      6          1           0       -1.744163    1.001876   -0.312366
 ---------------------------------------------------------------------

 SCF Done:  E(RB2PLYPD3) =  -132.520999894     A.U. after   12 cycles
 E2(B2PLYPD3) =    -0.1788712892D+00 E(B2PLYPD3) =    -0.13269987118352D+03

 The electronic state is 1-A.
 Alpha  occ. eigenvalues --  -14.83573 -10.67789 -10.65628  -1.05337  -0.88711
 Alpha  occ. eigenvalues --   -0.60381  -0.54038  -0.51364  -0.44837  -0.39849
 Alpha  occ. eigenvalues --   -0.39429
 Alpha virt. eigenvalues --    0.03483   0.06908   0.08534   0.10204   0.11762
 Alpha virt. eigenvalues --    0.12163   0.15396   0.16276   0.17362   0.19950
 Alpha virt. eigenvalues --    0.19995   0.25575   0.31115   0.34079   0.35013

 Mulliken charges:
               1
     1  C   -0.093554
     2  C    0.001420
     3  N   -0.190363
     4  H    0.101565
     5  H    0.097532
     6  H    0.083399
 Sum of Mulliken charges =   0.00000

 Dipole moment (field-independent basis, Debye):
    X=             -4.0507    Y=             -0.0536    Z=              0.0146  Tot=              4.0511
 Quadrupole moment (field-independent basis, Debye-Ang):
   XX=            -20.8826   YY=            -17.7267   ZZ=            -17.8077
   XY=             -0.0323   XZ=             -0.1334   YZ=              0.0361

 Normal termination of Gaussian 09 at Wed Aug 26 21:41:34 2020.
