 Gaussian 09, Revision D.01,
 Gaussian 09:  ES64L-G09RevD.01 24-Apr-2013

 --------------------
 #p B2PLYPD3/Def2QZVP
 --------------------

 ------------
 cyanomethane
 ------------
 Symbolic Z-matrix:
 Charge =  0 Multiplicity = 1

                         Standard orientation:
 ---------------------------------------------------------------------
 Center     Atomic      Atomic             Coordinates (Angstroms)
 Number     Number       Type             X           Y           Z
 ---------------------------------------------------------------------
      1          6           0       -1.193994    0.017257   -0.000265
      2          6           0        0.272711   -0.004592    0.036448
      3          7           0        1.440675   -0.002849   -0.015982
      4          1           0       -1.464164    1.002246   -0.252882
      5          1           0       -1.570695   -0.338420    0.944953
      6          1           0       -1.522165   -0.719878   -0.797293
 ---------------------------------------------------------------------

 SCF Done:  E(RB2PLYPD3) =  -132.530559555     A.U. after   12 cycles
 E2(B2PLYPD3) =    -0.1817657362D+00 E(B2PLYPD3) =    -0.13271232529098D+03

 The electronic state is 1-A.
 Alpha  occ. eigenvalues --  -14.84473 -10.67304 -10.66580  -1.03438  -0.89320
 Alpha  occ. eigenvalues --   -0.58855  -0.55715  -0.53126  -0.44670  -0.38808
 Alpha  occ. eigenvalues --   -0.38507
 Alpha virt. eigenvalues --    0.03652   0.07549   0.08219   0.10170   0.10996
 Alpha virt. eigenvalues --    0.11396   0.15149   0.15847   0.15990   0.20107
 Alpha virt. eigenvalues --    0.20209   0.25155   0.32353   0.33600   0.35352

 Mulliken charges:
               1
     1  C   -0.096034
     2  C   -0.001092
     3  N   -0.214293
     4  H    0.109921
     5  H    0.102807
     6  H    0.098692
 Sum of Mulliken charges =   0.00000

 Dipole moment (field-independent basis, Debye):
    X=             -4.1368    Y=             -0.0046    Z=              0.0184  Tot=              4.1368
 Quadrupole moment (field-independent basis, Debye-Ang):
   XX=            -21.2729   YY=            -17.6588   ZZ=            -17.8024
   XY=              0.1081   XZ=              0.0353   YZ=             -0.0723

 Normal termination of Gaussian 09 at Wed Aug 26 13:53:48 2020.
