 Gaussian 09, Revision D.01,
 Gaussian 09:  ES64L-G09RevD.01 24-Apr-2013

 --------------------
 #p B2PLYPD3/Def2QZVP
 --------------------

 ------------
 cyanomethane
 ------------
 Symbolic Z-matrix:
 Charge =  0 Multiplicity = 1

                         Standard orientation:
 ---------------------------------------------------------------------
 Center     Atomic      Atomic             Coordinates (Angstroms)
 Number     Number       Type             X           Y           Z
 ---------------------------------------------------------------------
      1          6           0       -1.186293   -0.030167    0.032504
      2          6           0        0.309284   -0.002396   -0.075528
      3          7           0        1.439272    0.002959    0.034011
      4          1           0       -1.577626    1.072378    0.014694
      5          1           0       -1.580360   -0.454535    0.817638
      6          1           0       -1.654863   -0.443178   -0.812272
 ---------------------------------------------------------------------

 SCF Done:  E(RB2PLYPD3) =  -132.517648265     A.U. after   12 cycles
 E2(B2PLYPD3) =    -0.1789635448D+00 E(B2PLYPD3) =    -0.13269661181015D+03

 The electronic state is 1-A.
 Alpha  occ. eigenvalues --  -14.83985 -10.66633 -10.66162  -1.05043  -0.89073
 Alpha  occ. eigenvalues --   -0.61038  -0.54969  -0.51522  -0.44971  -0.40144
 Alpha  occ. eigenvalues --   -0.39587
 Alpha virt. eigenvalues --    0.03613   0.07929   0.08537   0.10166   0.11386
 Alpha virt. eigenvalues --    0.11740   0.15335   0.16297   0.17840   0.19925
 Alpha virt. eigenvalues --    0.20067   0.25072   0.32173   0.33433   0.36046

 Mulliken charges:
               1
     1  C   -0.067076
     2  C    0.006435
     3  N   -0.194164
     4  H    0.076766
     5  H    0.095954
     6  H    0.082085
 Sum of Mulliken charges =   0.00000

 Dipole moment (field-independent basis, Debye):
    X=             -4.1018    Y=             -0.0272    Z=             -0.0665  Tot=              4.1024
 Quadrupole moment (field-independent basis, Debye-Ang):
   XX=            -20.5355   YY=            -17.8184   ZZ=            -17.8383
   XY=              0.0391   XZ=             -0.1214   YZ=             -0.0735

 Normal termination of Gaussian 09 at Wed Aug 26 22:59:54 2020.
