 Gaussian 09, Revision D.01,
 Gaussian 09:  ES64L-G09RevD.01 24-Apr-2013

 --------------------
 #p B2PLYPD3/Def2QZVP
 --------------------

 ------------
 cyanomethane
 ------------
 Symbolic Z-matrix:
 Charge =  0 Multiplicity = 1

                         Standard orientation:
 ---------------------------------------------------------------------
 Center     Atomic      Atomic             Coordinates (Angstroms)
 Number     Number       Type             X           Y           Z
 ---------------------------------------------------------------------
      1          6           0       -1.174374    0.009204    0.009814
      2          6           0        0.301656    0.044085    0.032208
      3          7           0        1.443443   -0.031604   -0.032194
      4          1           0       -1.824381   -0.704450   -0.832624
      5          1           0       -1.560493    1.059909   -0.156486
      6          1           0       -1.482921   -0.453961    0.962339
 ---------------------------------------------------------------------

 SCF Done:  E(RB2PLYPD3) =  -132.509432206     A.U. after   13 cycles
 E2(B2PLYPD3) =    -0.1815200055D+00 E(B2PLYPD3) =    -0.13269095221126D+03

 The electronic state is 1-A.
 Alpha  occ. eigenvalues --  -14.84324 -10.69557 -10.66445  -1.04666  -0.87299
 Alpha  occ. eigenvalues --   -0.58947  -0.54107  -0.49245  -0.45027  -0.39572
 Alpha  occ. eigenvalues --   -0.38793
 Alpha virt. eigenvalues --    0.02429   0.05875   0.08137   0.10119   0.11277
 Alpha virt. eigenvalues --    0.12015   0.15285   0.15835   0.17607   0.19858
 Alpha virt. eigenvalues --    0.20450   0.25234   0.30097   0.32759   0.34571

 Mulliken charges:
               1
     1  C   -0.106229
     2  C    0.006113
     3  N   -0.195433
     4  H    0.088089
     5  H    0.103191
     6  H    0.104268
 Sum of Mulliken charges =   0.00000

 Dipole moment (field-independent basis, Debye):
    X=             -4.0735    Y=              0.0565    Z=              0.1066  Tot=              4.0752
 Quadrupole moment (field-independent basis, Debye-Ang):
   XX=            -20.8721   YY=            -17.8044   ZZ=            -18.1191
   XY=              0.2937   XZ=              0.3008   YZ=             -0.1994

 Normal termination of Gaussian 09 at Wed Aug 26 23:01:51 2020.
