 Gaussian 09, Revision D.01,
 Gaussian 09:  ES64L-G09RevD.01 24-Apr-2013

 --------------------
 #p B2PLYPD3/Def2QZVP
 --------------------

 ------------
 cyanomethane
 ------------
 Symbolic Z-matrix:
 Charge =  0 Multiplicity = 1

                         Standard orientation:
 ---------------------------------------------------------------------
 Center     Atomic      Atomic             Coordinates (Angstroms)
 Number     Number       Type             X           Y           Z
 ---------------------------------------------------------------------
      1          6           0        1.171740   -0.008460    0.006533
      2          6           0       -0.286013    0.011905   -0.022244
      3          7           0       -1.433068   -0.006400    0.013024
      4          1           0        1.602425   -0.227446    0.986171
      5          1           0        1.550617    0.989232   -0.288591
      6          1           0        1.564077   -0.737656   -0.694481
 ---------------------------------------------------------------------

 SCF Done:  E(RB2PLYPD3) =  -132.535081991     A.U. after   12 cycles
 E2(B2PLYPD3) =    -0.1800256075D+00 E(B2PLYPD3) =    -0.13271510759833D+03

 The electronic state is 1-A.
 Alpha  occ. eigenvalues --  -14.84101 -10.67236 -10.66165  -1.04451  -0.88977
 Alpha  occ. eigenvalues --   -0.60127  -0.53739  -0.53179  -0.44863  -0.39319
 Alpha  occ. eigenvalues --   -0.39205
 Alpha virt. eigenvalues --    0.03724   0.07687   0.08038   0.10153   0.11523
 Alpha virt. eigenvalues --    0.11629   0.15476   0.16178   0.17032   0.20025
 Alpha virt. eigenvalues --    0.20088   0.25417   0.32785   0.34345   0.34880

 Mulliken charges:
               1
     1  C   -0.078996
     2  C   -0.000097
     3  N   -0.201729
     4  H    0.094242
     5  H    0.091797
     6  H    0.094784
 Sum of Mulliken charges =   0.00000

 Dipole moment (field-independent basis, Debye):
    X=              4.1193    Y=              0.0110    Z=             -0.0199  Tot=              4.1194
 Quadrupole moment (field-independent basis, Debye-Ang):
   XX=            -20.8531   YY=            -17.7742   ZZ=            -17.8003
   XY=             -0.0490   XZ=              0.1068   YZ=              0.0199

 Normal termination of Gaussian 09 at Wed Aug 26 09:35:25 2020.
