 Gaussian 09, Revision D.01,
 Gaussian 09:  ES64L-G09RevD.01 24-Apr-2013

 --------------------
 #p B2PLYPD3/Def2QZVP
 --------------------

 ------------
 cyanomethane
 ------------
 Symbolic Z-matrix:
 Charge =  0 Multiplicity = 1

                         Standard orientation:
 ---------------------------------------------------------------------
 Center     Atomic      Atomic             Coordinates (Angstroms)
 Number     Number       Type             X           Y           Z
 ---------------------------------------------------------------------
      1          6           0       -1.173639    0.002441    0.007183
      2          6           0        0.276913    0.009552   -0.024386
      3          7           0        1.441424   -0.006074    0.009195
      4          1           0       -1.604275   -0.753500   -0.704631
      5          1           0       -1.570188    0.989642   -0.264333
      6          1           0       -1.535148   -0.265584    1.007819
 ---------------------------------------------------------------------

 SCF Done:  E(RB2PLYPD3) =  -132.533270207     A.U. after   12 cycles
 E2(B2PLYPD3) =    -0.1816564716D+00 E(B2PLYPD3) =    -0.13271492667890D+03

 The electronic state is 1-A.
 Alpha  occ. eigenvalues --  -14.84573 -10.67596 -10.66643  -1.03761  -0.88940
 Alpha  occ. eigenvalues --   -0.60018  -0.53810  -0.53005  -0.44915  -0.38831
 Alpha  occ. eigenvalues --   -0.38737
 Alpha virt. eigenvalues --    0.03646   0.07240   0.07544   0.10132   0.11352
 Alpha virt. eigenvalues --    0.11513   0.15411   0.16358   0.16459   0.20098
 Alpha virt. eigenvalues --    0.20151   0.25499   0.32475   0.34214   0.34576

 Mulliken charges:
               1
     1  C   -0.083092
     2  C    0.002497
     3  N   -0.209948
     4  H    0.094157
     5  H    0.097769
     6  H    0.098618
 Sum of Mulliken charges =   0.00000

 Dipole moment (field-independent basis, Debye):
    X=             -4.1394    Y=              0.0062    Z=             -0.0021  Tot=              4.1394
 Quadrupole moment (field-independent basis, Debye-Ang):
   XX=            -20.9508   YY=            -17.8105   ZZ=            -17.8594
   XY=              0.0538   XZ=             -0.0226   YZ=             -0.0273

 Normal termination of Gaussian 09 at Wed Aug 26 21:58:47 2020.
