 Gaussian 09, Revision D.01,
 Gaussian 09:  ES64L-G09RevD.01 24-Apr-2013

 --------------------
 #p B2PLYPD3/Def2QZVP
 --------------------

 ------------
 cyanomethane
 ------------
 Symbolic Z-matrix:
 Charge =  0 Multiplicity = 1

                         Standard orientation:
 ---------------------------------------------------------------------
 Center     Atomic      Atomic             Coordinates (Angstroms)
 Number     Number       Type             X           Y           Z
 ---------------------------------------------------------------------
      1          6           0        1.182560    0.011959   -0.010995
      2          6           0       -0.272251    0.031136    0.014555
      3          7           0       -1.438622   -0.013955   -0.005415
      4          1           0        1.545680   -0.164204    0.995763
      5          1           0        1.573357    0.886034   -0.397638
      6          1           0        1.489460   -0.882713   -0.581582
 ---------------------------------------------------------------------

 SCF Done:  E(RB2PLYPD3) =  -132.531598633     A.U. after   12 cycles
 E2(B2PLYPD3) =    -0.1814309463D+00 E(B2PLYPD3) =    -0.13271302957977D+03

 The electronic state is 1-A.
 Alpha  occ. eigenvalues --  -14.84499 -10.66705 -10.66577  -1.03591  -0.89724
 Alpha  occ. eigenvalues --   -0.59945  -0.55581  -0.53256  -0.44789  -0.38921
 Alpha  occ. eigenvalues --   -0.38545
 Alpha virt. eigenvalues --    0.03749   0.07647   0.08164   0.10167   0.11016
 Alpha virt. eigenvalues --    0.11552   0.15353   0.15891   0.16547   0.20078
 Alpha virt. eigenvalues --    0.20228   0.25395   0.32707   0.33938   0.35456

 Mulliken charges:
               1
     1  C   -0.080611
     2  C    0.000607
     3  N   -0.213220
     4  H    0.093839
     5  H    0.102374
     6  H    0.097011
 Sum of Mulliken charges =   0.00000

 Dipole moment (field-independent basis, Debye):
    X=              4.1501    Y=             -0.0031    Z=              0.0232  Tot=              4.1501
 Quadrupole moment (field-independent basis, Debye-Ang):
   XX=            -21.0287   YY=            -17.6415   ZZ=            -17.8735
   XY=             -0.0625   XZ=              0.0299   YZ=             -0.0594

 Normal termination of Gaussian 09 at Wed Aug 26 14:01:21 2020.
