 Gaussian 09, Revision D.01,
 Gaussian 09:  ES64L-G09RevD.01 24-Apr-2013

 --------------------
 #p B2PLYPD3/Def2QZVP
 --------------------

 ------------
 cyanomethane
 ------------
 Symbolic Z-matrix:
 Charge =  0 Multiplicity = 1

                         Standard orientation:
 ---------------------------------------------------------------------
 Center     Atomic      Atomic             Coordinates (Angstroms)
 Number     Number       Type             X           Y           Z
 ---------------------------------------------------------------------
      1          6           0       -1.166973   -0.015904    0.003279
      2          6           0        0.263320    0.036832   -0.004307
      3          7           0        1.431755   -0.018556   -0.000946
      4          1           0       -1.523501    1.003359   -0.123616
      5          1           0       -1.502762   -0.386057    0.920091
      6          1           0       -1.574098   -0.612978   -0.783685
 ---------------------------------------------------------------------

 SCF Done:  E(RB2PLYPD3) =  -132.531653547     A.U. after   12 cycles
 E2(B2PLYPD3) =    -0.1815612225D+00 E(B2PLYPD3) =    -0.13271321476977D+03

 The electronic state is 1-A.
 Alpha  occ. eigenvalues --  -14.84555 -10.66545 -10.66194  -1.03586  -0.90271
 Alpha  occ. eigenvalues --   -0.60580  -0.55040  -0.54195  -0.44852  -0.38684
 Alpha  occ. eigenvalues --   -0.38530
 Alpha virt. eigenvalues --    0.03852   0.07579   0.07932   0.10052   0.11352
 Alpha virt. eigenvalues --    0.11412   0.15615   0.15780   0.16759   0.20161
 Alpha virt. eigenvalues --    0.20222   0.25899   0.32935   0.34573   0.35261

 Mulliken charges:
               1
     1  C   -0.073689
     2  C    0.002306
     3  N   -0.214772
     4  H    0.092942
     5  H    0.097893
     6  H    0.095320
 Sum of Mulliken charges =   0.00000

 Dipole moment (field-independent basis, Debye):
    X=             -4.1451    Y=              0.0237    Z=              0.0082  Tot=              4.1452
 Quadrupole moment (field-independent basis, Debye-Ang):
   XX=            -20.9569   YY=            -17.7388   ZZ=            -17.7549
   XY=              0.1147   XZ=              0.0397   YZ=             -0.0108

 Normal termination of Gaussian 09 at Wed Aug 26 14:56:30 2020.
