 Gaussian 09, Revision D.01,
 Gaussian 09:  ES64L-G09RevD.01 24-Apr-2013

 --------------------
 #p B2PLYPD3/Def2QZVP
 --------------------

 ------------
 cyanomethane
 ------------
 Symbolic Z-matrix:
 Charge =  0 Multiplicity = 1

                         Standard orientation:
 ---------------------------------------------------------------------
 Center     Atomic      Atomic             Coordinates (Angstroms)
 Number     Number       Type             X           Y           Z
 ---------------------------------------------------------------------
      1          6           0       -1.186632    0.000288    0.002984
      2          6           0        0.276284   -0.016974    0.005548
      3          7           0        1.439342    0.005647   -0.003924
      4          1           0       -1.526360    0.053308    0.993884
      5          1           0       -1.580724   -0.880704   -0.481346
      6          1           0       -1.506222    0.887979   -0.536264
 ---------------------------------------------------------------------

 SCF Done:  E(RB2PLYPD3) =  -132.534034747     A.U. after   11 cycles
 E2(B2PLYPD3) =    -0.1809889407D+00 E(B2PLYPD3) =    -0.13271502368758D+03

 The electronic state is 1-A.
 Alpha  occ. eigenvalues --  -14.84391 -10.66699 -10.66479  -1.03726  -0.89614
 Alpha  occ. eigenvalues --   -0.59649  -0.54787  -0.54137  -0.44756  -0.38937
 Alpha  occ. eigenvalues --   -0.38836
 Alpha virt. eigenvalues --    0.03818   0.07887   0.08208   0.10196   0.11211
 Alpha virt. eigenvalues --    0.11348   0.15339   0.16043   0.16346   0.20120
 Alpha virt. eigenvalues --    0.20152   0.25221   0.32652   0.34580   0.35134

 Mulliken charges:
               1
     1  C   -0.081388
     2  C   -0.001557
     3  N   -0.211154
     4  H    0.099014
     5  H    0.097248
     6  H    0.097837
 Sum of Mulliken charges =   0.00000

 Dipole moment (field-independent basis, Debye):
    X=             -4.1479    Y=              0.0008    Z=              0.0124  Tot=              4.1479
 Quadrupole moment (field-independent basis, Debye-Ang):
   XX=            -21.0296   YY=            -17.7261   ZZ=            -17.7586
   XY=              0.0070   XZ=              0.0170   YZ=              0.0092

 Normal termination of Gaussian 09 at Thu Aug 27 00:55:22 2020.
