 Gaussian 09, Revision D.01,
 Gaussian 09:  ES64L-G09RevD.01 24-Apr-2013

 --------------------
 #p B2PLYPD3/Def2QZVP
 --------------------

 ------------
 cyanomethane
 ------------
 Symbolic Z-matrix:
 Charge =  0 Multiplicity = 1

                         Standard orientation:
 ---------------------------------------------------------------------
 Center     Atomic      Atomic             Coordinates (Angstroms)
 Number     Number       Type             X           Y           Z
 ---------------------------------------------------------------------
      1          6           0        1.192776    0.011103   -0.006329
      2          6           0       -0.275766   -0.020702   -0.016808
      3          7           0       -1.438020    0.009341    0.006286
      4          1           0        1.528308    1.010063   -0.265360
      5          1           0        1.553044   -0.770452   -0.678833
      6          1           0        1.482723   -0.247403    1.039014
 ---------------------------------------------------------------------

 SCF Done:  E(RB2PLYPD3) =  -132.533099624     A.U. after   12 cycles
 E2(B2PLYPD3) =    -0.1813080057D+00 E(B2PLYPD3) =    -0.13271440762967D+03

 The electronic state is 1-A.
 Alpha  occ. eigenvalues --  -14.84291 -10.67590 -10.66406  -1.03669  -0.89016
 Alpha  occ. eigenvalues --   -0.58701  -0.54772  -0.53518  -0.44644  -0.38907
 Alpha  occ. eigenvalues --   -0.38674
 Alpha virt. eigenvalues --    0.03669   0.07821   0.07981   0.10165   0.11151
 Alpha virt. eigenvalues --    0.11444   0.15159   0.15595   0.16288   0.20089
 Alpha virt. eigenvalues --    0.20185   0.25110   0.32415   0.33766   0.34932

 Mulliken charges:
               1
     1  C   -0.100133
     2  C   -0.001704
     3  N   -0.211182
     4  H    0.107532
     5  H    0.103828
     6  H    0.101660
 Sum of Mulliken charges =   0.00000

 Dipole moment (field-independent basis, Debye):
    X=              4.1270    Y=             -0.0190    Z=              0.0058  Tot=              4.1271
 Quadrupole moment (field-independent basis, Debye-Ang):
   XX=            -21.3049   YY=            -17.6318   ZZ=            -17.8026
   XY=              0.0239   XZ=              0.0128   YZ=              0.0015

 Normal termination of Gaussian 09 at Wed Aug 26 11:53:25 2020.
