 Gaussian 09, Revision D.01,
 Gaussian 09:  ES64L-G09RevD.01 24-Apr-2013

 --------------------
 #p B2PLYPD3/Def2QZVP
 --------------------

 ------------
 cyanomethane
 ------------
 Symbolic Z-matrix:
 Charge =  0 Multiplicity = 1

                         Standard orientation:
 ---------------------------------------------------------------------
 Center     Atomic      Atomic             Coordinates (Angstroms)
 Number     Number       Type             X           Y           Z
 ---------------------------------------------------------------------
      1          6           0        1.178658    0.009788   -0.011640
      2          6           0       -0.281960   -0.018272   -0.009320
      3          7           0       -1.424019    0.004107    0.008976
      4          1           0        1.587637   -0.328169    0.959203
      5          1           0        1.461336    0.996002   -0.161125
      6          1           0        1.538973   -0.645671   -0.735151
 ---------------------------------------------------------------------

 SCF Done:  E(RB2PLYPD3) =  -132.532816804     A.U. after   11 cycles
 E2(B2PLYPD3) =    -0.1790873807D+00 E(B2PLYPD3) =    -0.13271190418498D+03

 The electronic state is 1-A.
 Alpha  occ. eigenvalues --  -14.83765 -10.66241 -10.65792  -1.04557  -0.89876
 Alpha  occ. eigenvalues --   -0.59593  -0.55954  -0.53440  -0.44665  -0.39521
 Alpha  occ. eigenvalues --   -0.39258
 Alpha virt. eigenvalues --    0.03880   0.08163   0.08913   0.10249   0.11345
 Alpha virt. eigenvalues --    0.11681   0.15426   0.16236   0.16448   0.20001
 Alpha virt. eigenvalues --    0.20100   0.25300   0.32897   0.34539   0.35712

 Mulliken charges:
               1
     1  C   -0.079723
     2  C   -0.005867
     3  N   -0.201195
     4  H    0.089022
     5  H    0.100681
     6  H    0.097083
 Sum of Mulliken charges =   0.00000

 Dipole moment (field-independent basis, Debye):
    X=              4.1128    Y=             -0.0069    Z=             -0.0123  Tot=              4.1128
 Quadrupole moment (field-independent basis, Debye-Ang):
   XX=            -20.9818   YY=            -17.5697   ZZ=            -17.7442
   XY=             -0.0614   XZ=              0.1080   YZ=              0.0381

 Normal termination of Gaussian 09 at Wed Aug 26 11:21:17 2020.
