 Gaussian 09, Revision D.01,
 Gaussian 09:  ES64L-G09RevD.01 24-Apr-2013

 --------------------
 #p B2PLYPD3/Def2QZVP
 --------------------

 ------------
 cyanomethane
 ------------
 Symbolic Z-matrix:
 Charge =  0 Multiplicity = 1

                         Standard orientation:
 ---------------------------------------------------------------------
 Center     Atomic      Atomic             Coordinates (Angstroms)
 Number     Number       Type             X           Y           Z
 ---------------------------------------------------------------------
      1          6           0        1.172272    0.001456    0.006281
      2          6           0       -0.283476   -0.025893    0.002197
      3          7           0       -1.434478    0.015104   -0.001435
      4          1           0        1.587218    0.937454   -0.414720
      5          1           0        1.548231   -0.797171   -0.611053
      6          1           0        1.573126   -0.099390    0.984952
 ---------------------------------------------------------------------

 SCF Done:  E(RB2PLYPD3) =  -132.534761086     A.U. after   11 cycles
 E2(B2PLYPD3) =    -0.1801962897D+00 E(B2PLYPD3) =    -0.13271495737578D+03

 The electronic state is 1-A.
 Alpha  occ. eigenvalues --  -14.84209 -10.66836 -10.66263  -1.04294  -0.89329
 Alpha  occ. eigenvalues --   -0.60339  -0.54356  -0.53181  -0.44879  -0.39269
 Alpha  occ. eigenvalues --   -0.39113
 Alpha virt. eigenvalues --    0.03756   0.07682   0.08212   0.10163   0.11391
 Alpha virt. eigenvalues --    0.11612   0.15506   0.16301   0.16888   0.20030
 Alpha virt. eigenvalues --    0.20116   0.25435   0.32868   0.34454   0.35138

 Mulliken charges:
               1
     1  C   -0.072774
     2  C    0.000041
     3  N   -0.204134
     4  H    0.090249
     5  H    0.092376
     6  H    0.094241
 Sum of Mulliken charges =   0.00000

 Dipole moment (field-independent basis, Debye):
    X=              4.1314    Y=             -0.0257    Z=             -0.0003  Tot=              4.1315
 Quadrupole moment (field-independent basis, Debye-Ang):
   XX=            -20.8070   YY=            -17.8146   ZZ=            -17.7580
   XY=              0.1074   XZ=             -0.0095   YZ=              0.0187

 Normal termination of Gaussian 09 at Thu Aug 27 00:13:46 2020.
