 Gaussian 09, Revision D.01,
 Gaussian 09:  ES64L-G09RevD.01 24-Apr-2013

 --------------------
 #p B2PLYPD3/Def2QZVP
 --------------------

 ------------
 cyanomethane
 ------------
 Symbolic Z-matrix:
 Charge =  0 Multiplicity = 1

                         Standard orientation:
 ---------------------------------------------------------------------
 Center     Atomic      Atomic             Coordinates (Angstroms)
 Number     Number       Type             X           Y           Z
 ---------------------------------------------------------------------
      1          6           0        1.175558   -0.001017    0.006968
      2          6           0       -0.284423   -0.021542    0.002234
      3          7           0       -1.438249    0.017529   -0.006292
      4          1           0        1.672817    0.939219   -0.461255
      5          1           0        1.538791   -0.874273   -0.557020
      6          1           0        1.509328   -0.052293    1.007108
 ---------------------------------------------------------------------

 SCF Done:  E(RB2PLYPD3) =  -132.530299329     A.U. after   12 cycles
 E2(B2PLYPD3) =    -0.1808058646D+00 E(B2PLYPD3) =    -0.13271110519402D+03

 The electronic state is 1-A.
 Alpha  occ. eigenvalues --  -14.84302 -10.67613 -10.66383  -1.04180  -0.88852
 Alpha  occ. eigenvalues --   -0.59798  -0.54392  -0.52239  -0.44880  -0.39172
 Alpha  occ. eigenvalues --   -0.38977
 Alpha virt. eigenvalues --    0.03534   0.07057   0.08251   0.10161   0.11366
 Alpha virt. eigenvalues --    0.11636   0.15398   0.15936   0.17078   0.20036
 Alpha virt. eigenvalues --    0.20160   0.25344   0.32287   0.33931   0.34851

 Mulliken charges:
               1
     1  C   -0.085441
     2  C    0.000740
     3  N   -0.204717
     4  H    0.091834
     5  H    0.097053
     6  H    0.100532
 Sum of Mulliken charges =   0.00000

 Dipole moment (field-independent basis, Debye):
    X=              4.1237    Y=             -0.0431    Z=              0.0327  Tot=              4.1240
 Quadrupole moment (field-independent basis, Debye-Ang):
   XX=            -20.9153   YY=            -17.8090   ZZ=            -17.8251
   XY=              0.1648   XZ=             -0.0582   YZ=              0.0431

 Normal termination of Gaussian 09 at Wed Aug 26 13:23:59 2020.
