 Gaussian 09, Revision D.01,
 Gaussian 09:  ES64L-G09RevD.01 24-Apr-2013

 --------------------
 #p B2PLYPD3/Def2QZVP
 --------------------

 ------------
 cyanomethane
 ------------
 Symbolic Z-matrix:
 Charge =  0 Multiplicity = 1

                         Standard orientation:
 ---------------------------------------------------------------------
 Center     Atomic      Atomic             Coordinates (Angstroms)
 Number     Number       Type             X           Y           Z
 ---------------------------------------------------------------------
      1          6           0       -1.184197   -0.002695    0.001506
      2          6           0        0.279469   -0.001548    0.013698
      3          7           0        1.437883    0.004105   -0.008710
      4          1           0       -1.515760   -0.300789    0.955847
      5          1           0       -1.531689   -0.709753   -0.746163
      6          1           0       -1.589363    1.007269   -0.239937
 ---------------------------------------------------------------------

 SCF Done:  E(RB2PLYPD3) =  -132.534071123     A.U. after   12 cycles
 E2(B2PLYPD3) =    -0.1807584642D+00 E(B2PLYPD3) =    -0.13271482958757D+03

 The electronic state is 1-A.
 Alpha  occ. eigenvalues --  -14.84290 -10.67068 -10.66374  -1.03923  -0.89292
 Alpha  occ. eigenvalues --   -0.59512  -0.54636  -0.53559  -0.44765  -0.39026
 Alpha  occ. eigenvalues --   -0.38946
 Alpha virt. eigenvalues --    0.03741   0.07647   0.08297   0.10190   0.11287
 Alpha virt. eigenvalues --    0.11430   0.15342   0.15975   0.16531   0.20094
 Alpha virt. eigenvalues --    0.20128   0.25219   0.32576   0.34445   0.34910

 Mulliken charges:
               1
     1  C   -0.085343
     2  C   -0.001689
     3  N   -0.208304
     4  H    0.100265
     5  H    0.098558
     6  H    0.096513
 Sum of Mulliken charges =   0.00000

 Dipole moment (field-independent basis, Debye):
    X=             -4.1359    Y=             -0.0191    Z=              0.0193  Tot=              4.1360
 Quadrupole moment (field-independent basis, Debye-Ang):
   XX=            -21.0378   YY=            -17.7352   ZZ=            -17.7641
   XY=             -0.0449   XZ=              0.0553   YZ=             -0.0049

 Normal termination of Gaussian 09 at Wed Aug 26 21:21:45 2020.
