 Gaussian 09, Revision D.01,
 Gaussian 09:  ES64L-G09RevD.01 24-Apr-2013

 --------------------
 #p B2PLYPD3/Def2QZVP
 --------------------

 ------------
 cyanomethane
 ------------
 Symbolic Z-matrix:
 Charge =  0 Multiplicity = 1

                         Standard orientation:
 ---------------------------------------------------------------------
 Center     Atomic      Atomic             Coordinates (Angstroms)
 Number     Number       Type             X           Y           Z
 ---------------------------------------------------------------------
      1          6           0        1.173331   -0.002500   -0.035928
      2          6           0       -0.279874   -0.015008   -0.035027
      3          7           0       -1.419367    0.007487    0.026333
      4          1           0        1.590000    0.039916    0.973973
      5          1           0        1.483208    0.857081   -0.389379
      6          1           0        1.501616   -0.844361   -0.343194
 ---------------------------------------------------------------------

 SCF Done:  E(RB2PLYPD3) =  -132.507851920     A.U. after   11 cycles
 E2(B2PLYPD3) =    -0.1787673097D+00 E(B2PLYPD3) =    -0.13268661922952D+03

 The electronic state is 1-A.
 Alpha  occ. eigenvalues --  -14.83764 -10.65741 -10.64503  -1.04669  -0.91462
 Alpha  occ. eigenvalues --   -0.60817  -0.59457  -0.52167  -0.44721  -0.39873
 Alpha  occ. eigenvalues --   -0.39019
 Alpha virt. eigenvalues --    0.03867   0.08312   0.09703   0.10236   0.10894
 Alpha virt. eigenvalues --    0.11989   0.15599   0.16505   0.16981   0.19874
 Alpha virt. eigenvalues --    0.20206   0.25410   0.32968   0.34234   0.37283

 Mulliken charges:
               1
     1  C   -0.059529
     2  C    0.000252
     3  N   -0.201598
     4  H    0.067420
     5  H    0.095450
     6  H    0.098006
 Sum of Mulliken charges =   0.00000

 Dipole moment (field-independent basis, Debye):
    X=              4.1322    Y=             -0.0019    Z=              0.0270  Tot=              4.1323
 Quadrupole moment (field-independent basis, Debye-Ang):
   XX=            -20.6825   YY=            -17.2989   ZZ=            -17.9722
   XY=              0.0484   XZ=              0.3902   YZ=              0.0011

 Normal termination of Gaussian 09 at Wed Aug 26 23:30:44 2020.
