 Gaussian 09, Revision D.01,
 Gaussian 09:  ES64L-G09RevD.01 24-Apr-2013

 --------------------
 #p B2PLYPD3/Def2QZVP
 --------------------

 ------------
 cyanomethane
 ------------
 Symbolic Z-matrix:
 Charge =  0 Multiplicity = 1

                         Standard orientation:
 ---------------------------------------------------------------------
 Center     Atomic      Atomic             Coordinates (Angstroms)
 Number     Number       Type             X           Y           Z
 ---------------------------------------------------------------------
      1          6           0        1.174927    0.016919    0.002667
      2          6           0       -0.291908   -0.039001   -0.011846
      3          7           0       -1.425312    0.018401    0.009842
      4          1           0        1.612226   -0.116609    1.013737
      5          1           0        1.533165    0.964605   -0.416645
      6          1           0        1.533672   -0.844309   -0.610911
 ---------------------------------------------------------------------

 SCF Done:  E(RB2PLYPD3) =  -132.534088258     A.U. after   11 cycles
 E2(B2PLYPD3) =    -0.1791334813D+00 E(B2PLYPD3) =    -0.13271322173983D+03

 The electronic state is 1-A.
 Alpha  occ. eigenvalues --  -14.83680 -10.67688 -10.65737  -1.04905  -0.88515
 Alpha  occ. eigenvalues --   -0.59322  -0.53820  -0.52788  -0.44738  -0.39630
 Alpha  occ. eigenvalues --   -0.39437
 Alpha virt. eigenvalues --    0.03652   0.07869   0.08189   0.10178   0.11640
 Alpha virt. eigenvalues --    0.11752   0.15383   0.15924   0.17119   0.19936
 Alpha virt. eigenvalues --    0.20038   0.25343   0.32727   0.34009   0.34787

 Mulliken charges:
               1
     1  C   -0.092929
     2  C   -0.003510
     3  N   -0.194681
     4  H    0.095437
     5  H    0.101269
     6  H    0.094414
 Sum of Mulliken charges =   0.00000

 Dipole moment (field-independent basis, Debye):
    X=              4.0838    Y=             -0.0356    Z=             -0.0122  Tot=              4.0840
 Quadrupole moment (field-independent basis, Debye-Ang):
   XX=            -21.0125   YY=            -17.6464   ZZ=            -17.8021
   XY=              0.0827   XZ=              0.1338   YZ=             -0.0319

 Normal termination of Gaussian 09 at Wed Aug 26 11:48:51 2020.
