 Gaussian 09, Revision D.01,
 Gaussian 09:  ES64L-G09RevD.01 24-Apr-2013

 --------------------
 #p B2PLYPD3/Def2QZVP
 --------------------

 ------------
 cyanomethane
 ------------
 Symbolic Z-matrix:
 Charge =  0 Multiplicity = 1

                         Standard orientation:
 ---------------------------------------------------------------------
 Center     Atomic      Atomic             Coordinates (Angstroms)
 Number     Number       Type             X           Y           Z
 ---------------------------------------------------------------------
      1          6           0       -1.178928    0.002113    0.011276
      2          6           0        0.269003    0.037049   -0.014213
      3          7           0        1.425713   -0.024538    0.009186
      4          1           0       -1.437004    1.019584   -0.092922
      5          1           0       -1.571050   -0.470177    0.896274
      6          1           0       -1.512386   -0.612612   -0.850039
 ---------------------------------------------------------------------

 SCF Done:  E(RB2PLYPD3) =  -132.531231871     A.U. after   12 cycles
 E2(B2PLYPD3) =    -0.1808076581D+00 E(B2PLYPD3) =    -0.13271203952899D+03

 The electronic state is 1-A.
 Alpha  occ. eigenvalues --  -14.84136 -10.66806 -10.66154  -1.03908  -0.89801
 Alpha  occ. eigenvalues --   -0.59372  -0.55559  -0.53485  -0.44658  -0.38914
 Alpha  occ. eigenvalues --   -0.38724
 Alpha virt. eigenvalues --    0.03742   0.07560   0.08569   0.10077   0.11219
 Alpha virt. eigenvalues --    0.11618   0.15225   0.15621   0.16596   0.20067
 Alpha virt. eigenvalues --    0.20220   0.25547   0.32872   0.34096   0.35103

 Mulliken charges:
               1
     1  C   -0.093776
     2  C   -0.001566
     3  N   -0.210319
     4  H    0.106264
     5  H    0.101376
     6  H    0.098020
 Sum of Mulliken charges =   0.00000

 Dipole moment (field-independent basis, Debye):
    X=             -4.1050    Y=              0.0198    Z=             -0.0152  Tot=              4.1050
 Quadrupole moment (field-independent basis, Debye-Ang):
   XX=            -21.2449   YY=            -17.5509   ZZ=            -17.7882
   XY=              0.2597   XZ=             -0.0930   YZ=             -0.0321

 Normal termination of Gaussian 09 at Wed Aug 26 14:51:58 2020.
