 Gaussian 09, Revision D.01,
 Gaussian 09:  ES64L-G09RevD.01 24-Apr-2013

 --------------------
 #p B2PLYPD3/Def2QZVP
 --------------------

 ------------
 cyanomethane
 ------------
 Symbolic Z-matrix:
 Charge =  0 Multiplicity = 1

                         Standard orientation:
 ---------------------------------------------------------------------
 Center     Atomic      Atomic             Coordinates (Angstroms)
 Number     Number       Type             X           Y           Z
 ---------------------------------------------------------------------
      1          6           0        1.171605    0.002210   -0.011597
      2          6           0       -0.281451   -0.002867    0.026393
      3          7           0       -1.427928    0.001341   -0.011418
      4          1           0        1.552335    1.049217   -0.010467
      5          1           0        1.536652   -0.534395   -0.887801
      6          1           0        1.565585   -0.520273    0.889416
 ---------------------------------------------------------------------

 SCF Done:  E(RB2PLYPD3) =  -132.535010815     A.U. after   11 cycles
 E2(B2PLYPD3) =    -0.1800537012D+00 E(B2PLYPD3) =    -0.13271506451615D+03

 The electronic state is 1-A.
 Alpha  occ. eigenvalues --  -14.83977 -10.67548 -10.66011  -1.04423  -0.88888
 Alpha  occ. eigenvalues --   -0.59502  -0.53856  -0.53244  -0.44767  -0.39233
 Alpha  occ. eigenvalues --   -0.39116
 Alpha virt. eigenvalues --    0.03680   0.07788   0.07852   0.10164   0.11574
 Alpha virt. eigenvalues --    0.11657   0.15415   0.16106   0.16633   0.20046
 Alpha virt. eigenvalues --    0.20059   0.25475   0.32703   0.34128   0.34650

 Mulliken charges:
               1
     1  C   -0.090997
     2  C   -0.001714
     3  N   -0.201899
     4  H    0.099086
     5  H    0.100399
     6  H    0.095126
 Sum of Mulliken charges =   0.00000

 Dipole moment (field-independent basis, Debye):
    X=              4.1018    Y=             -0.0131    Z=              0.0168  Tot=              4.1019
 Quadrupole moment (field-independent basis, Debye-Ang):
   XX=            -21.0607   YY=            -17.6824   ZZ=            -17.7881
   XY=             -0.0186   XZ=             -0.0418   YZ=              0.0273

 Normal termination of Gaussian 09 at Wed Aug 26 10:06:38 2020.
