 Gaussian 09, Revision D.01,
 Gaussian 09:  ES64L-G09RevD.01 24-Apr-2013

 --------------------
 #p B2PLYPD3/Def2QZVP
 --------------------

 ------------
 cyanomethane
 ------------
 Symbolic Z-matrix:
 Charge =  0 Multiplicity = 1

                         Standard orientation:
 ---------------------------------------------------------------------
 Center     Atomic      Atomic             Coordinates (Angstroms)
 Number     Number       Type             X           Y           Z
 ---------------------------------------------------------------------
      1          6           0       -1.191955   -0.002482   -0.016840
      2          6           0        0.276531    0.014016    0.018526
      3          7           0        1.441157   -0.008533   -0.009213
      4          1           0       -1.517899    1.002295   -0.281842
      5          1           0       -1.520610   -0.244221    1.028417
      6          1           0       -1.557044   -0.767545   -0.692195
 ---------------------------------------------------------------------

 SCF Done:  E(RB2PLYPD3) =  -132.532685680     A.U. after   12 cycles
 E2(B2PLYPD3) =    -0.1815371248D+00 E(B2PLYPD3) =    -0.13271422280485D+03

 The electronic state is 1-A.
 Alpha  occ. eigenvalues --  -14.84408 -10.67611 -10.66526  -1.03605  -0.88967
 Alpha  occ. eigenvalues --   -0.58968  -0.54639  -0.53346  -0.44701  -0.38876
 Alpha  occ. eigenvalues --   -0.38648
 Alpha virt. eigenvalues --    0.03669   0.07633   0.07942   0.10136   0.11168
 Alpha virt. eigenvalues --    0.11398   0.15186   0.15572   0.16477   0.20114
 Alpha virt. eigenvalues --    0.20173   0.25134   0.32344   0.33791   0.34937

 Mulliken charges:
               1
     1  C   -0.097229
     2  C   -0.000433
     3  N   -0.211751
     4  H    0.104942
     5  H    0.098818
     6  H    0.105653
 Sum of Mulliken charges =   0.00000

 Dipole moment (field-independent basis, Debye):
    X=             -4.1331    Y=              0.0088    Z=              0.0205  Tot=              4.1332
 Quadrupole moment (field-independent basis, Debye-Ang):
   XX=            -21.2421   YY=            -17.6810   ZZ=            -17.8125
   XY=              0.0783   XZ=              0.0468   YZ=              0.0224

 Normal termination of Gaussian 09 at Wed Aug 26 15:18:13 2020.
