 Gaussian 09, Revision D.01,
 Gaussian 09:  ES64L-G09RevD.01 24-Apr-2013

 --------------------
 #p B2PLYPD3/Def2QZVP
 --------------------

 ------------
 cyanomethane
 ------------
 Symbolic Z-matrix:
 Charge =  0 Multiplicity = 1

                         Standard orientation:
 ---------------------------------------------------------------------
 Center     Atomic      Atomic             Coordinates (Angstroms)
 Number     Number       Type             X           Y           Z
 ---------------------------------------------------------------------
      1          6           0       -1.174574    0.014776    0.009706
      2          6           0        0.281258    0.004028    0.020954
      3          7           0        1.445063   -0.000302   -0.012834
      4          1           0       -1.563872   -0.313913    0.945535
      5          1           0       -1.557743   -0.767902   -0.750450
      6          1           0       -1.633934    0.971104   -0.289207
 ---------------------------------------------------------------------

 SCF Done:  E(RB2PLYPD3) =  -132.530347191     A.U. after   12 cycles
 E2(B2PLYPD3) =    -0.1817011026D+00 E(B2PLYPD3) =    -0.13271204829398D+03

 The electronic state is 1-A.
 Alpha  occ. eigenvalues --  -14.84622 -10.67679 -10.66736  -1.03822  -0.88829
 Alpha  occ. eigenvalues --   -0.60320  -0.54274  -0.52037  -0.44972  -0.39041
 Alpha  occ. eigenvalues --   -0.38637
 Alpha virt. eigenvalues --    0.03551   0.06988   0.07739   0.10127   0.11216
 Alpha virt. eigenvalues --    0.11678   0.15402   0.16064   0.17104   0.20079
 Alpha virt. eigenvalues --    0.20183   0.25382   0.32338   0.33403   0.35208

 Mulliken charges:
               1
     1  C   -0.079922
     2  C    0.004424
     3  N   -0.209096
     4  H    0.097847
     5  H    0.088574
     6  H    0.098173
 Sum of Mulliken charges =   0.00000

 Dipole moment (field-independent basis, Debye):
    X=             -4.1472    Y=             -0.0188    Z=              0.0239  Tot=              4.1473
 Quadrupole moment (field-independent basis, Debye-Ang):
   XX=            -20.8468   YY=            -17.8311   ZZ=            -17.9250
   XY=             -0.0009   XZ=              0.0776   YZ=             -0.0880

 Normal termination of Gaussian 09 at Wed Aug 26 12:40:06 2020.
