 Gaussian 09, Revision D.01,
 Gaussian 09:  ES64L-G09RevD.01 24-Apr-2013

 --------------------
 #p B2PLYPD3/Def2QZVP
 --------------------

 ------------
 cyanomethane
 ------------
 Symbolic Z-matrix:
 Charge =  0 Multiplicity = 1

                         Standard orientation:
 ---------------------------------------------------------------------
 Center     Atomic      Atomic             Coordinates (Angstroms)
 Number     Number       Type             X           Y           Z
 ---------------------------------------------------------------------
      1          6           0       -1.168225   -0.003251    0.009766
      2          6           0        0.274963    0.019916   -0.008290
      3          7           0        1.434207   -0.013578    0.005431
      4          1           0       -1.510605    1.018629   -0.075789
      5          1           0       -1.608426   -0.457515    0.877605
      6          1           0       -1.560841   -0.566064   -0.848695
 ---------------------------------------------------------------------

 SCF Done:  E(RB2PLYPD3) =  -132.533911537     A.U. after   12 cycles
 E2(B2PLYPD3) =    -0.1809394908D+00 E(B2PLYPD3) =    -0.13271485102792D+03

 The electronic state is 1-A.
 Alpha  occ. eigenvalues --  -14.84386 -10.66831 -10.66420  -1.03981  -0.89550
 Alpha  occ. eigenvalues --   -0.60523  -0.54304  -0.53396  -0.44889  -0.38964
 Alpha  occ. eigenvalues --   -0.38844
 Alpha virt. eigenvalues --    0.03773   0.07486   0.07952   0.10100   0.11400
 Alpha virt. eigenvalues --    0.11584   0.15517   0.16033   0.16972   0.20080
 Alpha virt. eigenvalues --    0.20189   0.25645   0.32878   0.34402   0.34981

 Mulliken charges:
               1
     1  C   -0.075136
     2  C    0.001878
     3  N   -0.208682
     4  H    0.095366
     5  H    0.094918
     6  H    0.091657
 Sum of Mulliken charges =   0.00000

 Dipole moment (field-independent basis, Debye):
    X=             -4.1381    Y=              0.0153    Z=             -0.0133  Tot=              4.1382
 Quadrupole moment (field-independent basis, Debye-Ang):
   XX=            -20.8684   YY=            -17.7299   ZZ=            -17.8535
   XY=              0.1459   XZ=             -0.0491   YZ=             -0.0231

 Normal termination of Gaussian 09 at Wed Aug 26 09:10:20 2020.
