 Gaussian 09, Revision D.01,
 Gaussian 09:  ES64L-G09RevD.01 24-Apr-2013

 --------------------
 #p B2PLYPD3/Def2QZVP
 --------------------

 ------------
 cyanomethane
 ------------
 Symbolic Z-matrix:
 Charge =  0 Multiplicity = 1

                         Standard orientation:
 ---------------------------------------------------------------------
 Center     Atomic      Atomic             Coordinates (Angstroms)
 Number     Number       Type             X           Y           Z
 ---------------------------------------------------------------------
      1          6           0        1.192432   -0.006901    0.003439
      2          6           0       -0.291015    0.030846   -0.006240
      3          7           0       -1.432258   -0.010623    0.003330
      4          1           0        1.487823   -0.758564   -0.713340
      5          1           0        1.527327   -0.281485    0.978834
      6          1           0        1.602151    0.970734   -0.272003
 ---------------------------------------------------------------------

 SCF Done:  E(RB2PLYPD3) =  -132.535563535     A.U. after   12 cycles
 E2(B2PLYPD3) =    -0.1792816316D+00 E(B2PLYPD3) =    -0.13271484516673D+03

 The electronic state is 1-A.
 Alpha  occ. eigenvalues --  -14.83786 -10.67110 -10.65895  -1.04518  -0.88971
 Alpha  occ. eigenvalues --   -0.58902  -0.54311  -0.53979  -0.44632  -0.39478
 Alpha  occ. eigenvalues --   -0.39435
 Alpha virt. eigenvalues --    0.03791   0.08338   0.08528   0.10262   0.11412
 Alpha virt. eigenvalues --    0.11490   0.15204   0.16160   0.16392   0.19997
 Alpha virt. eigenvalues --    0.20050   0.24899   0.32595   0.34723   0.34943

 Mulliken charges:
               1
     1  C   -0.090393
     2  C   -0.006741
     3  N   -0.199783
     4  H    0.100322
     5  H    0.099757
     6  H    0.096838
 Sum of Mulliken charges =   0.00000

 Dipole moment (field-independent basis, Debye):
    X=              4.1154    Y=              0.0032    Z=             -0.0004  Tot=              4.1154
 Quadrupole moment (field-independent basis, Debye-Ang):
   XX=            -21.0749   YY=            -17.6653   ZZ=            -17.7083
   XY=             -0.0035   XZ=              0.0379   YZ=              0.0052

 Normal termination of Gaussian 09 at Wed Aug 26 14:39:26 2020.
