 Gaussian 09, Revision D.01,
 Gaussian 09:  ES64L-G09RevD.01 24-Apr-2013

 --------------------
 #p B2PLYPD3/Def2QZVP
 --------------------

 ------------
 cyanomethane
 ------------
 Symbolic Z-matrix:
 Charge =  0 Multiplicity = 1

                         Standard orientation:
 ---------------------------------------------------------------------
 Center     Atomic      Atomic             Coordinates (Angstroms)
 Number     Number       Type             X           Y           Z
 ---------------------------------------------------------------------
      1          6           0        1.210968    0.000497   -0.013080
      2          6           0       -0.303610    0.070231   -0.028772
      3          7           0       -1.431858   -0.032913    0.019950
      4          1           0        1.455527   -0.776723   -0.765646
      5          1           0        1.550977   -0.407163    1.035161
      6          1           0        1.572353    0.989908   -0.158051
 ---------------------------------------------------------------------

 SCF Done:  E(RB2PLYPD3) =  -132.526078211     A.U. after   12 cycles
 E2(B2PLYPD3) =    -0.1793118008D+00 E(B2PLYPD3) =    -0.13270539001150D+03

 The electronic state is 1-A.
 Alpha  occ. eigenvalues --  -14.83512 -10.68496 -10.65650  -1.04740  -0.87735
 Alpha  occ. eigenvalues --   -0.57387  -0.55242  -0.51747  -0.44463  -0.39824
 Alpha  occ. eigenvalues --   -0.39376
 Alpha virt. eigenvalues --    0.03319   0.07734   0.09028   0.10251   0.11039
 Alpha virt. eigenvalues --    0.11762   0.14881   0.15846   0.16236   0.19816
 Alpha virt. eigenvalues --    0.20072   0.24534   0.32046   0.32968   0.35142

 Mulliken charges:
               1
     1  C   -0.113474
     2  C   -0.010040
     3  N   -0.193700
     4  H    0.110132
     5  H    0.097159
     6  H    0.109923
 Sum of Mulliken charges =   0.00000

 Dipole moment (field-independent basis, Debye):
    X=              4.0777    Y=              0.0377    Z=             -0.0263  Tot=              4.0780
 Quadrupole moment (field-independent basis, Debye-Ang):
   XX=            -21.3792   YY=            -17.5052   ZZ=            -17.8136
   XY=             -0.1382   XZ=              0.2031   YZ=              0.0640

 Normal termination of Gaussian 09 at Wed Aug 26 23:43:56 2020.
