 Gaussian 09, Revision D.01,
 Gaussian 09:  ES64L-G09RevD.01 24-Apr-2013

 --------------------
 #p B2PLYPD3/Def2QZVP
 --------------------

 ------------
 cyanomethane
 ------------
 Symbolic Z-matrix:
 Charge =  0 Multiplicity = 1

                         Standard orientation:
 ---------------------------------------------------------------------
 Center     Atomic      Atomic             Coordinates (Angstroms)
 Number     Number       Type             X           Y           Z
 ---------------------------------------------------------------------
      1          6           0        1.169095   -0.000631   -0.011329
      2          6           0       -0.282242   -0.019995    0.011207
      3          7           0       -1.424260    0.013117   -0.005105
      4          1           0        1.583522    1.033183   -0.135753
      5          1           0        1.533430   -0.635227   -0.761747
      6          1           0        1.531745   -0.366023    0.933967
 ---------------------------------------------------------------------

 SCF Done:  E(RB2PLYPD3) =  -132.534334525     A.U. after   12 cycles
 E2(B2PLYPD3) =    -0.1793809312D+00 E(B2PLYPD3) =    -0.13271371545579D+03

 The electronic state is 1-A.
 Alpha  occ. eigenvalues --  -14.83850 -10.66743 -10.65862  -1.04616  -0.89480
 Alpha  occ. eigenvalues --   -0.59955  -0.54662  -0.53345  -0.44764  -0.39441
 Alpha  occ. eigenvalues --   -0.39244
 Alpha virt. eigenvalues --    0.03764   0.07840   0.08540   0.10184   0.11511
 Alpha virt. eigenvalues --    0.11720   0.15525   0.16027   0.16963   0.20025
 Alpha virt. eigenvalues --    0.20071   0.25517   0.32977   0.34306   0.35202

 Mulliken charges:
               1
     1  C   -0.080127
     2  C   -0.002992
     3  N   -0.200232
     4  H    0.093847
     5  H    0.097462
     6  H    0.092041
 Sum of Mulliken charges =   0.00000

 Dipole moment (field-independent basis, Debye):
    X=              4.1078    Y=             -0.0410    Z=              0.0244  Tot=              4.1081
 Quadrupole moment (field-independent basis, Debye-Ang):
   XX=            -20.9228   YY=            -17.6421   ZZ=            -17.7745
   XY=              0.0702   XZ=              0.0044   YZ=              0.0450

 Normal termination of Gaussian 09 at Wed Aug 26 14:20:53 2020.
