 Gaussian 09, Revision D.01,
 Gaussian 09:  ES64L-G09RevD.01 24-Apr-2013

 --------------------
 #p B2PLYPD3/Def2QZVP
 --------------------

 ------------
 cyanomethane
 ------------
 Symbolic Z-matrix:
 Charge =  0 Multiplicity = 1

                         Standard orientation:
 ---------------------------------------------------------------------
 Center     Atomic      Atomic             Coordinates (Angstroms)
 Number     Number       Type             X           Y           Z
 ---------------------------------------------------------------------
      1          6           0       -1.179638    0.005149   -0.006228
      2          6           0        0.280090   -0.015708   -0.019504
      3          7           0        1.426576    0.006442    0.011866
      4          1           0       -1.508543    0.950625   -0.392306
      5          1           0       -1.544755   -0.104639    1.043466
      6          1           0       -1.535443   -0.827728   -0.579830
 ---------------------------------------------------------------------

 SCF Done:  E(RB2PLYPD3) =  -132.535133815     A.U. after   11 cycles
 E2(B2PLYPD3) =    -0.1797869372D+00 E(B2PLYPD3) =    -0.13271492075267D+03

 The electronic state is 1-A.
 Alpha  occ. eigenvalues --  -14.83888 -10.67069 -10.65927  -1.04353  -0.89284
 Alpha  occ. eigenvalues --   -0.59172  -0.54989  -0.53398  -0.44667  -0.39297
 Alpha  occ. eigenvalues --   -0.39098
 Alpha virt. eigenvalues --    0.03749   0.07915   0.08461   0.10196   0.11378
 Alpha virt. eigenvalues --    0.11649   0.15374   0.16084   0.16319   0.20023
 Alpha virt. eigenvalues --    0.20108   0.25310   0.32810   0.34144   0.35099

 Mulliken charges:
               1
     1  C   -0.091241
     2  C   -0.004516
     3  N   -0.203079
     4  H    0.102308
     5  H    0.095917
     6  H    0.100611
 Sum of Mulliken charges =   0.00000

 Dipole moment (field-independent basis, Debye):
    X=             -4.1051    Y=             -0.0098    Z=             -0.0133  Tot=              4.1051
 Quadrupole moment (field-independent basis, Debye-Ang):
   XX=            -21.1364   YY=            -17.6151   ZZ=            -17.7434
   XY=             -0.0111   XZ=             -0.0982   YZ=              0.0048

 Normal termination of Gaussian 09 at Wed Aug 26 09:59:25 2020.
