 Gaussian 09, Revision D.01,
 Gaussian 09:  ES64L-G09RevD.01 24-Apr-2013

 --------------------
 #p B2PLYPD3/Def2QZVP
 --------------------

 ------------
 cyanomethane
 ------------
 Symbolic Z-matrix:
 Charge =  0 Multiplicity = 1

                         Standard orientation:
 ---------------------------------------------------------------------
 Center     Atomic      Atomic             Coordinates (Angstroms)
 Number     Number       Type             X           Y           Z
 ---------------------------------------------------------------------
      1          6           0        1.176018    0.011288    0.002310
      2          6           0       -0.286309   -0.033629   -0.012064
      3          7           0       -1.442660    0.014885    0.003430
      4          1           0        1.572849    1.039285   -0.199641
      5          1           0        1.628892   -0.688885   -0.759073
      6          1           0        1.558625   -0.320549    0.993228
 ---------------------------------------------------------------------

 SCF Done:  E(RB2PLYPD3) =  -132.532317710     A.U. after   12 cycles
 E2(B2PLYPD3) =    -0.1812380255D+00 E(B2PLYPD3) =    -0.13271355573525D+03

 The electronic state is 1-A.
 Alpha  occ. eigenvalues --  -14.84439 -10.68111 -10.66545  -1.04080  -0.88335
 Alpha  occ. eigenvalues --   -0.59786  -0.53120  -0.52641  -0.44933  -0.39053
 Alpha  occ. eigenvalues --   -0.38976
 Alpha virt. eigenvalues --    0.03546   0.07247   0.07479   0.10146   0.11491
 Alpha virt. eigenvalues --    0.11515   0.15333   0.16259   0.16820   0.20057
 Alpha virt. eigenvalues --    0.20087   0.25350   0.32323   0.34095   0.34313

 Mulliken charges:
               1
     1  C   -0.086589
     2  C    0.002882
     3  N   -0.205259
     4  H    0.098920
     5  H    0.093494
     6  H    0.096553
 Sum of Mulliken charges =   0.00000

 Dipole moment (field-independent basis, Debye):
    X=              4.1260    Y=             -0.0244    Z=              0.0061  Tot=              4.1261
 Quadrupole moment (field-independent basis, Debye-Ang):
   XX=            -20.9159   YY=            -17.8144   ZZ=            -17.9052
   XY=              0.0442   XZ=             -0.0013   YZ=             -0.0219

 Normal termination of Gaussian 09 at Wed Aug 26 15:17:00 2020.
