 Gaussian 09, Revision D.01,
 Gaussian 09:  ES64L-G09RevD.01 24-Apr-2013

 --------------------
 #p B2PLYPD3/Def2QZVP
 --------------------

 ------------
 cyanomethane
 ------------
 Symbolic Z-matrix:
 Charge =  0 Multiplicity = 1

                         Standard orientation:
 ---------------------------------------------------------------------
 Center     Atomic      Atomic             Coordinates (Angstroms)
 Number     Number       Type             X           Y           Z
 ---------------------------------------------------------------------
      1          6           0       -1.148983    0.001837   -0.006037
      2          6           0        0.253768    0.014187    0.073010
      3          7           0        1.439791   -0.014007   -0.039546
      4          1           0       -1.487286    1.040920   -0.154001
      5          1           0       -1.571843   -0.420053    0.845706
      6          1           0       -1.648119   -0.618960   -0.816723
 ---------------------------------------------------------------------

 SCF Done:  E(RB2PLYPD3) =  -132.520407009     A.U. after   13 cycles
 E2(B2PLYPD3) =    -0.1842415829D+00 E(B2PLYPD3) =    -0.13270464859174D+03

 The electronic state is 1-A.
 Alpha  occ. eigenvalues --  -14.85331 -10.67232 -10.66729  -1.02949  -0.90150
 Alpha  occ. eigenvalues --   -0.61737  -0.55076  -0.52270  -0.45147  -0.38138
 Alpha  occ. eigenvalues --   -0.37817
 Alpha virt. eigenvalues --    0.03291   0.06069   0.07442   0.09850   0.11049
 Alpha virt. eigenvalues --    0.11749   0.15600   0.15972   0.17140   0.20166
 Alpha virt. eigenvalues --    0.20467   0.26507   0.33060   0.33725   0.34687

 Mulliken charges:
               1
     1  C   -0.068220
     2  C    0.010577
     3  N   -0.220737
     4  H    0.096747
     5  H    0.093510
     6  H    0.088122
 Sum of Mulliken charges =   0.00000

 Dipole moment (field-independent basis, Debye):
    X=             -4.1661    Y=             -0.0028    Z=              0.0618  Tot=              4.1666
 Quadrupole moment (field-independent basis, Debye-Ang):
   XX=            -20.7453   YY=            -17.7512   ZZ=            -18.0871
   XY=              0.2406   XZ=              0.2010   YZ=             -0.0904

 Normal termination of Gaussian 09 at Wed Aug 26 22:09:29 2020.
