 Gaussian 09, Revision D.01,
 Gaussian 09:  ES64L-G09RevD.01 24-Apr-2013

 --------------------
 #p B2PLYPD3/Def2QZVP
 --------------------

 ------------
 cyanomethane
 ------------
 Symbolic Z-matrix:
 Charge =  0 Multiplicity = 1

                         Standard orientation:
 ---------------------------------------------------------------------
 Center     Atomic      Atomic             Coordinates (Angstroms)
 Number     Number       Type             X           Y           Z
 ---------------------------------------------------------------------
      1          6           0       -1.183322    0.036624    0.014918
      2          6           0        0.275143    0.041293   -0.017027
      3          7           0        1.448696   -0.038904    0.005231
      4          1           0       -1.396640    1.011601   -0.133740
      5          1           0       -1.602653   -0.481343    0.890213
      6          1           0       -1.692503   -0.725431   -0.780438
 ---------------------------------------------------------------------

 SCF Done:  E(RB2PLYPD3) =  -132.510649662     A.U. after   12 cycles
 E2(B2PLYPD3) =    -0.1832296446D+00 E(B2PLYPD3) =    -0.13269387930651D+03

 The electronic state is 1-A.
 Alpha  occ. eigenvalues --  -14.84905 -10.67728 -10.66987  -1.03325  -0.89301
 Alpha  occ. eigenvalues --   -0.60022  -0.56933  -0.49955  -0.44919  -0.38852
 Alpha  occ. eigenvalues --   -0.37985
 Alpha virt. eigenvalues --    0.03172   0.05958   0.08413   0.09917   0.10616
 Alpha virt. eigenvalues --    0.11987   0.14905   0.16478   0.16568   0.19877
 Alpha virt. eigenvalues --    0.20447   0.25326   0.31147   0.33133   0.35733

 Mulliken charges:
               1
     1  C   -0.083205
     2  C    0.002805
     3  N   -0.214817
     4  H    0.113990
     5  H    0.097636
     6  H    0.083590
 Sum of Mulliken charges =   0.00000

 Dipole moment (field-independent basis, Debye):
    X=             -4.1470    Y=             -0.0058    Z=              0.0367  Tot=              4.1472
 Quadrupole moment (field-independent basis, Debye-Ang):
   XX=            -20.9928   YY=            -17.4742   ZZ=            -18.3208
   XY=              0.5954   XZ=             -0.0846   YZ=             -0.1490

 Normal termination of Gaussian 09 at Wed Aug 26 20:13:31 2020.
