 Gaussian 09, Revision D.01,
 Gaussian 09:  ES64L-G09RevD.01 24-Apr-2013

 --------------------
 #p B2PLYPD3/Def2QZVP
 --------------------

 ------------
 cyanomethane
 ------------
 Symbolic Z-matrix:
 Charge =  0 Multiplicity = 1

                         Standard orientation:
 ---------------------------------------------------------------------
 Center     Atomic      Atomic             Coordinates (Angstroms)
 Number     Number       Type             X           Y           Z
 ---------------------------------------------------------------------
      1          6           0        1.171271    0.007096   -0.002829
      2          6           0       -0.286347    0.010355   -0.013767
      3          7           0       -1.438710   -0.011567    0.014283
      4          1           0        1.700952   -0.471197    0.913982
      5          1           0        1.510678    1.036855   -0.065266
      6          1           0        1.549795   -0.589396   -0.849122
 ---------------------------------------------------------------------

 SCF Done:  E(RB2PLYPD3) =  -132.529917002     A.U. after   12 cycles
 E2(B2PLYPD3) =    -0.1808690619D+00 E(B2PLYPD3) =    -0.13271078606434D+03

 The electronic state is 1-A.
 Alpha  occ. eigenvalues --  -14.84308 -10.67897 -10.66398  -1.04283  -0.88594
 Alpha  occ. eigenvalues --   -0.59954  -0.54255  -0.51657  -0.44928  -0.39230
 Alpha  occ. eigenvalues --   -0.38948
 Alpha virt. eigenvalues --    0.03511   0.06860   0.08054   0.10154   0.11369
 Alpha virt. eigenvalues --    0.11792   0.15375   0.16112   0.17175   0.19985
 Alpha virt. eigenvalues --    0.20202   0.25386   0.32301   0.33830   0.34722

 Mulliken charges:
               1
     1  C   -0.084788
     2  C    0.002101
     3  N   -0.203297
     4  H    0.089745
     5  H    0.100085
     6  H    0.096154
 Sum of Mulliken charges =   0.00000

 Dipole moment (field-independent basis, Debye):
    X=              4.1236    Y=              0.0141    Z=             -0.0383  Tot=              4.1238
 Quadrupole moment (field-independent basis, Debye-Ang):
   XX=            -20.8507   YY=            -17.7325   ZZ=            -17.9806
   XY=             -0.1700   XZ=              0.1572   YZ=              0.0474

 Normal termination of Gaussian 09 at Wed Aug 26 15:41:42 2020.
