 Gaussian 09, Revision D.01,
 Gaussian 09:  ES64L-G09RevD.01 24-Apr-2013

 --------------------
 #p B2PLYPD3/Def2QZVP
 --------------------

 ------------
 cyanomethane
 ------------
 Symbolic Z-matrix:
 Charge =  0 Multiplicity = 1

                         Standard orientation:
 ---------------------------------------------------------------------
 Center     Atomic      Atomic             Coordinates (Angstroms)
 Number     Number       Type             X           Y           Z
 ---------------------------------------------------------------------
      1          6           0        1.162807   -0.005845   -0.016427
      2          6           0       -0.275199   -0.015345   -0.027022
      3          7           0       -1.434540    0.013132    0.019580
      4          1           0        1.497088   -0.853133   -0.532997
      5          1           0        1.614726   -0.064850    1.066241
      6          1           0        1.604317    0.953201   -0.409605
 ---------------------------------------------------------------------

 SCF Done:  E(RB2PLYPD3) =  -132.526899080     A.U. after   12 cycles
 E2(B2PLYPD3) =    -0.1815278670D+00 E(B2PLYPD3) =    -0.13270842694684D+03

 The electronic state is 1-A.
 Alpha  occ. eigenvalues --  -14.84467 -10.67686 -10.66469  -1.03998  -0.89086
 Alpha  occ. eigenvalues --   -0.60150  -0.55005  -0.51492  -0.44945  -0.39035
 Alpha  occ. eigenvalues --   -0.38540
 Alpha virt. eigenvalues --    0.03439   0.06543   0.08037   0.10088   0.11223
 Alpha virt. eigenvalues --    0.11904   0.15480   0.16256   0.16792   0.19990
 Alpha virt. eigenvalues --    0.20239   0.25709   0.32360   0.33275   0.35088

 Mulliken charges:
               1
     1  C   -0.084075
     2  C    0.002654
     3  N   -0.207425
     4  H    0.103907
     5  H    0.088003
     6  H    0.096936
 Sum of Mulliken charges =   0.00000

 Dipole moment (field-independent basis, Debye):
    X=              4.1191    Y=             -0.0212    Z=             -0.0242  Tot=              4.1193
 Quadrupole moment (field-independent basis, Debye-Ang):
   XX=            -20.9304   YY=            -17.7050   ZZ=            -17.9672
   XY=              0.1446   XZ=              0.1922   YZ=              0.0752

 Normal termination of Gaussian 09 at Wed Aug 26 11:27:24 2020.
