 Gaussian 09, Revision D.01,
 Gaussian 09:  ES64L-G09RevD.01 24-Apr-2013

 --------------------
 #p B2PLYPD3/Def2QZVP
 --------------------

 ------------
 cyanomethane
 ------------
 Symbolic Z-matrix:
 Charge =  0 Multiplicity = 1

                         Standard orientation:
 ---------------------------------------------------------------------
 Center     Atomic      Atomic             Coordinates (Angstroms)
 Number     Number       Type             X           Y           Z
 ---------------------------------------------------------------------
      1          6           0       -1.180278   -0.024500   -0.027209
      2          6           0        0.294048    0.048621    0.011418
      3          7           0        1.445266   -0.013839    0.001034
      4          1           0       -1.648683   -0.085908    1.007437
      5          1           0       -1.465670   -0.896730   -0.512826
      6          1           0       -1.685128    0.934779   -0.407102
 ---------------------------------------------------------------------

 SCF Done:  E(RB2PLYPD3) =  -132.526600380     A.U. after   12 cycles
 E2(B2PLYPD3) =    -0.1808636389D+00 E(B2PLYPD3) =    -0.13270746401849D+03

 The electronic state is 1-A.
 Alpha  occ. eigenvalues --  -14.84376 -10.67841 -10.66525  -1.04285  -0.88458
 Alpha  occ. eigenvalues --   -0.59966  -0.54991  -0.50927  -0.44949  -0.39487
 Alpha  occ. eigenvalues --   -0.38920
 Alpha virt. eigenvalues --    0.03576   0.07025   0.07900   0.10216   0.11223
 Alpha virt. eigenvalues --    0.11804   0.15163   0.16393   0.17200   0.19905
 Alpha virt. eigenvalues --    0.20148   0.25220   0.32000   0.33225   0.35651

 Mulliken charges:
               1
     1  C   -0.078593
     2  C    0.003775
     3  N   -0.203403
     4  H    0.081884
     5  H    0.105060
     6  H    0.091277
 Sum of Mulliken charges =   0.00000

 Dipole moment (field-independent basis, Debye):
    X=             -4.1355    Y=              0.0048    Z=              0.0409  Tot=              4.1357
 Quadrupole moment (field-independent basis, Debye-Ang):
   XX=            -20.7564   YY=            -17.6409   ZZ=            -18.1437
   XY=             -0.0571   XZ=             -0.1923   YZ=              0.1052

 Normal termination of Gaussian 09 at Wed Aug 26 22:48:07 2020.
