 Gaussian 09, Revision D.01,
 Gaussian 09:  ES64L-G09RevD.01 24-Apr-2013

 --------------------
 #p B2PLYPD3/Def2QZVP
 --------------------

 ------------
 cyanomethane
 ------------
 Symbolic Z-matrix:
 Charge =  0 Multiplicity = 1

                         Standard orientation:
 ---------------------------------------------------------------------
 Center     Atomic      Atomic             Coordinates (Angstroms)
 Number     Number       Type             X           Y           Z
 ---------------------------------------------------------------------
      1          6           0       -1.204132    0.023459   -0.011814
      2          6           0        0.299181   -0.025345   -0.070221
      3          7           0        1.440135    0.002676    0.040592
      4          1           0       -1.439742    1.079517   -0.094810
      5          1           0       -1.616360   -0.397236    1.030804
      6          1           0       -1.595139   -0.689693   -0.727926
 ---------------------------------------------------------------------

 SCF Done:  E(RB2PLYPD3) =  -132.523319739     A.U. after   12 cycles
 E2(B2PLYPD3) =    -0.1805588350D+00 E(B2PLYPD3) =    -0.13270387857400D+03

 The electronic state is 1-A.
 Alpha  occ. eigenvalues --  -14.84002 -10.68586 -10.66138  -1.04334  -0.87803
 Alpha  occ. eigenvalues --   -0.58076  -0.55537  -0.50804  -0.44645  -0.39578
 Alpha  occ. eigenvalues --   -0.38987
 Alpha virt. eigenvalues --    0.03172   0.07183   0.08695   0.10222   0.10982
 Alpha virt. eigenvalues --    0.11645   0.14919   0.15936   0.16481   0.19879
 Alpha virt. eigenvalues --    0.20088   0.24755   0.31728   0.32715   0.35489

 Mulliken charges:
               1
     1  C   -0.104922
     2  C   -0.003511
     3  N   -0.200148
     4  H    0.113911
     5  H    0.090450
     6  H    0.104220
 Sum of Mulliken charges =   0.00000

 Dipole moment (field-independent basis, Debye):
    X=             -4.0946    Y=             -0.0208    Z=             -0.0561  Tot=              4.0951
 Quadrupole moment (field-independent basis, Debye-Ang):
   XX=            -21.2379   YY=            -17.4933   ZZ=            -18.0319
   XY=              0.1995   XZ=             -0.2966   YZ=              0.0675

 Normal termination of Gaussian 09 at Wed Aug 26 20:28:49 2020.
