 Gaussian 09, Revision D.01,
 Gaussian 09:  ES64L-G09RevD.01 24-Apr-2013

 --------------------
 #p B2PLYPD3/Def2QZVP
 --------------------

 ------------
 cyanomethane
 ------------
 Symbolic Z-matrix:
 Charge =  0 Multiplicity = 1

                         Standard orientation:
 ---------------------------------------------------------------------
 Center     Atomic      Atomic             Coordinates (Angstroms)
 Number     Number       Type             X           Y           Z
 ---------------------------------------------------------------------
      1          6           0        1.184643    0.002169   -0.007847
      2          6           0       -0.285322   -0.023537   -0.004453
      3          7           0       -1.434521    0.013694    0.004306
      4          1           0        1.563902   -0.006225    1.028260
      5          1           0        1.558755    0.918356   -0.478703
      6          1           0        1.523064   -0.879777   -0.505902
 ---------------------------------------------------------------------

 SCF Done:  E(RB2PLYPD3) =  -132.535082617     A.U. after   11 cycles
 E2(B2PLYPD3) =    -0.1800717143D+00 E(B2PLYPD3) =    -0.13271515433120D+03

 The electronic state is 1-A.
 Alpha  occ. eigenvalues --  -14.84053 -10.67234 -10.66137  -1.04263  -0.89012
 Alpha  occ. eigenvalues --   -0.59321  -0.54645  -0.53187  -0.44733  -0.39298
 Alpha  occ. eigenvalues --   -0.39130
 Alpha virt. eigenvalues --    0.03728   0.07813   0.08381   0.10199   0.11298
 Alpha virt. eigenvalues --    0.11586   0.15307   0.16065   0.16593   0.20007
 Alpha virt. eigenvalues --    0.20114   0.25142   0.32668   0.34282   0.35003

 Mulliken charges:
               1
     1  C   -0.087155
     2  C   -0.003352
     3  N   -0.203562
     4  H    0.094411
     5  H    0.099058
     6  H    0.100601
 Sum of Mulliken charges =   0.00000

 Dipole moment (field-independent basis, Debye):
    X=              4.1214    Y=             -0.0211    Z=              0.0056  Tot=              4.1215
 Quadrupole moment (field-independent basis, Debye-Ang):
   XX=            -21.0381   YY=            -17.6460   ZZ=            -17.8199
   XY=              0.1014   XZ=              0.0765   YZ=              0.0216

 Normal termination of Gaussian 09 at Thu Aug 27 00:09:11 2020.
