 Gaussian 09, Revision D.01,
 Gaussian 09:  ES64L-G09RevD.01 24-Apr-2013

 --------------------
 #p B2PLYPD3/Def2QZVP
 --------------------

 ------------
 cyanomethane
 ------------
 Symbolic Z-matrix:
 Charge =  0 Multiplicity = 1

                         Standard orientation:
 ---------------------------------------------------------------------
 Center     Atomic      Atomic             Coordinates (Angstroms)
 Number     Number       Type             X           Y           Z
 ---------------------------------------------------------------------
      1          6           0       -1.178268   -0.005548   -0.006176
      2          6           0        0.272038    0.002797    0.016208
      3          7           0        1.430548    0.002554   -0.007566
      4          1           0       -1.522792   -0.146510    0.985818
      5          1           0       -1.487620   -0.831010   -0.616135
      6          1           0       -1.566045    0.976149   -0.376915
 ---------------------------------------------------------------------

 SCF Done:  E(RB2PLYPD3) =  -132.533688277     A.U. after   12 cycles
 E2(B2PLYPD3) =    -0.1807381582D+00 E(B2PLYPD3) =    -0.13271442643511D+03

 The electronic state is 1-A.
 Alpha  occ. eigenvalues --  -14.84195 -10.66903 -10.66233  -1.03909  -0.89624
 Alpha  occ. eigenvalues --   -0.59438  -0.54865  -0.53884  -0.44707  -0.38923
 Alpha  occ. eigenvalues --   -0.38837
 Alpha virt. eigenvalues --    0.03759   0.07722   0.08269   0.10171   0.11368
 Alpha virt. eigenvalues --    0.11460   0.15354   0.15840   0.16426   0.20110
 Alpha virt. eigenvalues --    0.20153   0.25454   0.32703   0.34378   0.34872

 Mulliken charges:
               1
     1  C   -0.088944
     2  C   -0.001945
     3  N   -0.209595
     4  H    0.098557
     5  H    0.103044
     6  H    0.098883
 Sum of Mulliken charges =   0.00000

 Dipole moment (field-independent basis, Debye):
    X=             -4.1245    Y=             -0.0162    Z=              0.0342  Tot=              4.1247
 Quadrupole moment (field-independent basis, Debye-Ang):
   XX=            -21.1437   YY=            -17.6030   ZZ=            -17.8014
   XY=             -0.0471   XZ=             -0.0233   YZ=              0.0307

 Normal termination of Gaussian 09 at Wed Aug 26 15:09:40 2020.
