 Gaussian 09, Revision D.01,
 Gaussian 09:  ES64L-G09RevD.01 24-Apr-2013

 --------------------
 #p B2PLYPD3/Def2QZVP
 --------------------

 ------------
 cyanomethane
 ------------
 Symbolic Z-matrix:
 Charge =  0 Multiplicity = 1

                         Standard orientation:
 ---------------------------------------------------------------------
 Center     Atomic      Atomic             Coordinates (Angstroms)
 Number     Number       Type             X           Y           Z
 ---------------------------------------------------------------------
      1          6           0        1.178737   -0.007214   -0.011454
      2          6           0       -0.288780    0.008415    0.023936
      3          7           0       -1.438201   -0.000456   -0.014890
      4          1           0        1.629821    1.023346   -0.285273
      5          1           0        1.578190   -0.779293   -0.693170
      6          1           0        1.519656   -0.248072    1.007779
 ---------------------------------------------------------------------

 SCF Done:  E(RB2PLYPD3) =  -132.531489159     A.U. after   12 cycles
 E2(B2PLYPD3) =    -0.1806081909D+00 E(B2PLYPD3) =    -0.13271209734971D+03

 The electronic state is 1-A.
 Alpha  occ. eigenvalues --  -14.84175 -10.68153 -10.66285  -1.04329  -0.88303
 Alpha  occ. eigenvalues --   -0.59401  -0.53380  -0.52544  -0.44843  -0.39248
 Alpha  occ. eigenvalues --   -0.39096
 Alpha virt. eigenvalues --    0.03526   0.07240   0.07924   0.10162   0.11517
 Alpha virt. eigenvalues --    0.11597   0.15311   0.15852   0.17125   0.20041
 Alpha virt. eigenvalues --    0.20077   0.25234   0.32221   0.33844   0.34508

 Mulliken charges:
               1
     1  C   -0.093015
     2  C    0.000777
     3  N   -0.202054
     4  H    0.095767
     5  H    0.101163
     6  H    0.097363
 Sum of Mulliken charges =   0.00000

 Dipole moment (field-independent basis, Debye):
    X=              4.1131    Y=             -0.0197    Z=              0.0466  Tot=              4.1134
 Quadrupole moment (field-independent basis, Debye-Ang):
   XX=            -20.9997   YY=            -17.7429   ZZ=            -17.8787
   XY=              0.0080   XZ=             -0.0848   YZ=              0.0301

 Normal termination of Gaussian 09 at Wed Aug 26 12:45:59 2020.
