 Gaussian 09, Revision D.01,
 Gaussian 09:  ES64L-G09RevD.01 24-Apr-2013

 --------------------
 #p B2PLYPD3/Def2QZVP
 --------------------

 ------------
 cyanomethane
 ------------
 Symbolic Z-matrix:
 Charge =  0 Multiplicity = 1

                         Standard orientation:
 ---------------------------------------------------------------------
 Center     Atomic      Atomic             Coordinates (Angstroms)
 Number     Number       Type             X           Y           Z
 ---------------------------------------------------------------------
      1          6           0        1.169900   -0.010795   -0.003168
      2          6           0       -0.282731    0.005061    0.018884
      3          7           0       -1.429599    0.001180   -0.007196
      4          1           0        1.593016    1.020014   -0.142205
      5          1           0        1.512606   -0.608927   -0.813331
      6          1           0        1.578556   -0.384949    0.911619
 ---------------------------------------------------------------------

 SCF Done:  E(RB2PLYPD3) =  -132.534848070     A.U. after   11 cycles
 E2(B2PLYPD3) =    -0.1798092598D+00 E(B2PLYPD3) =    -0.13271465732966D+03

 The electronic state is 1-A.
 Alpha  occ. eigenvalues --  -14.84032 -10.66890 -10.66069  -1.04459  -0.89335
 Alpha  occ. eigenvalues --   -0.60150  -0.54538  -0.53092  -0.44825  -0.39349
 Alpha  occ. eigenvalues --   -0.39169
 Alpha virt. eigenvalues --    0.03773   0.07749   0.08256   0.10192   0.11478
 Alpha virt. eigenvalues --    0.11678   0.15497   0.16527   0.16563   0.20026
 Alpha virt. eigenvalues --    0.20081   0.25470   0.32785   0.34374   0.35199

 Mulliken charges:
               1
     1  C   -0.077267
     2  C   -0.001389
     3  N   -0.202147
     4  H    0.089654
     5  H    0.097062
     6  H    0.094088
 Sum of Mulliken charges =   0.00000

 Dipole moment (field-independent basis, Debye):
    X=              4.1195    Y=             -0.0116    Z=              0.0094  Tot=              4.1195
 Quadrupole moment (field-independent basis, Debye-Ang):
   XX=            -20.8698   YY=            -17.7714   ZZ=            -17.7358
   XY=              0.0345   XZ=             -0.0022   YZ=              0.0232

 Normal termination of Gaussian 09 at Thu Aug 27 00:09:12 2020.
