 Gaussian 09, Revision D.01,
 Gaussian 09:  ES64L-G09RevD.01 24-Apr-2013

 --------------------
 #p B2PLYPD3/Def2QZVP
 --------------------

 ------------
 cyanomethane
 ------------
 Symbolic Z-matrix:
 Charge =  0 Multiplicity = 1

                         Standard orientation:
 ---------------------------------------------------------------------
 Center     Atomic      Atomic             Coordinates (Angstroms)
 Number     Number       Type             X           Y           Z
 ---------------------------------------------------------------------
      1          6           0       -1.171566    0.004572   -0.001673
      2          6           0        0.294737   -0.056659    0.007527
      3          7           0        1.441907    0.031574   -0.015057
      4          1           0       -1.653369    1.058858   -0.085176
      5          1           0       -1.454629   -0.384584    0.942135
      6          1           0       -1.724377   -0.582766   -0.786682
 ---------------------------------------------------------------------

 SCF Done:  E(RB2PLYPD3) =  -132.525536157     A.U. after   12 cycles
 E2(B2PLYPD3) =    -0.1809119767D+00 E(B2PLYPD3) =    -0.13270644813366D+03

 The electronic state is 1-A.
 Alpha  occ. eigenvalues --  -14.84398 -10.67901 -10.66528  -1.04460  -0.88436
 Alpha  occ. eigenvalues --   -0.60286  -0.53676  -0.51444  -0.45043  -0.39314
 Alpha  occ. eigenvalues --   -0.39158
 Alpha virt. eigenvalues --    0.03339   0.06696   0.08221   0.10102   0.11420
 Alpha virt. eigenvalues --    0.11745   0.15324   0.15999   0.17799   0.19935
 Alpha virt. eigenvalues --    0.20350   0.25465   0.32237   0.33673   0.34827

 Mulliken charges:
               1
     1  C   -0.080797
     2  C    0.006443
     3  N   -0.201340
     4  H    0.089264
     5  H    0.096538
     6  H    0.089892
 Sum of Mulliken charges =   0.00000

 Dipole moment (field-independent basis, Debye):
    X=             -4.1200    Y=             -0.0634    Z=              0.0565  Tot=              4.1209
 Quadrupole moment (field-independent basis, Debye-Ang):
   XX=            -20.6402   YY=            -17.9318   ZZ=            -17.9185
   XY=             -0.1885   XZ=              0.1993   YZ=             -0.0362

 Normal termination of Gaussian 09 at Wed Aug 26 21:45:53 2020.
