 Gaussian 09, Revision D.01,
 Gaussian 09:  ES64L-G09RevD.01 24-Apr-2013

 --------------------
 #p B2PLYPD3/Def2QZVP
 --------------------

 ------------
 cyanomethane
 ------------
 Symbolic Z-matrix:
 Charge =  0 Multiplicity = 1

                         Standard orientation:
 ---------------------------------------------------------------------
 Center     Atomic      Atomic             Coordinates (Angstroms)
 Number     Number       Type             X           Y           Z
 ---------------------------------------------------------------------
      1          6           0       -1.164519   -0.002899    0.015516
      2          6           0        0.276001    0.029211   -0.013120
      3          7           0        1.433141   -0.017469    0.007365
      4          1           0       -1.526435    0.962686   -0.274778
      5          1           0       -1.606099   -0.277375    0.943705
      6          1           0       -1.568340   -0.720895   -0.734858
 ---------------------------------------------------------------------

 SCF Done:  E(RB2PLYPD3) =  -132.532995498     A.U. after   12 cycles
 E2(B2PLYPD3) =    -0.1808349338D+00 E(B2PLYPD3) =    -0.13271383043146D+03

 The electronic state is 1-A.
 Alpha  occ. eigenvalues --  -14.84383 -10.66733 -10.66401  -1.04078  -0.89600
 Alpha  occ. eigenvalues --   -0.60784  -0.54433  -0.53115  -0.44930  -0.39059
 Alpha  occ. eigenvalues --   -0.38845
 Alpha virt. eigenvalues --    0.03748   0.07416   0.08003   0.10071   0.11409
 Alpha virt. eigenvalues --    0.11649   0.15592   0.16020   0.17182   0.20061
 Alpha virt. eigenvalues --    0.20197   0.25738   0.32934   0.34230   0.35213

 Mulliken charges:
               1
     1  C   -0.071450
     2  C    0.002961
     3  N   -0.207669
     4  H    0.092682
     5  H    0.094866
     6  H    0.088609
 Sum of Mulliken charges =   0.00000

 Dipole moment (field-independent basis, Debye):
    X=             -4.1353    Y=              0.0288    Z=             -0.0178  Tot=              4.1354
 Quadrupole moment (field-independent basis, Debye-Ang):
   XX=            -20.7954   YY=            -17.7983   ZZ=            -17.8098
   XY=              0.1320   XZ=             -0.0534   YZ=             -0.0462

 Normal termination of Gaussian 09 at Wed Aug 26 10:54:38 2020.
