 Gaussian 09, Revision D.01,
 Gaussian 09:  ES64L-G09RevD.01 24-Apr-2013

 --------------------
 #p B2PLYPD3/Def2QZVP
 --------------------

 ------------
 cyanomethane
 ------------
 Symbolic Z-matrix:
 Charge =  0 Multiplicity = 1

                         Standard orientation:
 ---------------------------------------------------------------------
 Center     Atomic      Atomic             Coordinates (Angstroms)
 Number     Number       Type             X           Y           Z
 ---------------------------------------------------------------------
      1          6           0        1.170312    0.001952   -0.035777
      2          6           0       -0.258580    0.064797    0.009753
      3          7           0       -1.433222   -0.039726   -0.004280
      4          1           0        1.439414    1.006709    0.100520
      5          1           0        1.593678   -0.530769   -0.807097
      6          1           0        1.529071   -0.598354    0.892681
 ---------------------------------------------------------------------

 SCF Done:  E(RB2PLYPD3) =  -132.519140396     A.U. after   12 cycles
 E2(B2PLYPD3) =    -0.1829409886D+00 E(B2PLYPD3) =    -0.13270208138474D+03

 The electronic state is 1-A.
 Alpha  occ. eigenvalues --  -14.84811 -10.66823 -10.66652  -1.03238  -0.90203
 Alpha  occ. eigenvalues --   -0.61014  -0.56215  -0.52113  -0.44870  -0.38542
 Alpha  occ. eigenvalues --   -0.37952
 Alpha virt. eigenvalues --    0.03509   0.06718   0.08134   0.09747   0.11025
 Alpha virt. eigenvalues --    0.11770   0.15043   0.15790   0.17133   0.20048
 Alpha virt. eigenvalues --    0.20429   0.25978   0.32218   0.33439   0.35836

 Mulliken charges:
               1
     1  C   -0.083704
     2  C    0.007568
     3  N   -0.218872
     4  H    0.104912
     5  H    0.103396
     6  H    0.086700
 Sum of Mulliken charges =   0.00000

 Dipole moment (field-independent basis, Debye):
    X=              4.1277    Y=              0.0215    Z=              0.0192  Tot=              4.1278
 Quadrupole moment (field-independent basis, Debye-Ang):
   XX=            -21.1127   YY=            -17.5709   ZZ=            -17.9882
   XY=             -0.3809   XZ=             -0.0199   YZ=              0.1312

 Normal termination of Gaussian 09 at Wed Aug 26 22:08:35 2020.
