 Gaussian 09, Revision D.01,
 Gaussian 09:  ES64L-G09RevD.01 24-Apr-2013

 --------------------
 #p B2PLYPD3/Def2QZVP
 --------------------

 ------------
 cyanomethane
 ------------
 Symbolic Z-matrix:
 Charge =  0 Multiplicity = 1

                         Standard orientation:
 ---------------------------------------------------------------------
 Center     Atomic      Atomic             Coordinates (Angstroms)
 Number     Number       Type             X           Y           Z
 ---------------------------------------------------------------------
      1          6           0       -1.174726   -0.004512    0.002882
      2          6           0        0.285203    0.004805   -0.013255
      3          7           0        1.436037   -0.002302    0.003675
      4          1           0       -1.573392    1.004374   -0.114374
      5          1           0       -1.533946   -0.383822    0.930239
      6          1           0       -1.607782   -0.606193   -0.779355
 ---------------------------------------------------------------------

 SCF Done:  E(RB2PLYPD3) =  -132.535384755     A.U. after   11 cycles
 E2(B2PLYPD3) =    -0.1800534612D+00 E(B2PLYPD3) =    -0.13271543821660D+03

 The electronic state is 1-A.
 Alpha  occ. eigenvalues --  -14.84191 -10.66745 -10.66269  -1.04314  -0.89350
 Alpha  occ. eigenvalues --   -0.60366  -0.54059  -0.53586  -0.44871  -0.39273
 Alpha  occ. eigenvalues --   -0.39218
 Alpha virt. eigenvalues --    0.03815   0.07926   0.08105   0.10200   0.11474
 Alpha virt. eigenvalues --    0.11506   0.15468   0.16472   0.16772   0.20065
 Alpha virt. eigenvalues --    0.20071   0.25323   0.32802   0.34755   0.35090

 Mulliken charges:
               1
     1  C   -0.070715
     2  C   -0.000172
     3  N   -0.203922
     4  H    0.090437
     5  H    0.093346
     6  H    0.091024
 Sum of Mulliken charges =   0.00000

 Dipole moment (field-independent basis, Debye):
    X=             -4.1383    Y=              0.0003    Z=              0.0034  Tot=              4.1383
 Quadrupole moment (field-independent basis, Debye-Ang):
   XX=            -20.7779   YY=            -17.7811   ZZ=            -17.7941
   XY=              0.0230   XZ=              0.0102   YZ=             -0.0069

 Normal termination of Gaussian 09 at Thu Aug 27 00:11:44 2020.
