 Gaussian 09, Revision D.01,
 Gaussian 09:  ES64L-G09RevD.01 24-Apr-2013

 --------------------
 #p B2PLYPD3/Def2QZVP
 --------------------

 ------------
 cyanomethane
 ------------
 Symbolic Z-matrix:
 Charge =  0 Multiplicity = 1

                         Standard orientation:
 ---------------------------------------------------------------------
 Center     Atomic      Atomic             Coordinates (Angstroms)
 Number     Number       Type             X           Y           Z
 ---------------------------------------------------------------------
      1          6           0       -1.184924    0.013911   -0.002187
      2          6           0        0.275856    0.020640   -0.052617
      3          7           0        1.415168   -0.016909    0.027706
      4          1           0       -1.421418    1.028162   -0.075408
      5          1           0       -1.510415   -0.444084    1.000470
      6          1           0       -1.519933   -0.673017   -0.790177
 ---------------------------------------------------------------------

 SCF Done:  E(RB2PLYPD3) =  -132.528162641     A.U. after   12 cycles
 E2(B2PLYPD3) =    -0.1797310382D+00 E(B2PLYPD3) =    -0.13270789367899D+03

 The electronic state is 1-A.
 Alpha  occ. eigenvalues --  -14.83598 -10.67397 -10.65597  -1.04448  -0.89310
 Alpha  occ. eigenvalues --   -0.57945  -0.56303  -0.52691  -0.44477  -0.39358
 Alpha  occ. eigenvalues --   -0.38934
 Alpha virt. eigenvalues --    0.03545   0.07647   0.08980   0.10173   0.11342
 Alpha virt. eigenvalues --    0.11764   0.15194   0.15602   0.16098   0.20018
 Alpha virt. eigenvalues --    0.20105   0.25329   0.32760   0.33169   0.35408

 Mulliken charges:
               1
     1  C   -0.109650
     2  C   -0.006357
     3  N   -0.202304
     4  H    0.113058
     5  H    0.099556
     6  H    0.105697
 Sum of Mulliken charges =   0.00000

 Dipole moment (field-independent basis, Debye):
    X=             -4.0512    Y=              0.0085    Z=             -0.0323  Tot=              4.0514
 Quadrupole moment (field-independent basis, Debye-Ang):
   XX=            -21.4991   YY=            -17.4265   ZZ=            -17.7357
   XY=              0.2225   XZ=             -0.1828   YZ=              0.0431

 Normal termination of Gaussian 09 at Wed Aug 26 19:39:18 2020.
