 Gaussian 09, Revision D.01,
 Gaussian 09:  ES64L-G09RevD.01 24-Apr-2013

 --------------------
 #p B2PLYPD3/Def2QZVP
 --------------------

 ------------
 cyanomethane
 ------------
 Symbolic Z-matrix:
 Charge =  0 Multiplicity = 1

                         Standard orientation:
 ---------------------------------------------------------------------
 Center     Atomic      Atomic             Coordinates (Angstroms)
 Number     Number       Type             X           Y           Z
 ---------------------------------------------------------------------
      1          6           0        1.181464    0.018081    0.015909
      2          6           0       -0.271059   -0.012630   -0.033472
      3          7           0       -1.430446    0.000789    0.010385
      4          1           0        1.475761    1.002998   -0.147731
      5          1           0        1.609542   -0.660405   -0.760270
      6          1           0        1.465390   -0.380820    0.940685
 ---------------------------------------------------------------------

 SCF Done:  E(RB2PLYPD3) =  -132.531221919     A.U. after   12 cycles
 E2(B2PLYPD3) =    -0.1807208177D+00 E(B2PLYPD3) =    -0.13271194273639D+03

 The electronic state is 1-A.
 Alpha  occ. eigenvalues --  -14.84220 -10.66480 -10.66255  -1.03847  -0.89969
 Alpha  occ. eigenvalues --   -0.59408  -0.56238  -0.53445  -0.44687  -0.39018
 Alpha  occ. eigenvalues --   -0.38728
 Alpha virt. eigenvalues --    0.03849   0.07751   0.08507   0.10185   0.11151
 Alpha virt. eigenvalues --    0.11542   0.15316   0.15988   0.16211   0.20092
 Alpha virt. eigenvalues --    0.20171   0.25466   0.32501   0.34476   0.35543

 Mulliken charges:
               1
     1  C   -0.085030
     2  C   -0.002341
     3  N   -0.211054
     4  H    0.105286
     5  H    0.090990
     6  H    0.102149
 Sum of Mulliken charges =   0.00000

 Dipole moment (field-independent basis, Debye):
    X=              4.1268    Y=             -0.0134    Z=             -0.0003  Tot=              4.1268
 Quadrupole moment (field-independent basis, Debye-Ang):
   XX=            -21.1264   YY=            -17.5848   ZZ=            -17.7937
   XY=             -0.1008   XZ=             -0.0114   YZ=             -0.0821

 Normal termination of Gaussian 09 at Wed Aug 26 16:14:57 2020.
