 Gaussian 09, Revision D.01,
 Gaussian 09:  ES64L-G09RevD.01 24-Apr-2013

 --------------------
 #p B2PLYPD3/Def2QZVP
 --------------------

 ------------
 cyanomethane
 ------------
 Symbolic Z-matrix:
 Charge =  0 Multiplicity = 1

                         Standard orientation:
 ---------------------------------------------------------------------
 Center     Atomic      Atomic             Coordinates (Angstroms)
 Number     Number       Type             X           Y           Z
 ---------------------------------------------------------------------
      1          6           0        1.170325   -0.005888   -0.022048
      2          6           0       -0.295470   -0.020246    0.069447
      3          7           0       -1.427217    0.016203   -0.036873
      4          1           0        1.646845    1.067716   -0.164630
      5          1           0        1.567134   -0.665944   -0.771238
      6          1           0        1.527411   -0.358388    0.909584
 ---------------------------------------------------------------------

 SCF Done:  E(RB2PLYPD3) =  -132.527218038     A.U. after   12 cycles
 E2(B2PLYPD3) =    -0.1795268710D+00 E(B2PLYPD3) =    -0.13270674490906D+03

 The electronic state is 1-A.
 Alpha  occ. eigenvalues --  -14.83902 -10.67519 -10.65919  -1.04928  -0.88638
 Alpha  occ. eigenvalues --   -0.59781  -0.53900  -0.52178  -0.44893  -0.39660
 Alpha  occ. eigenvalues --   -0.39431
 Alpha virt. eigenvalues --    0.03366   0.07283   0.08625   0.10065   0.11540
 Alpha virt. eigenvalues --    0.11723   0.15481   0.15634   0.17901   0.19862
 Alpha virt. eigenvalues --    0.20164   0.25631   0.32366   0.33899   0.35017

 Mulliken charges:
               1
     1  C   -0.086326
     2  C    0.001047
     3  N   -0.194714
     4  H    0.090393
     5  H    0.097377
     6  H    0.092224
 Sum of Mulliken charges =   0.00000

 Dipole moment (field-independent basis, Debye):
    X=              4.0747    Y=             -0.0715    Z=              0.0941  Tot=              4.0764
 Quadrupole moment (field-independent basis, Debye-Ang):
   XX=            -20.8234   YY=            -17.6805   ZZ=            -17.8818
   XY=              0.0755   XZ=             -0.1734   YZ=              0.0493

 Normal termination of Gaussian 09 at Wed Aug 26 23:52:58 2020.
