 Gaussian 09, Revision D.01,
 Gaussian 09:  ES64L-G09RevD.01 24-Apr-2013

 --------------------
 #p B2PLYPD3/Def2QZVP
 --------------------

 ------------
 cyanomethane
 ------------
 Symbolic Z-matrix:
 Charge =  0 Multiplicity = 1

                         Standard orientation:
 ---------------------------------------------------------------------
 Center     Atomic      Atomic             Coordinates (Angstroms)
 Number     Number       Type             X           Y           Z
 ---------------------------------------------------------------------
      1          6           0        1.165552   -0.003037    0.003081
      2          6           0       -0.270671    0.025108   -0.000947
      3          7           0       -1.433829   -0.012147    0.000128
      4          1           0        1.564730    1.013841   -0.114727
      5          1           0        1.550826   -0.629106   -0.813232
      6          1           0        1.551963   -0.432134    0.914262
 ---------------------------------------------------------------------

 SCF Done:  E(RB2PLYPD3) =  -132.534124946     A.U. after   11 cycles
 E2(B2PLYPD3) =    -0.1813326433D+00 E(B2PLYPD3) =    -0.13271545758939D+03

 The electronic state is 1-A.
 Alpha  occ. eigenvalues --  -14.84469 -10.67000 -10.66476  -1.03827  -0.89528
 Alpha  occ. eigenvalues --   -0.60383  -0.54114  -0.53566  -0.44890  -0.38799
 Alpha  occ. eigenvalues --   -0.38718
 Alpha virt. eigenvalues --    0.03743   0.07465   0.07631   0.10101   0.11389
 Alpha virt. eigenvalues --    0.11576   0.15553   0.16316   0.16473   0.20093
 Alpha virt. eigenvalues --    0.20186   0.25747   0.32816   0.34428   0.34739

 Mulliken charges:
               1
     1  C   -0.078014
     2  C    0.001788
     3  N   -0.210407
     4  H    0.095860
     5  H    0.094661
     6  H    0.096112
 Sum of Mulliken charges =   0.00000

 Dipole moment (field-independent basis, Debye):
    X=              4.1371    Y=              0.0001    Z=              0.0037  Tot=              4.1371
 Quadrupole moment (field-independent basis, Debye-Ang):
   XX=            -20.9354   YY=            -17.7217   ZZ=            -17.8590
   XY=             -0.0941   XZ=              0.0078   YZ=             -0.0151

 Normal termination of Gaussian 09 at Wed Aug 26 23:57:26 2020.
