 Gaussian 09, Revision D.01,
 Gaussian 09:  ES64L-G09RevD.01 24-Apr-2013

 --------------------
 #p B2PLYPD3/Def2QZVP
 --------------------

 ------------
 cyanomethane
 ------------
 Symbolic Z-matrix:
 Charge =  0 Multiplicity = 1

                         Standard orientation:
 ---------------------------------------------------------------------
 Center     Atomic      Atomic             Coordinates (Angstroms)
 Number     Number       Type             X           Y           Z
 ---------------------------------------------------------------------
      1          6           0       -1.173174    0.003486   -0.004594
      2          6           0        0.282675    0.003034   -0.012045
      3          7           0        1.436233   -0.001527    0.004023
      4          1           0       -1.578983    1.037982   -0.042694
      5          1           0       -1.532755   -0.474290    0.953866
      6          1           0       -1.598895   -0.592116   -0.839503
 ---------------------------------------------------------------------

 SCF Done:  E(RB2PLYPD3) =  -132.533514520     A.U. after   12 cycles
 E2(B2PLYPD3) =    -0.1807981992D+00 E(B2PLYPD3) =    -0.13271431271899D+03

 The electronic state is 1-A.
 Alpha  occ. eigenvalues --  -14.84241 -10.67936 -10.66322  -1.04194  -0.88585
 Alpha  occ. eigenvalues --   -0.59683  -0.53479  -0.52806  -0.44853  -0.39121
 Alpha  occ. eigenvalues --   -0.38952
 Alpha virt. eigenvalues --    0.03603   0.07472   0.07566   0.10166   0.11470
 Alpha virt. eigenvalues --    0.11668   0.15371   0.16213   0.16688   0.20053
 Alpha virt. eigenvalues --    0.20097   0.25376   0.32506   0.33832   0.34570

 Mulliken charges:
               1
     1  C   -0.089885
     2  C    0.000879
     3  N   -0.204291
     4  H    0.099022
     5  H    0.096222
     6  H    0.098052
 Sum of Mulliken charges =   0.00000

 Dipole moment (field-independent basis, Debye):
    X=             -4.1195    Y=             -0.0047    Z=              0.0026  Tot=              4.1195
 Quadrupole moment (field-independent basis, Debye-Ang):
   XX=            -20.9979   YY=            -17.7637   ZZ=            -17.8488
   XY=              0.0193   XZ=              0.0033   YZ=              0.0181

 Normal termination of Gaussian 09 at Thu Aug 27 00:12:37 2020.
