 Gaussian 09, Revision D.01,
 Gaussian 09:  ES64L-G09RevD.01 24-Apr-2013

 --------------------
 #p B2PLYPD3/Def2QZVP
 --------------------

 ------------
 cyanomethane
 ------------
 Symbolic Z-matrix:
 Charge =  0 Multiplicity = 1

                         Standard orientation:
 ---------------------------------------------------------------------
 Center     Atomic      Atomic             Coordinates (Angstroms)
 Number     Number       Type             X           Y           Z
 ---------------------------------------------------------------------
      1          6           0       -1.170684    0.008524    0.001270
      2          6           0        0.280788   -0.015522   -0.008765
      3          7           0        1.430183    0.004373    0.004016
      4          1           0       -1.519419    1.030381   -0.096105
      5          1           0       -1.567240   -0.419210    0.917988
      6          1           0       -1.585247   -0.599794   -0.805027
 ---------------------------------------------------------------------

 SCF Done:  E(RB2PLYPD3) =  -132.535866863     A.U. after   11 cycles
 E2(B2PLYPD3) =    -0.1800333461D+00 E(B2PLYPD3) =    -0.13271590020942D+03

 The electronic state is 1-A.
 Alpha  occ. eigenvalues --  -14.84078 -10.66967 -10.66115  -1.04346  -0.89306
 Alpha  occ. eigenvalues --   -0.60047  -0.54302  -0.53366  -0.44812  -0.39231
 Alpha  occ. eigenvalues --   -0.39119
 Alpha virt. eigenvalues --    0.03780   0.07896   0.08006   0.10185   0.11488
 Alpha virt. eigenvalues --    0.11626   0.15466   0.16395   0.16574   0.20039
 Alpha virt. eigenvalues --    0.20096   0.25487   0.32874   0.34559   0.34867

 Mulliken charges:
               1
     1  C   -0.079004
     2  C   -0.001329
     3  N   -0.203589
     4  H    0.098087
     5  H    0.093274
     6  H    0.092562
 Sum of Mulliken charges =   0.00000

 Dipole moment (field-independent basis, Debye):
    X=             -4.1228    Y=             -0.0170    Z=             -0.0003  Tot=              4.1228
 Quadrupole moment (field-independent basis, Debye-Ang):
   XX=            -20.9125   YY=            -17.6626   ZZ=            -17.8414
   XY=              0.0544   XZ=             -0.0287   YZ=             -0.0087

 Normal termination of Gaussian 09 at Wed Aug 26 15:42:27 2020.
