 Gaussian 09, Revision D.01,
 Gaussian 09:  ES64L-G09RevD.01 24-Apr-2013

 --------------------
 #p B2PLYPD3/Def2QZVP
 --------------------

 ------------
 cyanomethane
 ------------
 Symbolic Z-matrix:
 Charge =  0 Multiplicity = 1

                         Standard orientation:
 ---------------------------------------------------------------------
 Center     Atomic      Atomic             Coordinates (Angstroms)
 Number     Number       Type             X           Y           Z
 ---------------------------------------------------------------------
      1          6           0        1.173067    0.008692   -0.003535
      2          6           0       -0.267915   -0.001772    0.031885
      3          7           0       -1.423650    0.007272   -0.018778
      4          1           0        1.491630   -0.588921   -0.898242
      5          1           0        1.437776   -0.536807    0.901674
      6          1           0        1.605241    1.033306   -0.042088
 ---------------------------------------------------------------------

 SCF Done:  E(RB2PLYPD3) =  -132.531392183     A.U. after   12 cycles
 E2(B2PLYPD3) =    -0.1809848571D+00 E(B2PLYPD3) =    -0.13271237704021D+03

 The electronic state is 1-A.
 Alpha  occ. eigenvalues --  -14.84069 -10.67568 -10.66101  -1.03978  -0.89330
 Alpha  occ. eigenvalues --   -0.58985  -0.54435  -0.53567  -0.44654  -0.38857
 Alpha  occ. eigenvalues --   -0.38652
 Alpha virt. eigenvalues --    0.03619   0.07353   0.08147   0.10106   0.11439
 Alpha virt. eigenvalues --    0.11677   0.15237   0.15415   0.16722   0.20104
 Alpha virt. eigenvalues --    0.20182   0.25633   0.32715   0.33742   0.34556

 Mulliken charges:
               1
     1  C   -0.104541
     2  C    0.000278
     3  N   -0.209194
     4  H    0.102946
     5  H    0.104956
     6  H    0.105556
 Sum of Mulliken charges =   0.00000

 Dipole moment (field-independent basis, Debye):
    X=              4.0964    Y=             -0.0300    Z=              0.0286  Tot=              4.0967
 Quadrupole moment (field-independent basis, Debye-Ang):
   XX=            -21.3325   YY=            -17.6202   ZZ=            -17.7454
   XY=              0.1212   XZ=             -0.1450   YZ=             -0.0260

 Normal termination of Gaussian 09 at Wed Aug 26 22:47:40 2020.
