 Gaussian 09, Revision D.01,
 Gaussian 09:  ES64L-G09RevD.01 24-Apr-2013

 --------------------
 #p B2PLYPD3/Def2QZVP
 --------------------

 ------------
 cyanomethane
 ------------
 Symbolic Z-matrix:
 Charge =  0 Multiplicity = 1

                         Standard orientation:
 ---------------------------------------------------------------------
 Center     Atomic      Atomic             Coordinates (Angstroms)
 Number     Number       Type             X           Y           Z
 ---------------------------------------------------------------------
      1          6           0        1.177834    0.007388    0.004043
      2          6           0       -0.277009   -0.001916   -0.019058
      3          7           0       -1.440500   -0.001726    0.005044
      4          1           0        1.550965    0.982655   -0.248989
      5          1           0        1.622403   -0.738370   -0.686289
      6          1           0        1.505179   -0.265035    0.990065
 ---------------------------------------------------------------------

 SCF Done:  E(RB2PLYPD3) =  -132.534053800     A.U. after   12 cycles
 E2(B2PLYPD3) =    -0.1812465132D+00 E(B2PLYPD3) =    -0.13271530031289D+03

 The electronic state is 1-A.
 Alpha  occ. eigenvalues --  -14.84491 -10.67022 -10.66572  -1.03783  -0.89357
 Alpha  occ. eigenvalues --   -0.60064  -0.54524  -0.53313  -0.44864  -0.38930
 Alpha  occ. eigenvalues --   -0.38794
 Alpha virt. eigenvalues --    0.03761   0.07501   0.07931   0.10175   0.11274
 Alpha virt. eigenvalues --    0.11479   0.15401   0.16184   0.16593   0.20101
 Alpha virt. eigenvalues --    0.20158   0.25397   0.32558   0.34517   0.34958

 Mulliken charges:
               1
     1  C   -0.078228
     2  C    0.000946
     3  N   -0.210338
     4  H    0.098269
     5  H    0.092242
     6  H    0.097109
 Sum of Mulliken charges =   0.00000

 Dipole moment (field-independent basis, Debye):
    X=              4.1485    Y=             -0.0021    Z=              0.0112  Tot=              4.1485
 Quadrupole moment (field-independent basis, Debye-Ang):
   XX=            -20.9222   YY=            -17.7471   ZZ=            -17.8550
   XY=             -0.0570   XZ=             -0.0101   YZ=             -0.0382

 Normal termination of Gaussian 09 at Wed Aug 26 23:59:52 2020.
