 Gaussian 09, Revision D.01,
 Gaussian 09:  ES64L-G09RevD.01 24-Apr-2013

 --------------------
 #p B2PLYPD3/Def2QZVP
 --------------------

 ------------
 cyanomethane
 ------------
 Symbolic Z-matrix:
 Charge =  0 Multiplicity = 1

                         Standard orientation:
 ---------------------------------------------------------------------
 Center     Atomic      Atomic             Coordinates (Angstroms)
 Number     Number       Type             X           Y           Z
 ---------------------------------------------------------------------
      1          6           0       -1.173612   -0.009086    0.039822
      2          6           0        0.262749   -0.033071   -0.010733
      3          7           0        1.419409    0.016890   -0.005430
      4          1           0       -1.397571   -0.210812    0.919858
      5          1           0       -1.568576   -0.711348   -0.741460
      6          1           0       -1.504534    1.056867   -0.314927
 ---------------------------------------------------------------------

 SCF Done:  E(RB2PLYPD3) =  -132.507760729     A.U. after   12 cycles
 E2(B2PLYPD3) =    -0.1807459565D+00 E(B2PLYPD3) =    -0.13268850668595D+03

 The electronic state is 1-A.
 Alpha  occ. eigenvalues --  -14.84056 -10.66464 -10.66026  -1.03983  -0.90663
 Alpha  occ. eigenvalues --   -0.59961  -0.57137  -0.52368  -0.44625  -0.39110
 Alpha  occ. eigenvalues --   -0.38421
 Alpha virt. eigenvalues --    0.03579   0.07131   0.09067   0.10101   0.11098
 Alpha virt. eigenvalues --    0.11826   0.15425   0.15885   0.15944   0.20073
 Alpha virt. eigenvalues --    0.20211   0.25655   0.32104   0.32791   0.35748

 Mulliken charges:
               1
     1  C   -0.112995
     2  C    0.000047
     3  N   -0.211425
     4  H    0.125235
     5  H    0.100270
     6  H    0.098869
 Sum of Mulliken charges =   0.00000

 Dipole moment (field-independent basis, Debye):
    X=             -4.0860    Y=             -0.0240    Z=             -0.0126  Tot=              4.0861
 Quadrupole moment (field-independent basis, Debye-Ang):
   XX=            -21.3152   YY=            -17.6939   ZZ=            -17.5478
   XY=             -0.0681   XZ=              0.1903   YZ=             -0.0579

 Normal termination of Gaussian 09 at Wed Aug 26 21:45:52 2020.
