 Gaussian 09, Revision D.01,
 Gaussian 09:  ES64L-G09RevD.01 24-Apr-2013

 --------------------
 #p B2PLYPD3/Def2QZVP
 --------------------

 ------------
 cyanomethane
 ------------
 Symbolic Z-matrix:
 Charge =  0 Multiplicity = 1

                         Standard orientation:
 ---------------------------------------------------------------------
 Center     Atomic      Atomic             Coordinates (Angstroms)
 Number     Number       Type             X           Y           Z
 ---------------------------------------------------------------------
      1          6           0        1.162551   -0.005527   -0.002314
      2          6           0       -0.279472    0.056819   -0.028895
      3          7           0       -1.413336   -0.016987    0.004803
      4          1           0        1.544434   -0.719693   -0.760206
      5          1           0        1.337833   -0.448683    1.002580
      6          1           0        1.712613    0.979531   -0.088745
 ---------------------------------------------------------------------

 SCF Done:  E(RB2PLYPD3) =  -132.530904025     A.U. after   12 cycles
 E2(B2PLYPD3) =    -0.1794628439D+00 E(B2PLYPD3) =    -0.13271036686838D+03

 The electronic state is 1-A.
 Alpha  occ. eigenvalues --  -14.83572 -10.67772 -10.65646  -1.04855  -0.88911
 Alpha  occ. eigenvalues --   -0.59335  -0.53474  -0.53327  -0.44665  -0.39416
 Alpha  occ. eigenvalues --   -0.39082
 Alpha virt. eigenvalues --    0.03615   0.07538   0.08050   0.10285   0.11697
 Alpha virt. eigenvalues --    0.12129   0.15211   0.15798   0.17123   0.19964
 Alpha virt. eigenvalues --    0.20107   0.25763   0.32444   0.33725   0.34856

 Mulliken charges:
               1
     1  C   -0.104683
     2  C   -0.000360
     3  N   -0.197775
     4  H    0.100719
     5  H    0.103578
     6  H    0.098521
 Sum of Mulliken charges =   0.00000

 Dipole moment (field-independent basis, Debye):
    X=              4.0735    Y=             -0.0070    Z=              0.0197  Tot=              4.0735
 Quadrupole moment (field-independent basis, Debye-Ang):
   XX=            -21.1123   YY=            -17.6503   ZZ=            -17.7580
   XY=              0.0336   XZ=             -0.0987   YZ=              0.0148

 Normal termination of Gaussian 09 at Wed Aug 26 18:42:50 2020.
