 Gaussian 09, Revision D.01,
 Gaussian 09:  ES64L-G09RevD.01 24-Apr-2013

 --------------------
 #p B2PLYPD3/Def2QZVP
 --------------------

 ------------
 cyanomethane
 ------------
 Symbolic Z-matrix:
 Charge =  0 Multiplicity = 1

                         Standard orientation:
 ---------------------------------------------------------------------
 Center     Atomic      Atomic             Coordinates (Angstroms)
 Number     Number       Type             X           Y           Z
 ---------------------------------------------------------------------
      1          6           0        1.156749   -0.029479   -0.029944
      2          6           0       -0.268270   -0.035256    0.043544
      3          7           0       -1.425443    0.021804   -0.012732
      4          1           0        1.470193   -0.446014   -0.864518
      5          1           0        1.629444   -0.415403    0.883595
      6          1           0        1.547593    1.097201   -0.011557
 ---------------------------------------------------------------------

 SCF Done:  E(RB2PLYPD3) =  -132.519180052     A.U. after   11 cycles
 E2(B2PLYPD3) =    -0.1812185212D+00 E(B2PLYPD3) =    -0.13270039857295D+03

 The electronic state is 1-A.
 Alpha  occ. eigenvalues --  -14.84370 -10.66824 -10.66316  -1.04049  -0.89958
 Alpha  occ. eigenvalues --   -0.60837  -0.56495  -0.51362  -0.44912  -0.39170
 Alpha  occ. eigenvalues --   -0.38316
 Alpha virt. eigenvalues --    0.03418   0.06914   0.08166   0.10071   0.11187
 Alpha virt. eigenvalues --    0.11998   0.15615   0.16078   0.16915   0.19978
 Alpha virt. eigenvalues --    0.20221   0.26016   0.31958   0.33092   0.36144

 Mulliken charges:
               1
     1  C   -0.082082
     2  C    0.005179
     3  N   -0.209087
     4  H    0.108494
     5  H    0.093601
     6  H    0.083895
 Sum of Mulliken charges =   0.00000

 Dipole moment (field-independent basis, Debye):
    X=              4.1086    Y=             -0.0220    Z=              0.0284  Tot=              4.1088
 Quadrupole moment (field-independent basis, Debye-Ang):
   XX=            -20.9290   YY=            -17.9141   ZZ=            -17.6448
   XY=              0.1667   XZ=              0.0778   YZ=              0.1165

 Normal termination of Gaussian 09 at Wed Aug 26 22:07:31 2020.
