 Gaussian 09, Revision D.01,
 Gaussian 09:  ES64L-G09RevD.01 24-Apr-2013

 --------------------
 #p B2PLYPD3/Def2QZVP
 --------------------

 ------------
 cyanomethane
 ------------
 Symbolic Z-matrix:
 Charge =  0 Multiplicity = 1

                         Standard orientation:
 ---------------------------------------------------------------------
 Center     Atomic      Atomic             Coordinates (Angstroms)
 Number     Number       Type             X           Y           Z
 ---------------------------------------------------------------------
      1          6           0       -1.175911   -0.012369   -0.000742
      2          6           0        0.286525    0.028020    0.000483
      3          7           0        1.433093   -0.012653   -0.000023
      4          1           0       -1.565849   -0.124393    1.010011
      5          1           0       -1.555076   -0.819421   -0.609687
      6          1           0       -1.574411    0.938477   -0.398614
 ---------------------------------------------------------------------

 SCF Done:  E(RB2PLYPD3) =  -132.535696715     A.U. after   11 cycles
 E2(B2PLYPD3) =    -0.1799021168D+00 E(B2PLYPD3) =    -0.13271559883147D+03

 The electronic state is 1-A.
 Alpha  occ. eigenvalues --  -14.84056 -10.67189 -10.66124  -1.04435  -0.88988
 Alpha  occ. eigenvalues --   -0.59860  -0.53940  -0.53332  -0.44819  -0.39347
 Alpha  occ. eigenvalues --   -0.39232
 Alpha virt. eigenvalues --    0.03746   0.07960   0.07990   0.10178   0.11509
 Alpha virt. eigenvalues --    0.11564   0.15426   0.16235   0.16811   0.20028
 Alpha virt. eigenvalues --    0.20059   0.25330   0.32735   0.34427   0.34945

 Mulliken charges:
               1
     1  C   -0.080775
     2  C   -0.001542
     3  N   -0.201726
     4  H    0.094713
     5  H    0.097271
     6  H    0.092060
 Sum of Mulliken charges =   0.00000

 Dipole moment (field-independent basis, Debye):
    X=             -4.1186    Y=              0.0185    Z=              0.0027  Tot=              4.1187
 Quadrupole moment (field-independent basis, Debye-Ang):
   XX=            -20.9048   YY=            -17.7595   ZZ=            -17.7695
   XY=              0.0566   XZ=             -0.0095   YZ=              0.0257

 Normal termination of Gaussian 09 at Wed Aug 26 09:38:54 2020.
