 Gaussian 09, Revision D.01,
 Gaussian 09:  ES64L-G09RevD.01 24-Apr-2013

 --------------------
 #p B2PLYPD3/Def2QZVP
 --------------------

 ------------
 cyanomethane
 ------------
 Symbolic Z-matrix:
 Charge =  0 Multiplicity = 1

                         Standard orientation:
 ---------------------------------------------------------------------
 Center     Atomic      Atomic             Coordinates (Angstroms)
 Number     Number       Type             X           Y           Z
 ---------------------------------------------------------------------
      1          6           0        1.179549   -0.004174   -0.007652
      2          6           0       -0.274633    0.019742    0.015964
      3          7           0       -1.439727   -0.007550   -0.004123
      4          1           0        1.586170   -0.298587    0.966287
      5          1           0        1.568652    0.990175   -0.253510
      6          1           0        1.493768   -0.732140   -0.733793
 ---------------------------------------------------------------------

 SCF Done:  E(RB2PLYPD3) =  -132.534235488     A.U. after   11 cycles
 E2(B2PLYPD3) =    -0.1814249383D+00 E(B2PLYPD3) =    -0.13271566042648D+03

 The electronic state is 1-A.
 Alpha  occ. eigenvalues --  -14.84498 -10.67130 -10.66572  -1.03684  -0.89327
 Alpha  occ. eigenvalues --   -0.59804  -0.54428  -0.53565  -0.44825  -0.38820
 Alpha  occ. eigenvalues --   -0.38747
 Alpha virt. eigenvalues --    0.03746   0.07598   0.07796   0.10163   0.11288
 Alpha virt. eigenvalues --    0.11412   0.15363   0.16231   0.16296   0.20113
 Alpha virt. eigenvalues --    0.20162   0.25418   0.32573   0.34464   0.34802

 Mulliken charges:
               1
     1  C   -0.083337
     2  C    0.000595
     3  N   -0.211460
     4  H    0.095152
     5  H    0.097923
     6  H    0.101127
 Sum of Mulliken charges =   0.00000

 Dipole moment (field-independent basis, Debye):
    X=              4.1439    Y=             -0.0013    Z=              0.0070  Tot=              4.1439
 Quadrupole moment (field-independent basis, Debye-Ang):
   XX=            -21.0169   YY=            -17.7250   ZZ=            -17.8408
   XY=             -0.0242   XZ=              0.0458   YZ=              0.0226

 Normal termination of Gaussian 09 at Wed Aug 26 09:50:39 2020.
