 Gaussian 09, Revision D.01,
 Gaussian 09:  ES64L-G09RevD.01 24-Apr-2013

 --------------------
 #p B2PLYPD3/Def2QZVP
 --------------------

 ------------
 cyanomethane
 ------------
 Symbolic Z-matrix:
 Charge =  0 Multiplicity = 1

                         Standard orientation:
 ---------------------------------------------------------------------
 Center     Atomic      Atomic             Coordinates (Angstroms)
 Number     Number       Type             X           Y           Z
 ---------------------------------------------------------------------
      1          6           0        1.184580   -0.003569   -0.008161
      2          6           0       -0.275249    0.018847    0.016309
      3          7           0       -1.439478   -0.007312   -0.004678
      4          1           0        1.574051   -0.228289    1.002003
      5          1           0        1.554635    0.984884   -0.328318
      6          1           0        1.491671   -0.797078   -0.689823
 ---------------------------------------------------------------------

 SCF Done:  E(RB2PLYPD3) =  -132.533855568     A.U. after   11 cycles
 E2(B2PLYPD3) =    -0.1814768420D+00 E(B2PLYPD3) =    -0.13271533241014D+03

 The electronic state is 1-A.
 Alpha  occ. eigenvalues --  -14.84425 -10.67536 -10.66516  -1.03669  -0.89036
 Alpha  occ. eigenvalues --   -0.59243  -0.54303  -0.53506  -0.44755  -0.38807
 Alpha  occ. eigenvalues --   -0.38730
 Alpha virt. eigenvalues --    0.03682   0.07615   0.07765   0.10167   0.11276
 Alpha virt. eigenvalues --    0.11402   0.15254   0.16088   0.16146   0.20112
 Alpha virt. eigenvalues --    0.20156   0.25295   0.32444   0.34231   0.34583

 Mulliken charges:
               1
     1  C   -0.093154
     2  C   -0.000150
     3  N   -0.211182
     4  H    0.098492
     5  H    0.101736
     6  H    0.104257
 Sum of Mulliken charges =   0.00000

 Dipole moment (field-independent basis, Debye):
    X=              4.1340    Y=              0.0006    Z=              0.0100  Tot=              4.1340
 Quadrupole moment (field-independent basis, Debye-Ang):
   XX=            -21.1617   YY=            -17.6981   ZZ=            -17.8259
   XY=             -0.0203   XZ=              0.0417   YZ=              0.0152

 Normal termination of Gaussian 09 at Wed Aug 26 09:37:53 2020.
