 Gaussian 09, Revision D.01,
 Gaussian 09:  ES64L-G09RevD.01 24-Apr-2013

 --------------------
 #p B2PLYPD3/Def2QZVP
 --------------------

 ------------
 cyanomethane
 ------------
 Symbolic Z-matrix:
 Charge =  0 Multiplicity = 1

                         Standard orientation:
 ---------------------------------------------------------------------
 Center     Atomic      Atomic             Coordinates (Angstroms)
 Number     Number       Type             X           Y           Z
 ---------------------------------------------------------------------
      1          6           0        1.176672   -0.033465    0.012088
      2          6           0       -0.273866    0.020010   -0.051602
      3          7           0       -1.415770   -0.014361    0.029290
      4          1           0        1.545432    0.050859    1.050816
      5          1           0        1.395603    0.982884   -0.496008
      6          1           0        1.552517   -0.852483   -0.522757
 ---------------------------------------------------------------------

 SCF Done:  E(RB2PLYPD3) =  -132.526575341     A.U. after   12 cycles
 E2(B2PLYPD3) =    -0.1801509323D+00 E(B2PLYPD3) =    -0.13270672627315D+03

 The electronic state is 1-A.
 Alpha  occ. eigenvalues --  -14.83721 -10.67517 -10.65782  -1.04416  -0.89237
 Alpha  occ. eigenvalues --   -0.59214  -0.55418  -0.52411  -0.44588  -0.39385
 Alpha  occ. eigenvalues --   -0.38599
 Alpha virt. eigenvalues --    0.03594   0.07606   0.08438   0.10052   0.11314
 Alpha virt. eigenvalues --    0.11954   0.14838   0.15429   0.17282   0.20055
 Alpha virt. eigenvalues --    0.20141   0.25661   0.31940   0.33423   0.35496

 Mulliken charges:
               1
     1  C   -0.109535
     2  C    0.001789
     3  N   -0.204013
     4  H    0.105268
     5  H    0.096099
     6  H    0.110391
 Sum of Mulliken charges =   0.00000

 Dipole moment (field-independent basis, Debye):
    X=              4.0599    Y=              0.0428    Z=             -0.0371  Tot=              4.0602
 Quadrupole moment (field-independent basis, Debye-Ang):
   XX=            -21.3966   YY=            -17.5938   ZZ=            -17.6809
   XY=             -0.1654   XZ=              0.2411   YZ=              0.1213

 Normal termination of Gaussian 09 at Wed Aug 26 19:31:27 2020.
