 Gaussian 09, Revision D.01,
 Gaussian 09:  ES64L-G09RevD.01 24-Apr-2013

 --------------------
 #p B2PLYPD3/Def2QZVP
 --------------------

 ------------
 cyanomethane
 ------------
 Symbolic Z-matrix:
 Charge =  0 Multiplicity = 1

                         Standard orientation:
 ---------------------------------------------------------------------
 Center     Atomic      Atomic             Coordinates (Angstroms)
 Number     Number       Type             X           Y           Z
 ---------------------------------------------------------------------
      1          6           0       -1.169737    0.005251   -0.001038
      2          6           0        0.273506    0.009357    0.017477
      3          7           0        1.433196   -0.007762   -0.006764
      4          1           0       -1.513259    0.978896   -0.316438
      5          1           0       -1.588799   -0.245299    0.981173
      6          1           0       -1.552926   -0.766915   -0.716018
 ---------------------------------------------------------------------

 SCF Done:  E(RB2PLYPD3) =  -132.534106912     A.U. after   11 cycles
 E2(B2PLYPD3) =    -0.1810802915D+00 E(B2PLYPD3) =    -0.13271518720335D+03

 The electronic state is 1-A.
 Alpha  occ. eigenvalues --  -14.84343 -10.67275 -10.66372  -1.03936  -0.89286
 Alpha  occ. eigenvalues --   -0.59932  -0.54385  -0.53149  -0.44836  -0.38918
 Alpha  occ. eigenvalues --   -0.38766
 Alpha virt. eigenvalues --    0.03693   0.07385   0.07861   0.10141   0.11382
 Alpha virt. eigenvalues --    0.11606   0.15461   0.16228   0.16431   0.20088
 Alpha virt. eigenvalues --    0.20154   0.25603   0.32732   0.34104   0.34799

 Mulliken charges:
               1
     1  C   -0.084935
     2  C    0.000625
     3  N   -0.208692
     4  H    0.100640
     5  H    0.096626
     6  H    0.095736
 Sum of Mulliken charges =   0.00000

 Dipole moment (field-independent basis, Debye):
    X=             -4.1281    Y=              0.0090    Z=              0.0077  Tot=              4.1281
 Quadrupole moment (field-independent basis, Debye-Ang):
   XX=            -21.0138   YY=            -17.7330   ZZ=            -17.8140
   XY=              0.0915   XZ=              0.0020   YZ=             -0.0367

 Normal termination of Gaussian 09 at Thu Aug 27 00:03:59 2020.
