 Gaussian 09, Revision D.01,
 Gaussian 09:  ES64L-G09RevD.01 24-Apr-2013

 --------------------
 #p B2PLYPD3/Def2QZVP
 --------------------

 ------------
 cyanomethane
 ------------
 Symbolic Z-matrix:
 Charge =  0 Multiplicity = 1

                         Standard orientation:
 ---------------------------------------------------------------------
 Center     Atomic      Atomic             Coordinates (Angstroms)
 Number     Number       Type             X           Y           Z
 ---------------------------------------------------------------------
      1          6           0       -1.172205   -0.001598    0.006902
      2          6           0        0.283895   -0.001845   -0.025439
      3          7           0        1.430629    0.003633    0.013831
      4          1           0       -1.571055   -0.186666    0.990691
      5          1           0       -1.525067   -0.770587   -0.646672
      6          1           0       -1.588419    0.952479   -0.329619
 ---------------------------------------------------------------------

 SCF Done:  E(RB2PLYPD3) =  -132.535514155     A.U. after   11 cycles
 E2(B2PLYPD3) =    -0.1797813354D+00 E(B2PLYPD3) =    -0.13271529548992D+03

 The electronic state is 1-A.
 Alpha  occ. eigenvalues --  -14.84048 -10.66770 -10.66091  -1.04444  -0.89367
 Alpha  occ. eigenvalues --   -0.60165  -0.54200  -0.53566  -0.44827  -0.39298
 Alpha  occ. eigenvalues --   -0.39268
 Alpha virt. eigenvalues --    0.03799   0.07853   0.08299   0.10173   0.11491
 Alpha virt. eigenvalues --    0.11592   0.15505   0.16208   0.16908   0.20025
 Alpha virt. eigenvalues --    0.20092   0.25438   0.32920   0.34764   0.34937

 Mulliken charges:
               1
     1  C   -0.075421
     2  C   -0.001384
     3  N   -0.202288
     4  H    0.093605
     5  H    0.093983
     6  H    0.091504
 Sum of Mulliken charges =   0.00000

 Dipole moment (field-independent basis, Debye):
    X=             -4.1222    Y=             -0.0126    Z=             -0.0205  Tot=              4.1223
 Quadrupole moment (field-independent basis, Debye-Ang):
   XX=            -20.8489   YY=            -17.7443   ZZ=            -17.7613
   XY=             -0.0478   XZ=             -0.0991   YZ=              0.0172

 Normal termination of Gaussian 09 at Wed Aug 26 23:58:16 2020.
