 Gaussian 09, Revision D.01,
 Gaussian 09:  ES64L-G09RevD.01 24-Apr-2013

 --------------------
 #p B2PLYPD3/Def2QZVP
 --------------------

 ------------
 cyanomethane
 ------------
 Symbolic Z-matrix:
 Charge =  0 Multiplicity = 1

                         Standard orientation:
 ---------------------------------------------------------------------
 Center     Atomic      Atomic             Coordinates (Angstroms)
 Number     Number       Type             X           Y           Z
 ---------------------------------------------------------------------
      1          6           0       -1.175173   -0.012601    0.005699
      2          6           0        0.278256    0.028404   -0.005032
      3          7           0        1.446082   -0.013026   -0.002678
      4          1           0       -1.588189    1.033863   -0.014036
      5          1           0       -1.519351   -0.501127    0.879520
      6          1           0       -1.633530   -0.536366   -0.850737
 ---------------------------------------------------------------------

 SCF Done:  E(RB2PLYPD3) =  -132.531594099     A.U. after   12 cycles
 E2(B2PLYPD3) =    -0.1818872220D+00 E(B2PLYPD3) =    -0.13271348132132D+03

 The electronic state is 1-A.
 Alpha  occ. eigenvalues --  -14.84731 -10.67305 -10.66824  -1.03657  -0.89121
 Alpha  occ. eigenvalues --   -0.60473  -0.54114  -0.52778  -0.44980  -0.38842
 Alpha  occ. eigenvalues --   -0.38698
 Alpha virt. eigenvalues --    0.03685   0.07103   0.07644   0.10107   0.11313
 Alpha virt. eigenvalues --    0.11460   0.15430   0.16202   0.16864   0.20094
 Alpha virt. eigenvalues --    0.20197   0.25472   0.32378   0.34172   0.34983

 Mulliken charges:
               1
     1  C   -0.075234
     2  C    0.004235
     3  N   -0.211385
     4  H    0.091371
     5  H    0.098511
     6  H    0.092502
 Sum of Mulliken charges =   0.00000

 Dipole moment (field-independent basis, Debye):
    X=             -4.1530    Y=              0.0019    Z=              0.0130  Tot=              4.1530
 Quadrupole moment (field-independent basis, Debye-Ang):
   XX=            -20.8268   YY=            -17.8301   ZZ=            -17.9114
   XY=              0.0933   XZ=              0.0774   YZ=             -0.0399

 Normal termination of Gaussian 09 at Wed Aug 26 14:32:09 2020.
