 Gaussian 09, Revision D.01,
 Gaussian 09:  ES64L-G09RevD.01 24-Apr-2013

 --------------------
 #p B2PLYPD3/Def2QZVP
 --------------------

 ------------
 cyanomethane
 ------------
 Symbolic Z-matrix:
 Charge =  0 Multiplicity = 1

                         Standard orientation:
 ---------------------------------------------------------------------
 Center     Atomic      Atomic             Coordinates (Angstroms)
 Number     Number       Type             X           Y           Z
 ---------------------------------------------------------------------
      1          6           0       -1.175285   -0.000005   -0.001313
      2          6           0        0.281539    0.010207   -0.001074
      3          7           0        1.434904   -0.004494   -0.004415
      4          1           0       -1.603717   -0.720169   -0.720194
      5          1           0       -1.588754    0.994087   -0.220611
      6          1           0       -1.489379   -0.303668    0.986034
 ---------------------------------------------------------------------

 SCF Done:  E(RB2PLYPD3) =  -132.534968419     A.U. after   12 cycles
 E2(B2PLYPD3) =    -0.1804631432D+00 E(B2PLYPD3) =    -0.13271543156245D+03

 The electronic state is 1-A.
 Alpha  occ. eigenvalues --  -14.84200 -10.67247 -10.66275  -1.04185  -0.89105
 Alpha  occ. eigenvalues --   -0.59867  -0.53977  -0.53384  -0.44823  -0.39125
 Alpha  occ. eigenvalues --   -0.39055
 Alpha virt. eigenvalues --    0.03732   0.07601   0.08062   0.10185   0.11457
 Alpha virt. eigenvalues --    0.11555   0.15409   0.16053   0.16848   0.20070
 Alpha virt. eigenvalues --    0.20110   0.25365   0.32661   0.34515   0.34702

 Mulliken charges:
               1
     1  C   -0.083000
     2  C   -0.000483
     3  N   -0.205208
     4  H    0.094953
     5  H    0.096176
     6  H    0.097562
 Sum of Mulliken charges =   0.00000

 Dipole moment (field-independent basis, Debye):
    X=             -4.1293    Y=             -0.0022    Z=              0.0232  Tot=              4.1293
 Quadrupole moment (field-independent basis, Debye-Ang):
   XX=            -20.9413   YY=            -17.7447   ZZ=            -17.8087
   XY=              0.0308   XZ=              0.0754   YZ=             -0.0166

 Normal termination of Gaussian 09 at Thu Aug 27 00:03:03 2020.
