 Gaussian 09, Revision D.01,
 Gaussian 09:  ES64L-G09RevD.01 24-Apr-2013

 --------------------
 #p B2PLYPD3/Def2QZVP
 --------------------

 ------------
 cyanomethane
 ------------
 Symbolic Z-matrix:
 Charge =  0 Multiplicity = 1

                         Standard orientation:
 ---------------------------------------------------------------------
 Center     Atomic      Atomic             Coordinates (Angstroms)
 Number     Number       Type             X           Y           Z
 ---------------------------------------------------------------------
      1          6           0        1.177080    0.001402    0.000256
      2          6           0       -0.273599    0.022456    0.004390
      3          7           0       -1.433158   -0.013682   -0.005179
      4          1           0        1.517795    1.003725   -0.120505
      5          1           0        1.583372   -0.634715   -0.794787
      6          1           0        1.510050   -0.416383    0.923667
 ---------------------------------------------------------------------

 SCF Done:  E(RB2PLYPD3) =  -132.534139513     A.U. after   12 cycles
 E2(B2PLYPD3) =    -0.1807959370D+00 E(B2PLYPD3) =    -0.13271493545023D+03

 The electronic state is 1-A.
 Alpha  occ. eigenvalues --  -14.84298 -10.66677 -10.66335  -1.03889  -0.89705
 Alpha  occ. eigenvalues --   -0.59841  -0.55069  -0.53661  -0.44775  -0.38962
 Alpha  occ. eigenvalues --   -0.38835
 Alpha virt. eigenvalues --    0.03799   0.07681   0.08280   0.10150   0.11251
 Alpha virt. eigenvalues --    0.11524   0.15450   0.15963   0.16546   0.20081
 Alpha virt. eigenvalues --    0.20182   0.25474   0.32837   0.34559   0.35033

 Mulliken charges:
               1
     1  C   -0.081043
     2  C   -0.001197
     3  N   -0.209699
     4  H    0.099695
     5  H    0.094640
     6  H    0.097604
 Sum of Mulliken charges =   0.00000

 Dipole moment (field-independent basis, Debye):
    X=              4.1342    Y=              0.0080    Z=              0.0171  Tot=              4.1343
 Quadrupole moment (field-independent basis, Debye-Ang):
   XX=            -21.0191   YY=            -17.6527   ZZ=            -17.8119
   XY=             -0.1339   XZ=             -0.0558   YZ=             -0.0308

 Normal termination of Gaussian 09 at Thu Aug 27 00:01:36 2020.
