 Gaussian 09, Revision D.01,
 Gaussian 09:  ES64L-G09RevD.01 24-Apr-2013

 --------------------
 #p B2PLYPD3/Def2QZVP
 --------------------

 ------------
 cyanomethane
 ------------
 Symbolic Z-matrix:
 Charge =  0 Multiplicity = 1

                         Standard orientation:
 ---------------------------------------------------------------------
 Center     Atomic      Atomic             Coordinates (Angstroms)
 Number     Number       Type             X           Y           Z
 ---------------------------------------------------------------------
      1          6           0        1.168638   -0.002673    0.003641
      2          6           0       -0.273372   -0.011624   -0.015360
      3          7           0       -1.435694    0.009354    0.008666
      4          1           0        1.522711   -0.650768   -0.771839
      5          1           0        1.558805   -0.344991    0.953607
      6          1           0        1.596743    1.016063   -0.172118
 ---------------------------------------------------------------------

 SCF Done:  E(RB2PLYPD3) =  -132.533634904     A.U. after   12 cycles
 E2(B2PLYPD3) =    -0.1812418758D+00 E(B2PLYPD3) =    -0.13271487678025D+03

 The electronic state is 1-A.
 Alpha  occ. eigenvalues --  -14.84462 -10.67012 -10.66489  -1.03860  -0.89470
 Alpha  occ. eigenvalues --   -0.60299  -0.54384  -0.53265  -0.44891  -0.38865
 Alpha  occ. eigenvalues --   -0.38773
 Alpha virt. eigenvalues --    0.03721   0.07303   0.07925   0.10118   0.11373
 Alpha virt. eigenvalues --    0.11549   0.15521   0.16110   0.16733   0.20096
 Alpha virt. eigenvalues --    0.20179   0.25642   0.32759   0.34381   0.34831

 Mulliken charges:
               1
     1  C   -0.077812
     2  C    0.001468
     3  N   -0.209795
     4  H    0.096983
     5  H    0.096101
     6  H    0.093055
 Sum of Mulliken charges =   0.00000

 Dipole moment (field-independent basis, Debye):
    X=              4.1390    Y=             -0.0236    Z=             -0.0110  Tot=              4.1391
 Quadrupole moment (field-independent basis, Debye-Ang):
   XX=            -20.9135   YY=            -17.8012   ZZ=            -17.7925
   XY=              0.0801   XZ=              0.0668   YZ=              0.0209

 Normal termination of Gaussian 09 at Wed Aug 26 23:33:58 2020.
