 Gaussian 09, Revision D.01,
 Gaussian 09:  ES64L-G09RevD.01 24-Apr-2013

 --------------------
 #p B2PLYPD3/Def2QZVP
 --------------------

 ------------
 cyanomethane
 ------------
 Symbolic Z-matrix:
 Charge =  0 Multiplicity = 1

                         Standard orientation:
 ---------------------------------------------------------------------
 Center     Atomic      Atomic             Coordinates (Angstroms)
 Number     Number       Type             X           Y           Z
 ---------------------------------------------------------------------
      1          6           0        1.169551    0.009324    0.022324
      2          6           0       -0.269412   -0.054386    0.004420
      3          7           0       -1.418742    0.034042   -0.003458
      4          1           0        1.583432    1.031693   -0.422865
      5          1           0        1.437249   -0.831270   -0.732406
      6          1           0        1.509678   -0.168343    1.019009
 ---------------------------------------------------------------------

 SCF Done:  E(RB2PLYPD3) =  -132.522239499     A.U. after   12 cycles
 E2(B2PLYPD3) =    -0.1812144892D+00 E(B2PLYPD3) =    -0.13270345398786D+03

 The electronic state is 1-A.
 Alpha  occ. eigenvalues --  -14.83977 -10.68427 -10.65974  -1.04165  -0.88789
 Alpha  occ. eigenvalues --   -0.58700  -0.54618  -0.51985  -0.44659  -0.39004
 Alpha  occ. eigenvalues --   -0.38452
 Alpha virt. eigenvalues --    0.03239   0.06739   0.08135   0.10046   0.11438
 Alpha virt. eigenvalues --    0.11882   0.15055   0.15368   0.16809   0.20082
 Alpha virt. eigenvalues --    0.20145   0.25723   0.32131   0.32455   0.34592

 Mulliken charges:
               1
     1  C   -0.117997
     2  C    0.003878
     3  N   -0.206257
     4  H    0.103281
     5  H    0.103067
     6  H    0.114027
 Sum of Mulliken charges =   0.00000

 Dipole moment (field-independent basis, Debye):
    X=              4.0486    Y=             -0.0568    Z=              0.0002  Tot=              4.0490
 Quadrupole moment (field-independent basis, Debye-Ang):
   XX=            -21.5031   YY=            -17.7602   ZZ=            -17.5933
   XY=              0.2916   XZ=             -0.0072   YZ=             -0.0196

 Normal termination of Gaussian 09 at Wed Aug 26 22:20:52 2020.
