 Gaussian 09, Revision D.01,
 Gaussian 09:  ES64L-G09RevD.01 24-Apr-2013

 --------------------
 #p B2PLYPD3/Def2QZVP
 --------------------

 ------------
 cyanomethane
 ------------
 Symbolic Z-matrix:
 Charge =  0 Multiplicity = 1

                         Standard orientation:
 ---------------------------------------------------------------------
 Center     Atomic      Atomic             Coordinates (Angstroms)
 Number     Number       Type             X           Y           Z
 ---------------------------------------------------------------------
      1          6           0        1.181522    0.005897    0.001523
      2          6           0       -0.280487   -0.024204   -0.002134
      3          7           0       -1.428384    0.012888    0.002705
      4          1           0        1.553908   -0.055833    1.004363
      5          1           0        1.529564    0.934067   -0.457414
      6          1           0        1.509003   -0.858607   -0.562218
 ---------------------------------------------------------------------

 SCF Done:  E(RB2PLYPD3) =  -132.535661594     A.U. after   11 cycles
 E2(B2PLYPD3) =    -0.1798426361D+00 E(B2PLYPD3) =    -0.13271550423026D+03

 The electronic state is 1-A.
 Alpha  occ. eigenvalues --  -14.83937 -10.66947 -10.65987  -1.04297  -0.89343
 Alpha  occ. eigenvalues --   -0.59290  -0.54374  -0.54115  -0.44676  -0.39207
 Alpha  occ. eigenvalues --   -0.39178
 Alpha virt. eigenvalues --    0.03789   0.08075   0.08377   0.10191   0.11451
 Alpha virt. eigenvalues --    0.11501   0.15364   0.15919   0.16515   0.20051
 Alpha virt. eigenvalues --    0.20095   0.25285   0.32838   0.34616   0.34781

 Mulliken charges:
               1
     1  C   -0.089127
     2  C   -0.004199
     3  N   -0.203894
     4  H    0.098259
     5  H    0.099890
     6  H    0.099071
 Sum of Mulliken charges =   0.00000

 Dipole moment (field-independent basis, Debye):
    X=              4.1115    Y=             -0.0222    Z=              0.0034  Tot=              4.1116
 Quadrupole moment (field-independent basis, Debye-Ang):
   XX=            -21.1082   YY=            -17.6350   ZZ=            -17.7344
   XY=              0.0780   XZ=              0.0647   YZ=              0.0029

 Normal termination of Gaussian 09 at Wed Aug 26 22:55:20 2020.
