 Gaussian 09, Revision D.01,
 Gaussian 09:  ES64L-G09RevD.01 24-Apr-2013

 --------------------
 #p B2PLYPD3/Def2QZVP
 --------------------

 ------------
 cyanomethane
 ------------
 Symbolic Z-matrix:
 Charge =  0 Multiplicity = 1

                         Standard orientation:
 ---------------------------------------------------------------------
 Center     Atomic      Atomic             Coordinates (Angstroms)
 Number     Number       Type             X           Y           Z
 ---------------------------------------------------------------------
      1          6           0       -1.186884   -0.002362   -0.005174
      2          6           0        0.275283   -0.045604   -0.030570
      3          7           0        1.457679    0.031538    0.008709
      4          1           0       -1.544731   -0.888758   -0.465947
      5          1           0       -1.717137    0.935266   -0.477933
      6          1           0       -1.472284    0.020522    1.097382
 ---------------------------------------------------------------------

 SCF Done:  E(RB2PLYPD3) =  -132.521322899     A.U. after   13 cycles
 E2(B2PLYPD3) =    -0.1839846449D+00 E(B2PLYPD3) =    -0.13270530754371D+03

 The electronic state is 1-A.
 Alpha  occ. eigenvalues --  -14.85200 -10.68350 -10.67362  -1.02963  -0.88537
 Alpha  occ. eigenvalues --   -0.59638  -0.54363  -0.51634  -0.44988  -0.38466
 Alpha  occ. eigenvalues --   -0.38142
 Alpha virt. eigenvalues --    0.03210   0.06069   0.07683   0.10021   0.10907
 Alpha virt. eigenvalues --    0.11522   0.15207   0.15489   0.17104   0.20098
 Alpha virt. eigenvalues --    0.20376   0.25362   0.31767   0.33171   0.34409

 Mulliken charges:
               1
     1  C   -0.093701
     2  C    0.007727
     3  N   -0.217369
     4  H    0.105534
     5  H    0.097250
     6  H    0.100560
 Sum of Mulliken charges =   0.00000

 Dipole moment (field-independent basis, Debye):
    X=             -4.1603    Y=             -0.0525    Z=              0.0166  Tot=              4.1606
 Quadrupole moment (field-independent basis, Debye-Ang):
   XX=            -21.0106   YY=            -17.9022   ZZ=            -17.9766
   XY=             -0.2586   XZ=              0.0315   YZ=              0.0746

 Normal termination of Gaussian 09 at Wed Aug 26 21:54:26 2020.
