 Gaussian 09, Revision D.01,
 Gaussian 09:  ES64L-G09RevD.01 24-Apr-2013

 --------------------
 #p B2PLYPD3/Def2QZVP
 --------------------

 ------------
 cyanomethane
 ------------
 Symbolic Z-matrix:
 Charge =  0 Multiplicity = 1

                         Standard orientation:
 ---------------------------------------------------------------------
 Center     Atomic      Atomic             Coordinates (Angstroms)
 Number     Number       Type             X           Y           Z
 ---------------------------------------------------------------------
      1          6           0        1.162126   -0.009536    0.008081
      2          6           0       -0.266088    0.005949   -0.042175
      3          7           0       -1.434031   -0.005314    0.021535
      4          1           0        1.509747    1.049980    0.038646
      5          1           0        1.570034   -0.477600   -0.832422
      6          1           0        1.582210   -0.513656    0.847598
 ---------------------------------------------------------------------

 SCF Done:  E(RB2PLYPD3) =  -132.530410290     A.U. after   12 cycles
 E2(B2PLYPD3) =    -0.1817392125D+00 E(B2PLYPD3) =    -0.13271214950246D+03

 The electronic state is 1-A.
 Alpha  occ. eigenvalues --  -14.84649 -10.66643 -10.66408  -1.03641  -0.90052
 Alpha  occ. eigenvalues --   -0.61143  -0.54483  -0.53693  -0.44948  -0.38691
 Alpha  occ. eigenvalues --   -0.38553
 Alpha virt. eigenvalues --    0.03753   0.07230   0.07862   0.10042   0.11329
 Alpha virt. eigenvalues --    0.11558   0.15581   0.16062   0.16885   0.20141
 Alpha virt. eigenvalues --    0.20232   0.25967   0.32909   0.34290   0.35175

 Mulliken charges:
               1
     1  C   -0.069205
     2  C    0.004959
     3  N   -0.213704
     4  H    0.092479
     5  H    0.092570
     6  H    0.092903
 Sum of Mulliken charges =   0.00000

 Dipole moment (field-independent basis, Debye):
    X=              4.1479    Y=             -0.0096    Z=             -0.0306  Tot=              4.1481
 Quadrupole moment (field-independent basis, Debye-Ang):
   XX=            -20.8346   YY=            -17.7134   ZZ=            -17.8910
   XY=             -0.1243   XZ=              0.1141   YZ=              0.0142

 Normal termination of Gaussian 09 at Wed Aug 26 13:35:22 2020.
