 Gaussian 09, Revision D.01,
 Gaussian 09:  ES64L-G09RevD.01 24-Apr-2013

 --------------------
 #p B2PLYPD3/Def2QZVP
 --------------------

 ------------
 cyanomethane
 ------------
 Symbolic Z-matrix:
 Charge =  0 Multiplicity = 1

                         Standard orientation:
 ---------------------------------------------------------------------
 Center     Atomic      Atomic             Coordinates (Angstroms)
 Number     Number       Type             X           Y           Z
 ---------------------------------------------------------------------
      1          6           0        1.194730    0.008526    0.008981
      2          6           0       -0.287142   -0.038775    0.021686
      3          7           0       -1.435614    0.018932   -0.016505
      4          1           0        1.555465    0.924512   -0.530147
      5          1           0        1.570226   -0.885474   -0.549823
      6          1           0        1.478077    0.009932    1.011509
 ---------------------------------------------------------------------

 SCF Done:  E(RB2PLYPD3) =  -132.531454877     A.U. after   12 cycles
 E2(B2PLYPD3) =    -0.1802663763D+00 E(B2PLYPD3) =    -0.13271172125296D+03

 The electronic state is 1-A.
 Alpha  occ. eigenvalues --  -14.84030 -10.67541 -10.66125  -1.04178  -0.88806
 Alpha  occ. eigenvalues --   -0.58587  -0.55133  -0.52836  -0.44651  -0.39301
 Alpha  occ. eigenvalues --   -0.39078
 Alpha virt. eigenvalues --    0.03602   0.07600   0.08726   0.10198   0.11169
 Alpha virt. eigenvalues --    0.11525   0.15170   0.15759   0.16484   0.20022
 Alpha virt. eigenvalues --    0.20091   0.24985   0.32407   0.33882   0.35031

 Mulliken charges:
               1
     1  C   -0.097611
     2  C   -0.004446
     3  N   -0.203999
     4  H    0.100209
     5  H    0.098698
     6  H    0.107149
 Sum of Mulliken charges =   0.00000

 Dipole moment (field-independent basis, Debye):
    X=              4.1089    Y=             -0.0237    Z=              0.0251  Tot=              4.1091
 Quadrupole moment (field-independent basis, Debye-Ang):
   XX=            -21.1947   YY=            -17.7612   ZZ=            -17.6547
   XY=              0.1040   XZ=             -0.1658   YZ=              0.0088

 Normal termination of Gaussian 09 at Wed Aug 26 12:48:37 2020.
