 Gaussian 09, Revision D.01,
 Gaussian 09:  ES64L-G09RevD.01 24-Apr-2013

 --------------------
 #p B2PLYPD3/Def2QZVP
 --------------------

 ------------
 cyanomethane
 ------------
 Symbolic Z-matrix:
 Charge =  0 Multiplicity = 1

                         Standard orientation:
 ---------------------------------------------------------------------
 Center     Atomic      Atomic             Coordinates (Angstroms)
 Number     Number       Type             X           Y           Z
 ---------------------------------------------------------------------
      1          6           0        1.190652   -0.004049    0.002314
      2          6           0       -0.288445   -0.028870    0.016022
      3          7           0       -1.436436    0.018718   -0.015751
      4          1           0        1.632002    0.920098   -0.466864
      5          1           0        1.563790   -0.849933   -0.515411
      6          1           0        1.446016   -0.003672    0.982516
 ---------------------------------------------------------------------

 SCF Done:  E(RB2PLYPD3) =  -132.528832054     A.U. after   12 cycles
 E2(B2PLYPD3) =    -0.1798595528D+00 E(B2PLYPD3) =    -0.13270869160685D+03

 The electronic state is 1-A.
 Alpha  occ. eigenvalues --  -14.84070 -10.66590 -10.66163  -1.04289  -0.89544
 Alpha  occ. eigenvalues --   -0.59389  -0.55731  -0.53029  -0.44736  -0.39424
 Alpha  occ. eigenvalues --   -0.39211
 Alpha virt. eigenvalues --    0.03701   0.07751   0.09095   0.10232   0.11173
 Alpha virt. eigenvalues --    0.11494   0.15333   0.15692   0.17078   0.20026
 Alpha virt. eigenvalues --    0.20126   0.25007   0.32536   0.34426   0.35617

 Mulliken charges:
               1
     1  C   -0.082941
     2  C   -0.003828
     3  N   -0.203569
     4  H    0.091018
     5  H    0.097603
     6  H    0.101717
 Sum of Mulliken charges =   0.00000

 Dipole moment (field-independent basis, Debye):
    X=              4.1294    Y=             -0.0331    Z=              0.0491  Tot=              4.1298
 Quadrupole moment (field-independent basis, Debye-Ang):
   XX=            -20.9237   YY=            -17.7131   ZZ=            -17.7391
   XY=              0.1493   XZ=             -0.1536   YZ=              0.0602

 Normal termination of Gaussian 09 at Wed Aug 26 14:43:51 2020.
