 Gaussian 09, Revision D.01,
 Gaussian 09:  ES64L-G09RevD.01 24-Apr-2013

 --------------------
 #p B2PLYPD3/Def2QZVP
 --------------------

 ------------
 cyanomethane
 ------------
 Symbolic Z-matrix:
 Charge =  0 Multiplicity = 1

                         Standard orientation:
 ---------------------------------------------------------------------
 Center     Atomic      Atomic             Coordinates (Angstroms)
 Number     Number       Type             X           Y           Z
 ---------------------------------------------------------------------
      1          6           0       -1.151479    0.016527    0.010223
      2          6           0        0.266774    0.028618    0.009468
      3          7           0        1.424666   -0.028102   -0.006070
      4          1           0       -1.413858    1.054017   -0.180303
      5          1           0       -1.607024   -0.420415    0.905781
      6          1           0       -1.643548   -0.707761   -0.801136
 ---------------------------------------------------------------------

 SCF Done:  E(RB2PLYPD3) =  -132.522886125     A.U. after   12 cycles
 E2(B2PLYPD3) =    -0.1816814261D+00 E(B2PLYPD3) =    -0.13270456755141D+03

 The electronic state is 1-A.
 Alpha  occ. eigenvalues --  -14.84329 -10.67766 -10.66274  -1.04065  -0.89363
 Alpha  occ. eigenvalues --   -0.60419  -0.55151  -0.51162  -0.44893  -0.38869
 Alpha  occ. eigenvalues --   -0.38325
 Alpha virt. eigenvalues --    0.03357   0.06359   0.07868   0.10036   0.11346
 Alpha virt. eigenvalues --    0.12120   0.15231   0.16342   0.16805   0.19959
 Alpha virt. eigenvalues --    0.20326   0.26019   0.32184   0.33422   0.34827

 Mulliken charges:
               1
     1  C   -0.089270
     2  C    0.003846
     3  N   -0.208282
     4  H    0.106723
     5  H    0.098537
     6  H    0.088447
 Sum of Mulliken charges =   0.00000

 Dipole moment (field-independent basis, Debye):
    X=             -4.1061    Y=              0.0142    Z=              0.0339  Tot=              4.1063
 Quadrupole moment (field-independent basis, Debye-Ang):
   XX=            -21.0226   YY=            -17.5323   ZZ=            -18.0891
   XY=              0.4349   XZ=             -0.0195   YZ=             -0.1179

 Normal termination of Gaussian 09 at Wed Aug 26 19:32:45 2020.
