 Gaussian 09, Revision D.01,
 Gaussian 09:  ES64L-G09RevD.01 24-Apr-2013

 --------------------
 #p B2PLYPD3/Def2QZVP
 --------------------

 ------------
 cyanomethane
 ------------
 Symbolic Z-matrix:
 Charge =  0 Multiplicity = 1

                         Standard orientation:
 ---------------------------------------------------------------------
 Center     Atomic      Atomic             Coordinates (Angstroms)
 Number     Number       Type             X           Y           Z
 ---------------------------------------------------------------------
      1          6           0        1.176231   -0.004656    0.001676
      2          6           0       -0.270667   -0.002305   -0.011308
      3          7           0       -1.431007    0.001042    0.004546
      4          1           0        1.523392    0.975151   -0.232861
      5          1           0        1.545816   -0.680913   -0.698505
      6          1           0        1.514462   -0.259772    0.957335
 ---------------------------------------------------------------------

 SCF Done:  E(RB2PLYPD3) =  -132.532856303     A.U. after   11 cycles
 E2(B2PLYPD3) =    -0.1804749110D+00 E(B2PLYPD3) =    -0.13271333121397D+03

 The electronic state is 1-A.
 Alpha  occ. eigenvalues --  -14.84272 -10.66297 -10.65840  -1.03880  -0.90368
 Alpha  occ. eigenvalues --   -0.60213  -0.55294  -0.54717  -0.44760  -0.38976
 Alpha  occ. eigenvalues --   -0.38883
 Alpha virt. eigenvalues --    0.03945   0.08201   0.08325   0.10181   0.11285
 Alpha virt. eigenvalues --    0.11403   0.15544   0.16164   0.16338   0.20129
 Alpha virt. eigenvalues --    0.20163   0.25518   0.33025   0.34961   0.35407

 Mulliken charges:
               1
     1  C   -0.070823
     2  C   -0.001639
     3  N   -0.210865
     4  H    0.093380
     5  H    0.094927
     6  H    0.095019
 Sum of Mulliken charges =   0.00000

 Dipole moment (field-independent basis, Debye):
    X=              4.1457    Y=              0.0006    Z=             -0.0014  Tot=              4.1457
 Quadrupole moment (field-independent basis, Debye-Ang):
   XX=            -20.9403   YY=            -17.6975   ZZ=            -17.6986
   XY=             -0.0003   XZ=              0.0146   YZ=              0.0126

 Normal termination of Gaussian 09 at Wed Aug 26 12:22:26 2020.
