 Gaussian 09, Revision D.01,
 Gaussian 09:  ES64L-G09RevD.01 24-Apr-2013

 --------------------
 #p B2PLYPD3/Def2QZVP
 --------------------

 ------------
 cyanomethane
 ------------
 Symbolic Z-matrix:
 Charge =  0 Multiplicity = 1

                         Standard orientation:
 ---------------------------------------------------------------------
 Center     Atomic      Atomic             Coordinates (Angstroms)
 Number     Number       Type             X           Y           Z
 ---------------------------------------------------------------------
      1          6           0       -1.183139    0.000998   -0.005909
      2          6           0        0.276200   -0.008603    0.020218
      3          7           0        1.437438    0.006923   -0.011355
      4          1           0       -1.514066   -0.231764    0.983708
      5          1           0       -1.528511   -0.769980   -0.688915
      6          1           0       -1.577858    0.998917   -0.301160
 ---------------------------------------------------------------------

 SCF Done:  E(RB2PLYPD3) =  -132.533952676     A.U. after   12 cycles
 E2(B2PLYPD3) =    -0.1811023190D+00 E(B2PLYPD3) =    -0.13271505499484D+03

 The electronic state is 1-A.
 Alpha  occ. eigenvalues --  -14.84352 -10.67191 -10.66427  -1.03796  -0.89278
 Alpha  occ. eigenvalues --   -0.59410  -0.54319  -0.53846  -0.44760  -0.38887
 Alpha  occ. eigenvalues --   -0.38845
 Alpha virt. eigenvalues --    0.03709   0.07580   0.08157   0.10160   0.11338
 Alpha virt. eigenvalues --    0.11362   0.15339   0.15746   0.16618   0.20129
 Alpha virt. eigenvalues --    0.20133   0.25318   0.32603   0.34467   0.34652

 Mulliken charges:
               1
     1  C   -0.088555
     2  C   -0.000891
     3  N   -0.209997
     4  H    0.099307
     5  H    0.100698
     6  H    0.099436
 Sum of Mulliken charges =   0.00000

 Dipole moment (field-independent basis, Debye):
    X=             -4.1339    Y=             -0.0222    Z=              0.0312  Tot=              4.1341
 Quadrupole moment (field-independent basis, Debye-Ang):
   XX=            -21.0975   YY=            -17.6907   ZZ=            -17.8056
   XY=             -0.0518   XZ=              0.0472   YZ=              0.0103

 Normal termination of Gaussian 09 at Wed Aug 26 23:56:24 2020.
