 Gaussian 09, Revision D.01,
 Gaussian 09:  ES64L-G09RevD.01 24-Apr-2013

 --------------------
 #p B2PLYPD3/Def2QZVP
 --------------------

 ------------
 cyanomethane
 ------------
 Symbolic Z-matrix:
 Charge =  0 Multiplicity = 1

                         Standard orientation:
 ---------------------------------------------------------------------
 Center     Atomic      Atomic             Coordinates (Angstroms)
 Number     Number       Type             X           Y           Z
 ---------------------------------------------------------------------
      1          6           0       -1.185707   -0.006507    0.008622
      2          6           0        0.273568   -0.015575   -0.005261
      3          7           0        1.437318    0.008961   -0.001161
      4          1           0       -1.490150   -0.364137    0.941501
      5          1           0       -1.560394   -0.610850   -0.808747
      6          1           0       -1.537849    1.044750   -0.144791
 ---------------------------------------------------------------------

 SCF Done:  E(RB2PLYPD3) =  -132.532711993     A.U. after   12 cycles
 E2(B2PLYPD3) =    -0.1811895367D+00 E(B2PLYPD3) =    -0.13271390152951D+03

 The electronic state is 1-A.
 Alpha  occ. eigenvalues --  -14.84369 -10.66996 -10.66445  -1.03685  -0.89507
 Alpha  occ. eigenvalues --   -0.59342  -0.55311  -0.53466  -0.44723  -0.38906
 Alpha  occ. eigenvalues --   -0.38697
 Alpha virt. eigenvalues --    0.03743   0.07627   0.08268   0.10177   0.11159
 Alpha virt. eigenvalues --    0.11436   0.15314   0.16018   0.16145   0.20113
 Alpha virt. eigenvalues --    0.20176   0.25269   0.32554   0.34049   0.35209

 Mulliken charges:
               1
     1  C   -0.088763
     2  C   -0.001638
     3  N   -0.211658
     4  H    0.104776
     5  H    0.099842
     6  H    0.097442
 Sum of Mulliken charges =   0.00000

 Dipole moment (field-independent basis, Debye):
    X=             -4.1368    Y=             -0.0125    Z=              0.0028  Tot=              4.1369
 Quadrupole moment (field-independent basis, Debye-Ang):
   XX=            -21.1440   YY=            -17.7658   ZZ=            -17.6930
   XY=             -0.0525   XZ=              0.0600   YZ=             -0.0187

 Normal termination of Gaussian 09 at Wed Aug 26 23:46:06 2020.
