 Gaussian 09, Revision D.01,
 Gaussian 09:  ES64L-G09RevD.01 24-Apr-2013

 --------------------
 #p B2PLYPD3/Def2QZVP
 --------------------

 ------------
 cyanomethane
 ------------
 Symbolic Z-matrix:
 Charge =  0 Multiplicity = 1

                         Standard orientation:
 ---------------------------------------------------------------------
 Center     Atomic      Atomic             Coordinates (Angstroms)
 Number     Number       Type             X           Y           Z
 ---------------------------------------------------------------------
      1          6           0       -1.173772    0.018878   -0.017739
      2          6           0        0.271676    0.065028    0.005633
      3          7           0        1.455559   -0.038810   -0.007005
      4          1           0       -1.561631    1.039780    0.027776
      5          1           0       -1.534685   -0.619908    0.952101
      6          1           0       -1.680024   -0.651639   -0.858209
 ---------------------------------------------------------------------

 SCF Done:  E(RB2PLYPD3) =  -132.511416884     A.U. after   13 cycles
 E2(B2PLYPD3) =    -0.1850268587D+00 E(B2PLYPD3) =    -0.13269644374262D+03

 The electronic state is 1-A.
 Alpha  occ. eigenvalues --  -14.85341 -10.69332 -10.67448  -1.02929  -0.88022
 Alpha  occ. eigenvalues --   -0.59654  -0.54293  -0.50048  -0.45094  -0.38428
 Alpha  occ. eigenvalues --   -0.37666
 Alpha virt. eigenvalues --    0.02897   0.05195   0.07110   0.09871   0.10807
 Alpha virt. eigenvalues --    0.11919   0.15183   0.15669   0.17205   0.19985
 Alpha virt. eigenvalues --    0.20471   0.25611   0.31446   0.31820   0.34350

 Mulliken charges:
               1
     1  C   -0.099866
     2  C    0.011302
     3  N   -0.216216
     4  H    0.110945
     5  H    0.093094
     6  H    0.100740
 Sum of Mulliken charges =   0.00000

 Dipole moment (field-independent basis, Debye):
    X=             -4.1379    Y=              0.0077    Z=              0.0243  Tot=              4.1380
 Quadrupole moment (field-independent basis, Debye-Ang):
   XX=            -21.0826   YY=            -17.6784   ZZ=            -18.3092
   XY=              0.3503   XZ=              0.0875   YZ=              0.0421

 Normal termination of Gaussian 09 at Wed Aug 26 22:01:40 2020.
