 Gaussian 09, Revision D.01,
 Gaussian 09:  ES64L-G09RevD.01 24-Apr-2013

 --------------------
 #p B2PLYPD3/Def2QZVP
 --------------------

 ------------
 cyanomethane
 ------------
 Symbolic Z-matrix:
 Charge =  0 Multiplicity = 1

                         Standard orientation:
 ---------------------------------------------------------------------
 Center     Atomic      Atomic             Coordinates (Angstroms)
 Number     Number       Type             X           Y           Z
 ---------------------------------------------------------------------
      1          6           0       -1.177802   -0.025990   -0.010045
      2          6           0        0.285019    0.045199    0.002027
      3          7           0        1.419605   -0.020889   -0.000019
      4          1           0       -1.527048   -0.045979    1.006071
      5          1           0       -1.523364   -0.866036   -0.523684
      6          1           0       -1.530125    0.942981   -0.434145
 ---------------------------------------------------------------------

 SCF Done:  E(RB2PLYPD3) =  -132.533312398     A.U. after   12 cycles
 E2(B2PLYPD3) =    -0.1788627350D+00 E(B2PLYPD3) =    -0.13271217513300D+03

 The electronic state is 1-A.
 Alpha  occ. eigenvalues --  -14.83594 -10.66768 -10.65610  -1.04786  -0.89377
 Alpha  occ. eigenvalues --   -0.59382  -0.55202  -0.53269  -0.44638  -0.39654
 Alpha  occ. eigenvalues --   -0.39313
 Alpha virt. eigenvalues --    0.03815   0.08374   0.08494   0.10136   0.11469
 Alpha virt. eigenvalues --    0.11782   0.15408   0.15740   0.16942   0.19943
 Alpha virt. eigenvalues --    0.20087   0.25432   0.32825   0.34121   0.35520

 Mulliken charges:
               1
     1  C   -0.088825
     2  C   -0.005463
     3  N   -0.197672
     4  H    0.094109
     5  H    0.103813
     6  H    0.094039
 Sum of Mulliken charges =   0.00000

 Dipole moment (field-independent basis, Debye):
    X=             -4.0828    Y=              0.0346    Z=              0.0299  Tot=              4.0830
 Quadrupole moment (field-independent basis, Debye-Ang):
   XX=            -21.0928   YY=            -17.5091   ZZ=            -17.7715
   XY=              0.1096   XZ=             -0.0751   YZ=              0.0668

 Normal termination of Gaussian 09 at Wed Aug 26 11:19:46 2020.
