 Gaussian 09, Revision D.01,
 Gaussian 09:  ES64L-G09RevD.01 24-Apr-2013

 --------------------
 #p B2PLYPD3/Def2QZVP
 --------------------

 ------------
 cyanomethane
 ------------
 Symbolic Z-matrix:
 Charge =  0 Multiplicity = 1

                         Standard orientation:
 ---------------------------------------------------------------------
 Center     Atomic      Atomic             Coordinates (Angstroms)
 Number     Number       Type             X           Y           Z
 ---------------------------------------------------------------------
      1          6           0       -1.202371    0.022926   -0.024371
      2          6           0        0.302692   -0.039190   -0.029784
      3          7           0        1.434430    0.014964    0.024688
      4          1           0       -1.482791    1.030370   -0.177984
      5          1           0       -1.643755   -0.320602    1.044102
      6          1           0       -1.516393   -0.716932   -0.714006
 ---------------------------------------------------------------------

 SCF Done:  E(RB2PLYPD3) =  -132.523787874     A.U. after   12 cycles
 E2(B2PLYPD3) =    -0.1792201344D+00 E(B2PLYPD3) =    -0.13270300800795D+03

 The electronic state is 1-A.
 Alpha  occ. eigenvalues --  -14.83615 -10.68097 -10.65742  -1.04810  -0.88173
 Alpha  occ. eigenvalues --   -0.58029  -0.56079  -0.51079  -0.44582  -0.39928
 Alpha  occ. eigenvalues --   -0.39334
 Alpha virt. eigenvalues --    0.03372   0.07506   0.09124   0.10241   0.11127
 Alpha virt. eigenvalues --    0.11832   0.14976   0.15863   0.16720   0.19845
 Alpha virt. eigenvalues --    0.20060   0.24582   0.31391   0.33337   0.35867

 Mulliken charges:
               1
     1  C   -0.102922
     2  C   -0.008441
     3  N   -0.193839
     4  H    0.111638
     5  H    0.086971
     6  H    0.106594
 Sum of Mulliken charges =   0.00000

 Dipole moment (field-independent basis, Debye):
    X=             -4.0886    Y=             -0.0251    Z=             -0.0518  Tot=              4.0890
 Quadrupole moment (field-independent basis, Debye-Ang):
   XX=            -21.1947   YY=            -17.5161   ZZ=            -17.8893
   XY=             -0.0101   XZ=             -0.2418   YZ=              0.0776

 Normal termination of Gaussian 09 at Wed Aug 26 23:42:18 2020.
