 Gaussian 09, Revision D.01,
 Gaussian 09:  ES64L-G09RevD.01 24-Apr-2013

 --------------------
 #p B2PLYPD3/Def2QZVP
 --------------------

 ------------
 cyanomethane
 ------------
 Symbolic Z-matrix:
 Charge =  0 Multiplicity = 1

                         Standard orientation:
 ---------------------------------------------------------------------
 Center     Atomic      Atomic             Coordinates (Angstroms)
 Number     Number       Type             X           Y           Z
 ---------------------------------------------------------------------
      1          6           0        1.187803   -0.010069   -0.004639
      2          6           0       -0.274979    0.036399    0.006690
      3          7           0       -1.442564   -0.021907   -0.006324
      4          1           0        1.488693    0.993045   -0.055029
      5          1           0        1.611203   -0.556802   -0.778857
      6          1           0        1.521111   -0.440876    0.865852
 ---------------------------------------------------------------------

 SCF Done:  E(RB2PLYPD3) =  -132.527495511     A.U. after   12 cycles
 E2(B2PLYPD3) =    -0.1812373767D+00 E(B2PLYPD3) =    -0.13270873288725D+03

 The electronic state is 1-A.
 Alpha  occ. eigenvalues --  -14.84617 -10.66706 -10.65629  -1.03556  -0.90421
 Alpha  occ. eigenvalues --   -0.60644  -0.55333  -0.54583  -0.44841  -0.38864
 Alpha  occ. eigenvalues --   -0.38822
 Alpha virt. eigenvalues --    0.03927   0.07866   0.08503   0.10067   0.11117
 Alpha virt. eigenvalues --    0.11329   0.15391   0.15810   0.16971   0.20112
 Alpha virt. eigenvalues --    0.20253   0.25316   0.32827   0.35198   0.35514

 Mulliken charges:
               1
     1  C   -0.064634
     2  C    0.002256
     3  N   -0.214116
     4  H    0.094134
     5  H    0.090421
     6  H    0.091940
 Sum of Mulliken charges =   0.00000

 Dipole moment (field-independent basis, Debye):
    X=              4.1648    Y=              0.0194    Z=              0.0217  Tot=              4.1649
 Quadrupole moment (field-independent basis, Debye-Ang):
   XX=            -20.8232   YY=            -17.6612   ZZ=            -17.8522
   XY=             -0.2074   XZ=             -0.0564   YZ=             -0.0111

 Normal termination of Gaussian 09 at Wed Aug 26 10:42:33 2020.
