 Gaussian 09, Revision D.01,
 Gaussian 09:  ES64L-G09RevD.01 24-Apr-2013

 --------------------
 #p B2PLYPD3/Def2QZVP
 --------------------

 ------------
 cyanomethane
 ------------
 Symbolic Z-matrix:
 Charge =  0 Multiplicity = 1

                         Standard orientation:
 ---------------------------------------------------------------------
 Center     Atomic      Atomic             Coordinates (Angstroms)
 Number     Number       Type             X           Y           Z
 ---------------------------------------------------------------------
      1          6           0        1.181910    0.008754   -0.009460
      2          6           0       -0.284801    0.032317    0.002103
      3          7           0       -1.422179   -0.014663   -0.002414
      4          1           0        1.519898   -0.729477   -0.779929
      5          1           0        1.482109   -0.406996    1.003023
      6          1           0        1.570590    0.992690   -0.162057
 ---------------------------------------------------------------------

 SCF Done:  E(RB2PLYPD3) =  -132.533078610     A.U. after   12 cycles
 E2(B2PLYPD3) =    -0.1793467555D+00 E(B2PLYPD3) =    -0.13271242536540D+03

 The electronic state is 1-A.
 Alpha  occ. eigenvalues --  -14.83598 -10.67747 -10.65668  -1.04663  -0.88717
 Alpha  occ. eigenvalues --   -0.58664  -0.54707  -0.52804  -0.44582  -0.39537
 Alpha  occ. eigenvalues --   -0.39157
 Alpha virt. eigenvalues --    0.03622   0.07858   0.08451   0.10219   0.11420
 Alpha virt. eigenvalues --    0.11908   0.15259   0.15820   0.16490   0.19950
 Alpha virt. eigenvalues --    0.20103   0.25178   0.32649   0.33415   0.34975

 Mulliken charges:
               1
     1  C   -0.104586
     2  C   -0.005368
     3  N   -0.198032
     4  H    0.102396
     5  H    0.099149
     6  H    0.106441
 Sum of Mulliken charges =   0.00000

 Dipole moment (field-independent basis, Debye):
    X=              4.0805    Y=              0.0089    Z=              0.0118  Tot=              4.0806
 Quadrupole moment (field-independent basis, Debye-Ang):
   XX=            -21.2757   YY=            -17.5564   ZZ=            -17.7516
   XY=             -0.0595   XZ=             -0.0331   YZ=             -0.0024

 Normal termination of Gaussian 09 at Wed Aug 26 12:15:17 2020.
