 Gaussian 09, Revision D.01,
 Gaussian 09:  ES64L-G09RevD.01 24-Apr-2013

 --------------------
 #p B2PLYPD3/Def2QZVP
 --------------------

 ------------
 cyanomethane
 ------------
 Symbolic Z-matrix:
 Charge =  0 Multiplicity = 1

                         Standard orientation:
 ---------------------------------------------------------------------
 Center     Atomic      Atomic             Coordinates (Angstroms)
 Number     Number       Type             X           Y           Z
 ---------------------------------------------------------------------
      1          6           0       -1.182478   -0.023478   -0.004338
      2          6           0        0.290529    0.040679    0.004832
      3          7           0        1.439883   -0.018897   -0.001867
      4          1           0       -1.578741    0.022231    1.026671
      5          1           0       -1.573743   -0.899953   -0.496448
      6          1           0       -1.575007    0.906799   -0.520116
 ---------------------------------------------------------------------

 SCF Done:  E(RB2PLYPD3) =  -132.533105196     A.U. after   12 cycles
 E2(B2PLYPD3) =    -0.1804838425D+00 E(B2PLYPD3) =    -0.13271358903816D+03

 The electronic state is 1-A.
 Alpha  occ. eigenvalues --  -14.84217 -10.67772 -10.66332  -1.04294  -0.88466
 Alpha  occ. eigenvalues --   -0.59640  -0.53878  -0.52530  -0.44854  -0.39354
 Alpha  occ. eigenvalues --   -0.39089
 Alpha virt. eigenvalues --    0.03630   0.07676   0.07793   0.10128   0.11407
 Alpha virt. eigenvalues --    0.11568   0.15317   0.15952   0.17091   0.20017
 Alpha virt. eigenvalues --    0.20078   0.25224   0.32377   0.33830   0.35007

 Mulliken charges:
               1
     1  C   -0.086472
     2  C    0.000753
     3  N   -0.202748
     4  H    0.094762
     5  H    0.102006
     6  H    0.091698
 Sum of Mulliken charges =   0.00000

 Dipole moment (field-independent basis, Debye):
    X=             -4.1184    Y=              0.0298    Z=              0.0133  Tot=              4.1185
 Quadrupole moment (field-independent basis, Debye-Ang):
   XX=            -20.9421   YY=            -17.7539   ZZ=            -17.8650
   XY=              0.0928   XZ=             -0.0209   YZ=              0.0567

 Normal termination of Gaussian 09 at Wed Aug 26 11:25:59 2020.
