 Gaussian 09, Revision D.01,
 Gaussian 09:  ES64L-G09RevD.01 24-Apr-2013

 --------------------
 #p B2PLYPD3/Def2QZVP
 --------------------

 ------------
 cyanomethane
 ------------
 Symbolic Z-matrix:
 Charge =  0 Multiplicity = 1

                         Standard orientation:
 ---------------------------------------------------------------------
 Center     Atomic      Atomic             Coordinates (Angstroms)
 Number     Number       Type             X           Y           Z
 ---------------------------------------------------------------------
      1          6           0        1.174336   -0.003608    0.003178
      2          6           0       -0.273212    0.008542   -0.019672
      3          7           0       -1.440067   -0.002997    0.010254
      4          1           0        1.572079    1.008951   -0.113531
      5          1           0        1.545566   -0.618535   -0.783589
      6          1           0        1.556076   -0.399043    0.924307
 ---------------------------------------------------------------------

 SCF Done:  E(RB2PLYPD3) =  -132.533840867     A.U. after   11 cycles
 E2(B2PLYPD3) =    -0.1814528793D+00 E(B2PLYPD3) =    -0.13271529374609D+03

 The electronic state is 1-A.
 Alpha  occ. eigenvalues --  -14.84591 -10.66701 -10.66630  -1.03666  -0.89665
 Alpha  occ. eigenvalues --   -0.60425  -0.54332  -0.53873  -0.44897  -0.38791
 Alpha  occ. eigenvalues --   -0.38755
 Alpha virt. eigenvalues --    0.03798   0.07555   0.07845   0.10132   0.11289
 Alpha virt. eigenvalues --    0.11421   0.15501   0.16252   0.16541   0.20128
 Alpha virt. eigenvalues --    0.20177   0.25541   0.32744   0.34724   0.34919

 Mulliken charges:
               1
     1  C   -0.072521
     2  C    0.001669
     3  N   -0.212136
     4  H    0.093709
     5  H    0.094971
     6  H    0.094308
 Sum of Mulliken charges =   0.00000

 Dipole moment (field-independent basis, Debye):
    X=              4.1542    Y=             -0.0085    Z=             -0.0092  Tot=              4.1542
 Quadrupole moment (field-independent basis, Debye-Ang):
   XX=            -20.8797   YY=            -17.7594   ZZ=            -17.8423
   XY=             -0.0260   XZ=              0.0709   YZ=              0.0130

 Normal termination of Gaussian 09 at Wed Aug 26 10:04:48 2020.
