 Gaussian 09, Revision D.01,
 Gaussian 09:  ES64L-G09RevD.01 24-Apr-2013

 --------------------
 #p B2PLYPD3/Def2QZVP
 --------------------

 ------------
 cyanomethane
 ------------
 Symbolic Z-matrix:
 Charge =  0 Multiplicity = 1

                         Standard orientation:
 ---------------------------------------------------------------------
 Center     Atomic      Atomic             Coordinates (Angstroms)
 Number     Number       Type             X           Y           Z
 ---------------------------------------------------------------------
      1          6           0       -1.178159    0.001352   -0.005403
      2          6           0        0.285579   -0.018257    0.013209
      3          7           0        1.435905    0.008397   -0.006886
      4          1           0       -1.552843    0.982659   -0.302899
      5          1           0       -1.561810   -0.205017    0.987174
      6          1           0       -1.581196   -0.734985   -0.682911
 ---------------------------------------------------------------------

 SCF Done:  E(RB2PLYPD3) =  -132.535829889     A.U. after   11 cycles
 E2(B2PLYPD3) =    -0.1801096450D+00 E(B2PLYPD3) =    -0.13271593953371D+03

 The electronic state is 1-A.
 Alpha  occ. eigenvalues --  -14.84157 -10.67016 -10.66237  -1.04290  -0.89134
 Alpha  occ. eigenvalues --   -0.59960  -0.53933  -0.53624  -0.44830  -0.39263
 Alpha  occ. eigenvalues --   -0.39194
 Alpha virt. eigenvalues --    0.03768   0.07904   0.08107   0.10193   0.11424
 Alpha virt. eigenvalues --    0.11521   0.15416   0.16307   0.16721   0.20046
 Alpha virt. eigenvalues --    0.20077   0.25272   0.32761   0.34622   0.34923

 Mulliken charges:
               1
     1  C   -0.077545
     2  C   -0.001212
     3  N   -0.203699
     4  H    0.094440
     5  H    0.093173
     6  H    0.094842
 Sum of Mulliken charges =   0.00000

 Dipole moment (field-independent basis, Debye):
    X=             -4.1309    Y=             -0.0103    Z=              0.0146  Tot=              4.1310
 Quadrupole moment (field-independent basis, Debye-Ang):
   XX=            -20.8762   YY=            -17.7639   ZZ=            -17.7823
   XY=             -0.0343   XZ=              0.0361   YZ=              0.0128

 Normal termination of Gaussian 09 at Thu Aug 27 00:12:10 2020.
