 Gaussian 09, Revision D.01,
 Gaussian 09:  ES64L-G09RevD.01 24-Apr-2013

 --------------------
 #p B2PLYPD3/Def2QZVP
 --------------------

 ------------
 cyanomethane
 ------------
 Symbolic Z-matrix:
 Charge =  0 Multiplicity = 1

                         Standard orientation:
 ---------------------------------------------------------------------
 Center     Atomic      Atomic             Coordinates (Angstroms)
 Number     Number       Type             X           Y           Z
 ---------------------------------------------------------------------
      1          6           0        1.183041    0.003400   -0.020944
      2          6           0       -0.270693    0.035044   -0.034840
      3          7           0       -1.454366   -0.015531    0.011517
      4          1           0        1.630304    1.045536   -0.074941
      5          1           0        1.641436   -0.749174   -0.679994
      6          1           0        1.434734   -0.418304    1.009017
 ---------------------------------------------------------------------

 SCF Done:  E(RB2PLYPD3) =  -132.523724488     A.U. after   13 cycles
 E2(B2PLYPD3) =    -0.1839768548D+00 E(B2PLYPD3) =    -0.13270770134280D+03

 The electronic state is 1-A.
 Alpha  occ. eigenvalues --  -14.85107 -10.68333 -10.67323  -1.02932  -0.88652
 Alpha  occ. eigenvalues --   -0.59963  -0.54188  -0.51827  -0.44947  -0.38501
 Alpha  occ. eigenvalues --   -0.37896
 Alpha virt. eigenvalues --    0.03436   0.06767   0.06815   0.10067   0.10883
 Alpha virt. eigenvalues --    0.11701   0.15202   0.15275   0.17497   0.20146
 Alpha virt. eigenvalues --    0.20357   0.25412   0.31707   0.32814   0.35076

 Mulliken charges:
               1
     1  C   -0.092511
     2  C    0.009363
     3  N   -0.218833
     4  H    0.103677
     5  H    0.102481
     6  H    0.095823
 Sum of Mulliken charges =   0.00000

 Dipole moment (field-independent basis, Debye):
    X=              4.1773    Y=             -0.0325    Z=              0.0498  Tot=              4.1777
 Quadrupole moment (field-independent basis, Debye-Ang):
   XX=            -21.0524   YY=            -17.6369   ZZ=            -18.2139
   XY=             -0.1481   XZ=              0.0655   YZ=              0.0529

 Normal termination of Gaussian 09 at Wed Aug 26 21:59:27 2020.
