 Gaussian 09, Revision D.01,
 Gaussian 09:  ES64L-G09RevD.01 24-Apr-2013

 --------------------
 #p B2PLYPD3/Def2QZVP
 --------------------

 ------------
 cyanomethane
 ------------
 Symbolic Z-matrix:
 Charge =  0 Multiplicity = 1

                         Standard orientation:
 ---------------------------------------------------------------------
 Center     Atomic      Atomic             Coordinates (Angstroms)
 Number     Number       Type             X           Y           Z
 ---------------------------------------------------------------------
      1          6           0        1.187475    0.010059    0.003532
      2          6           0       -0.281517   -0.012994   -0.005667
      3          7           0       -1.439299    0.007585   -0.000206
      4          1           0        1.551281   -0.808826   -0.628086
      5          1           0        1.504564   -0.163834    1.008751
      6          1           0        1.583499    0.937177   -0.366407
 ---------------------------------------------------------------------

 SCF Done:  E(RB2PLYPD3) =  -132.534811730     A.U. after   12 cycles
 E2(B2PLYPD3) =    -0.1806410458D+00 E(B2PLYPD3) =    -0.13271545277587D+03

 The electronic state is 1-A.
 Alpha  occ. eigenvalues --  -14.84277 -10.66974 -10.66381  -1.03937  -0.89285
 Alpha  occ. eigenvalues --   -0.59546  -0.54551  -0.53765  -0.44757  -0.39098
 Alpha  occ. eigenvalues --   -0.38971
 Alpha virt. eigenvalues --    0.03792   0.07902   0.08206   0.10192   0.11286
 Alpha virt. eigenvalues --    0.11392   0.15308   0.15920   0.16638   0.20099
 Alpha virt. eigenvalues --    0.20114   0.25129   0.32595   0.34479   0.35092

 Mulliken charges:
               1
     1  C   -0.083467
     2  C   -0.001836
     3  N   -0.208086
     4  H    0.095149
     5  H    0.099381
     6  H    0.098860
 Sum of Mulliken charges =   0.00000

 Dipole moment (field-independent basis, Debye):
    X=              4.1407    Y=             -0.0171    Z=              0.0055  Tot=              4.1408
 Quadrupole moment (field-independent basis, Debye-Ang):
   XX=            -21.0148   YY=            -17.7503   ZZ=            -17.7505
   XY=              0.0554   XZ=             -0.0404   YZ=             -0.0286

 Normal termination of Gaussian 09 at Wed Aug 26 11:54:03 2020.
