 Gaussian 09, Revision D.01,
 Gaussian 09:  ES64L-G09RevD.01 24-Apr-2013

 --------------------
 #p B2PLYPD3/Def2QZVP
 --------------------

 ------------
 cyanomethane
 ------------
 Symbolic Z-matrix:
 Charge =  0 Multiplicity = 1

                         Standard orientation:
 ---------------------------------------------------------------------
 Center     Atomic      Atomic             Coordinates (Angstroms)
 Number     Number       Type             X           Y           Z
 ---------------------------------------------------------------------
      1          6           0       -1.177182    0.006889    0.000361
      2          6           0        0.278579    0.009026   -0.002445
      3          7           0        1.437609   -0.008567    0.001141
      4          1           0       -1.516247    1.016139   -0.125643
      5          1           0       -1.571943   -0.412838    0.933718
      6          1           0       -1.583455   -0.638820   -0.803561
 ---------------------------------------------------------------------

 SCF Done:  E(RB2PLYPD3) =  -132.534423527     A.U. after   11 cycles
 E2(B2PLYPD3) =    -0.1809272153D+00 E(B2PLYPD3) =    -0.13271535074189D+03

 The electronic state is 1-A.
 Alpha  occ. eigenvalues --  -14.84349 -10.67213 -10.66419  -1.03949  -0.89191
 Alpha  occ. eigenvalues --   -0.59859  -0.54579  -0.53023  -0.44831  -0.39031
 Alpha  occ. eigenvalues --   -0.38861
 Alpha virt. eigenvalues --    0.03726   0.07493   0.08023   0.10166   0.11282
 Alpha virt. eigenvalues --    0.11575   0.15384   0.16286   0.16469   0.20057
 Alpha virt. eigenvalues --    0.20162   0.25369   0.32647   0.34268   0.34916

 Mulliken charges:
               1
     1  C   -0.082129
     2  C   -0.000224
     3  N   -0.208045
     4  H    0.100709
     5  H    0.095230
     6  H    0.094458
 Sum of Mulliken charges =   0.00000

 Dipole moment (field-independent basis, Debye):
    X=             -4.1365    Y=              0.0033    Z=              0.0036  Tot=              4.1366
 Quadrupole moment (field-independent basis, Debye-Ang):
   XX=            -20.9728   YY=            -17.6885   ZZ=            -17.8771
   XY=              0.1271   XZ=             -0.0169   YZ=             -0.0181

 Normal termination of Gaussian 09 at Wed Aug 26 23:39:11 2020.
