 Gaussian 09, Revision D.01,
 Gaussian 09:  ES64L-G09RevD.01 24-Apr-2013

 --------------------
 #p B2PLYPD3/Def2QZVP
 --------------------

 ------------
 cyanomethane
 ------------
 Symbolic Z-matrix:
 Charge =  0 Multiplicity = 1

                         Standard orientation:
 ---------------------------------------------------------------------
 Center     Atomic      Atomic             Coordinates (Angstroms)
 Number     Number       Type             X           Y           Z
 ---------------------------------------------------------------------
      1          6           0        1.174416   -0.007238   -0.014796
      2          6           0       -0.286851    0.020202    0.029099
      3          7           0       -1.432361   -0.007697   -0.014742
      4          1           0        1.597824    1.040503   -0.198506
      5          1           0        1.558122   -0.713832   -0.763286
      6          1           0        1.545187   -0.350579    0.979166
 ---------------------------------------------------------------------

 SCF Done:  E(RB2PLYPD3) =  -132.532691577     A.U. after   12 cycles
 E2(B2PLYPD3) =    -0.1802657373D+00 E(B2PLYPD3) =    -0.13271295731407D+03

 The electronic state is 1-A.
 Alpha  occ. eigenvalues --  -14.84042 -10.68028 -10.66111  -1.04463  -0.88414
 Alpha  occ. eigenvalues --   -0.59418  -0.53380  -0.52770  -0.44814  -0.39296
 Alpha  occ. eigenvalues --   -0.39136
 Alpha virt. eigenvalues --    0.03574   0.07483   0.07797   0.10146   0.11570
 Alpha virt. eigenvalues --    0.11672   0.15359   0.15962   0.16947   0.20026
 Alpha virt. eigenvalues --    0.20050   0.25387   0.32423   0.33787   0.34603

 Mulliken charges:
               1
     1  C   -0.093854
     2  C   -0.000036
     3  N   -0.200628
     4  H    0.097014
     5  H    0.101892
     6  H    0.095611
 Sum of Mulliken charges =   0.00000

 Dipole moment (field-independent basis, Debye):
    X=              4.0988    Y=             -0.0096    Z=              0.0365  Tot=              4.0990
 Quadrupole moment (field-independent basis, Debye-Ang):
   XX=            -21.0380   YY=            -17.6950   ZZ=            -17.8591
   XY=             -0.0546   XZ=             -0.0636   YZ=              0.0295

 Normal termination of Gaussian 09 at Wed Aug 26 14:24:16 2020.
