 Gaussian 09, Revision D.01,
 Gaussian 09:  ES64L-G09RevD.01 24-Apr-2013

 --------------------
 #p B2PLYPD3/Def2QZVP
 --------------------

 ------------
 cyanomethane
 ------------
 Symbolic Z-matrix:
 Charge =  0 Multiplicity = 1

                         Standard orientation:
 ---------------------------------------------------------------------
 Center     Atomic      Atomic             Coordinates (Angstroms)
 Number     Number       Type             X           Y           Z
 ---------------------------------------------------------------------
      1          6           0        1.173198   -0.001617   -0.000376
      2          6           0       -0.281834    0.004532    0.018715
      3          7           0       -1.432037   -0.000696   -0.011279
      4          1           0        1.583824    0.985838   -0.265457
      5          1           0        1.558493   -0.725148   -0.719693
      6          1           0        1.533757   -0.273308    0.954066
 ---------------------------------------------------------------------

 SCF Done:  E(RB2PLYPD3) =  -132.535179825     A.U. after   11 cycles
 E2(B2PLYPD3) =    -0.1800623920D+00 E(B2PLYPD3) =    -0.13271524221736D+03

 The electronic state is 1-A.
 Alpha  occ. eigenvalues --  -14.84121 -10.66851 -10.66166  -1.04307  -0.89372
 Alpha  occ. eigenvalues --   -0.60063  -0.54303  -0.53520  -0.44822  -0.39220
 Alpha  occ. eigenvalues --   -0.39156
 Alpha virt. eigenvalues --    0.03774   0.07741   0.08287   0.10180   0.11443
 Alpha virt. eigenvalues --    0.11575   0.15487   0.16226   0.16752   0.20049
 Alpha virt. eigenvalues --    0.20097   0.25422   0.32850   0.34616   0.34933

 Mulliken charges:
               1
     1  C   -0.077437
     2  C   -0.001328
     3  N   -0.203974
     4  H    0.093428
     5  H    0.093835
     6  H    0.095475
 Sum of Mulliken charges =   0.00000

 Dipole moment (field-independent basis, Debye):
    X=              4.1263    Y=             -0.0100    Z=              0.0258  Tot=              4.1264
 Quadrupole moment (field-independent basis, Debye-Ang):
   XX=            -20.8890   YY=            -17.7330   ZZ=            -17.7767
   XY=             -0.0039   XZ=             -0.0684   YZ=             -0.0125

 Normal termination of Gaussian 09 at Thu Aug 27 00:06:38 2020.
