 Gaussian 09, Revision D.01,
 Gaussian 09:  ES64L-G09RevD.01 24-Apr-2013

 --------------------
 #p B2PLYPD3/Def2QZVP
 --------------------

 ------------
 cyanomethane
 ------------
 Symbolic Z-matrix:
 Charge =  0 Multiplicity = 1

                         Standard orientation:
 ---------------------------------------------------------------------
 Center     Atomic      Atomic             Coordinates (Angstroms)
 Number     Number       Type             X           Y           Z
 ---------------------------------------------------------------------
      1          6           0       -1.187497    0.006441    0.018339
      2          6           0        0.274520   -0.000695    0.033546
      3          7           0        1.441014    0.000483   -0.024681
      4          1           0       -1.465358   -0.413928    0.898837
      5          1           0       -1.587911   -0.650286   -0.856645
      6          1           0       -1.555969    1.026357   -0.180733
 ---------------------------------------------------------------------

 SCF Done:  E(RB2PLYPD3) =  -132.525108223     A.U. after   12 cycles
 E2(B2PLYPD3) =    -0.1818234612D+00 E(B2PLYPD3) =    -0.13270693168431D+03

 The electronic state is 1-A.
 Alpha  occ. eigenvalues --  -14.84533 -10.67361 -10.66608  -1.03556  -0.89357
 Alpha  occ. eigenvalues --   -0.59193  -0.56141  -0.52108  -0.44768  -0.38916
 Alpha  occ. eigenvalues --   -0.38472
 Alpha virt. eigenvalues --    0.03498   0.06945   0.08553   0.10138   0.10903
 Alpha virt. eigenvalues --    0.11589   0.15255   0.15793   0.16424   0.20056
 Alpha virt. eigenvalues --    0.20236   0.25235   0.32133   0.33353   0.35403

 Mulliken charges:
               1
     1  C   -0.093058
     2  C    0.000051
     3  N   -0.212566
     4  H    0.109459
     5  H    0.092309
     6  H    0.103806
 Sum of Mulliken charges =   0.00000

 Dipole moment (field-independent basis, Debye):
    X=             -4.1311    Y=             -0.0029    Z=              0.0312  Tot=              4.1312
 Quadrupole moment (field-independent basis, Debye-Ang):
   XX=            -21.1622   YY=            -17.7473   ZZ=            -17.7851
   XY=             -0.0014   XZ=              0.2357   YZ=             -0.1335

 Normal termination of Gaussian 09 at Wed Aug 26 13:16:58 2020.
