 Gaussian 09, Revision D.01,
 Gaussian 09:  ES64L-G09RevD.01 24-Apr-2013

 --------------------
 #p B2PLYPD3/Def2QZVP
 --------------------

 ------------
 cyanomethane
 ------------
 Symbolic Z-matrix:
 Charge =  0 Multiplicity = 1

                         Standard orientation:
 ---------------------------------------------------------------------
 Center     Atomic      Atomic             Coordinates (Angstroms)
 Number     Number       Type             X           Y           Z
 ---------------------------------------------------------------------
      1          6           0       -1.192297    0.016549   -0.041867
      2          6           0        0.266952   -0.088394    0.015763
      3          7           0        1.452188    0.042894   -0.004174
      4          1           0       -1.536544   -0.030693    0.999773
      5          1           0       -1.552534   -0.808609   -0.468911
      6          1           0       -1.524168    0.970116   -0.345019
 ---------------------------------------------------------------------

 SCF Done:  E(RB2PLYPD3) =  -132.517450126     A.U. after   13 cycles
 E2(B2PLYPD3) =    -0.1838116589D+00 E(B2PLYPD3) =    -0.13270126178478D+03

 The electronic state is 1-A.
 Alpha  occ. eigenvalues --  -14.85292 -10.67368 -10.66117  -1.02676  -0.90250
 Alpha  occ. eigenvalues --   -0.60238  -0.57418  -0.52513  -0.44928  -0.38530
 Alpha  occ. eigenvalues --   -0.37915
 Alpha virt. eigenvalues --    0.03512   0.06847   0.08166   0.09945   0.10650
 Alpha virt. eigenvalues --    0.11479   0.14959   0.15631   0.17317   0.20088
 Alpha virt. eigenvalues --    0.20408   0.25748   0.32451   0.33577   0.36066

 Mulliken charges:
               1
     1  C   -0.068953
     2  C    0.008098
     3  N   -0.223190
     4  H    0.080796
     5  H    0.100403
     6  H    0.102846
 Sum of Mulliken charges =   0.00000

 Dipole moment (field-independent basis, Debye):
    X=             -4.1779    Y=             -0.0400    Z=              0.0757  Tot=              4.1788
 Quadrupole moment (field-independent basis, Debye-Ang):
   XX=            -20.9158   YY=            -17.5418   ZZ=            -18.1422
   XY=             -0.1783   XZ=             -0.1583   YZ=              0.0638

 Normal termination of Gaussian 09 at Wed Aug 26 19:40:54 2020.
