 Gaussian 09, Revision D.01,
 Gaussian 09:  ES64L-G09RevD.01 24-Apr-2013

 --------------------
 #p B2PLYPD3/Def2QZVP
 --------------------

 ------------
 cyanomethane
 ------------
 Symbolic Z-matrix:
 Charge =  0 Multiplicity = 1

                         Standard orientation:
 ---------------------------------------------------------------------
 Center     Atomic      Atomic             Coordinates (Angstroms)
 Number     Number       Type             X           Y           Z
 ---------------------------------------------------------------------
      1          6           0       -1.183631    0.003905    0.007671
      2          6           0        0.284954   -0.009022   -0.014764
      3          7           0        1.432343    0.002553    0.006187
      4          1           0       -1.523173    1.017238   -0.196467
      5          1           0       -1.542349   -0.330382    0.962275
      6          1           0       -1.568816   -0.674026   -0.766562
 ---------------------------------------------------------------------

 SCF Done:  E(RB2PLYPD3) =  -132.535968081     A.U. after   11 cycles
 E2(B2PLYPD3) =    -0.1798194169D+00 E(B2PLYPD3) =    -0.13271578749780D+03

 The electronic state is 1-A.
 Alpha  occ. eigenvalues --  -14.83968 -10.67143 -10.66047  -1.04343  -0.89081
 Alpha  occ. eigenvalues --   -0.59324  -0.54310  -0.53688  -0.44710  -0.39303
 Alpha  occ. eigenvalues --   -0.39223
 Alpha virt. eigenvalues --    0.03775   0.08108   0.08225   0.10215   0.11441
 Alpha virt. eigenvalues --    0.11507   0.15320   0.16189   0.16433   0.20051
 Alpha virt. eigenvalues --    0.20061   0.25152   0.32691   0.34506   0.34891

 Mulliken charges:
               1
     1  C   -0.087467
     2  C   -0.004005
     3  N   -0.202715
     4  H    0.099335
     5  H    0.099284
     6  H    0.095567
 Sum of Mulliken charges =   0.00000

 Dipole moment (field-independent basis, Debye):
    X=             -4.1184    Y=             -0.0067    Z=             -0.0060  Tot=              4.1184
 Quadrupole moment (field-independent basis, Debye-Ang):
   XX=            -21.0483   YY=            -17.6875   ZZ=            -17.7432
   XY=              0.0258   XZ=             -0.0276   YZ=             -0.0249

 Normal termination of Gaussian 09 at Wed Aug 26 10:09:35 2020.
