 Gaussian 09, Revision D.01,
 Gaussian 09:  ES64L-G09RevD.01 24-Apr-2013

 --------------------
 #p B2PLYPD3/Def2QZVP
 --------------------

 ------------
 cyanomethane
 ------------
 Symbolic Z-matrix:
 Charge =  0 Multiplicity = 1

                         Standard orientation:
 ---------------------------------------------------------------------
 Center     Atomic      Atomic             Coordinates (Angstroms)
 Number     Number       Type             X           Y           Z
 ---------------------------------------------------------------------
      1          6           0       -1.164057    0.012408    0.005013
      2          6           0        0.286465   -0.013842   -0.031881
      3          7           0        1.423195   -0.000013    0.015265
      4          1           0       -1.490599    0.991237   -0.221623
      5          1           0       -1.572799   -0.276924    0.959644
      6          1           0       -1.633413   -0.705623   -0.683666
 ---------------------------------------------------------------------

 SCF Done:  E(RB2PLYPD3) =  -132.534392668     A.U. after   11 cycles
 E2(B2PLYPD3) =    -0.1789949797D+00 E(B2PLYPD3) =    -0.13271338764776D+03

 The electronic state is 1-A.
 Alpha  occ. eigenvalues --  -14.83787 -10.66595 -10.65800  -1.04865  -0.89456
 Alpha  occ. eigenvalues --   -0.60441  -0.54789  -0.52830  -0.44821  -0.39617
 Alpha  occ. eigenvalues --   -0.39388
 Alpha virt. eigenvalues --    0.03824   0.07895   0.08459   0.10210   0.11548
 Alpha virt. eigenvalues --    0.11838   0.15539   0.16608   0.16845   0.19947
 Alpha virt. eigenvalues --    0.20074   0.25582   0.32993   0.34689   0.35279

 Mulliken charges:
               1
     1  C   -0.071819
     2  C   -0.001815
     3  N   -0.197249
     4  H    0.095912
     5  H    0.088837
     6  H    0.086134
 Sum of Mulliken charges =   0.00000

 Dipole moment (field-independent basis, Debye):
    X=             -4.1078    Y=             -0.0071    Z=             -0.0069  Tot=              4.1078
 Quadrupole moment (field-independent basis, Debye-Ang):
   XX=            -20.7613   YY=            -17.6155   ZZ=            -17.8616
   XY=              0.1228   XZ=             -0.1162   YZ=             -0.0408

 Normal termination of Gaussian 09 at Wed Aug 26 15:33:16 2020.
