 Gaussian 09, Revision D.01,
 Gaussian 09:  ES64L-G09RevD.01 24-Apr-2013

 --------------------
 #p B2PLYPD3/Def2QZVP
 --------------------

 ------------
 cyanomethane
 ------------
 Symbolic Z-matrix:
 Charge =  0 Multiplicity = 1

                         Standard orientation:
 ---------------------------------------------------------------------
 Center     Atomic      Atomic             Coordinates (Angstroms)
 Number     Number       Type             X           Y           Z
 ---------------------------------------------------------------------
      1          6           0        1.189178    0.001523   -0.007127
      2          6           0       -0.276670    0.018997    0.014861
      3          7           0       -1.442089   -0.002109   -0.004155
      4          1           0        1.556342   -0.256383    0.970944
      5          1           0        1.629957    0.946878   -0.310607
      6          1           0        1.433274   -0.798855   -0.677658
 ---------------------------------------------------------------------

 SCF Done:  E(RB2PLYPD3) =  -132.533221358     A.U. after   12 cycles
 E2(B2PLYPD3) =    -0.1813344897D+00 E(B2PLYPD3) =    -0.13271455584811D+03

 The electronic state is 1-A.
 Alpha  occ. eigenvalues --  -14.84460 -10.66955 -10.66594  -1.03627  -0.89446
 Alpha  occ. eigenvalues --   -0.59594  -0.54614  -0.53926  -0.44756  -0.38888
 Alpha  occ. eigenvalues --   -0.38738
 Alpha virt. eigenvalues --    0.03787   0.07724   0.08131   0.10218   0.11183
 Alpha virt. eigenvalues --    0.11374   0.15185   0.15768   0.16684   0.20120
 Alpha virt. eigenvalues --    0.20182   0.25174   0.32474   0.34505   0.35071

 Mulliken charges:
               1
     1  C   -0.085311
     2  C   -0.000183
     3  N   -0.212355
     4  H    0.096215
     5  H    0.099382
     6  H    0.102252
 Sum of Mulliken charges =   0.00000

 Dipole moment (field-independent basis, Debye):
    X=              4.1550    Y=             -0.0206    Z=              0.0143  Tot=              4.1551
 Quadrupole moment (field-independent basis, Debye-Ang):
   XX=            -21.0383   YY=            -17.6871   ZZ=            -17.8509
   XY=              0.0784   XZ=              0.0562   YZ=              0.0114

 Normal termination of Gaussian 09 at Wed Aug 26 11:41:47 2020.
