 Gaussian 09, Revision D.01,
 Gaussian 09:  ES64L-G09RevD.01 24-Apr-2013

 --------------------
 #p B2PLYPD3/Def2QZVP
 --------------------

 ------------
 cyanomethane
 ------------
 Symbolic Z-matrix:
 Charge =  0 Multiplicity = 1

                         Standard orientation:
 ---------------------------------------------------------------------
 Center     Atomic      Atomic             Coordinates (Angstroms)
 Number     Number       Type             X           Y           Z
 ---------------------------------------------------------------------
      1          6           0       -1.181722    0.001230    0.006001
      2          6           0        0.266278    0.014745   -0.024759
      3          7           0        1.431247   -0.005996    0.006276
      4          1           0       -1.532260   -0.887993   -0.513732
      5          1           0       -1.567446    0.890615   -0.444377
      6          1           0       -1.426358   -0.056502    1.026724
 ---------------------------------------------------------------------

 SCF Done:  E(RB2PLYPD3) =  -132.532791554     A.U. after   12 cycles
 E2(B2PLYPD3) =    -0.1811568939D+00 E(B2PLYPD3) =    -0.13271394844802D+03

 The electronic state is 1-A.
 Alpha  occ. eigenvalues --  -14.84319 -10.66512 -10.66366  -1.03627  -0.90045
 Alpha  occ. eigenvalues --   -0.59385  -0.55270  -0.54551  -0.44672  -0.38753
 Alpha  occ. eigenvalues --   -0.38654
 Alpha virt. eigenvalues --    0.03848   0.07902   0.08234   0.10177   0.11220
 Alpha virt. eigenvalues --    0.11398   0.15372   0.15744   0.16209   0.20141
 Alpha virt. eigenvalues --    0.20206   0.25488   0.32730   0.34626   0.35061

 Mulliken charges:
               1
     1  C   -0.088121
     2  C   -0.001970
     3  N   -0.213915
     4  H    0.099463
     5  H    0.100550
     6  H    0.103993
 Sum of Mulliken charges =   0.00000

 Dipole moment (field-independent basis, Debye):
    X=             -4.1349    Y=              0.0027    Z=              0.0087  Tot=              4.1349
 Quadrupole moment (field-independent basis, Debye-Ang):
   XX=            -21.1866   YY=            -17.6606   ZZ=            -17.7119
   XY=              0.0109   XZ=              0.0387   YZ=             -0.0153

 Normal termination of Gaussian 09 at Wed Aug 26 11:11:26 2020.
