 Gaussian 09, Revision D.01,
 Gaussian 09:  ES64L-G09RevD.01 24-Apr-2013

 --------------------
 #p B2PLYPD3/Def2QZVP
 --------------------

 ------------
 cyanomethane
 ------------
 Symbolic Z-matrix:
 Charge =  0 Multiplicity = 1

                         Standard orientation:
 ---------------------------------------------------------------------
 Center     Atomic      Atomic             Coordinates (Angstroms)
 Number     Number       Type             X           Y           Z
 ---------------------------------------------------------------------
      1          6           0        1.214970    0.024499   -0.009056
      2          6           0       -0.298016   -0.057983    0.022423
      3          7           0       -1.430256    0.028722   -0.011756
      4          1           0        1.509426    0.990104   -0.278564
      5          1           0        1.507394   -0.742561   -0.721033
      6          1           0        1.493252   -0.247691    1.001683
 ---------------------------------------------------------------------

 SCF Done:  E(RB2PLYPD3) =  -132.530580390     A.U. after   12 cycles
 E2(B2PLYPD3) =    -0.1788776793D+00 E(B2PLYPD3) =    -0.13270945806935D+03

 The electronic state is 1-A.
 Alpha  occ. eigenvalues --  -14.83496 -10.67186 -10.65602  -1.04614  -0.88817
 Alpha  occ. eigenvalues --   -0.57859  -0.54848  -0.54218  -0.44405  -0.39696
 Alpha  occ. eigenvalues --   -0.39538
 Alpha virt. eigenvalues --    0.03738   0.08643   0.09111   0.10166   0.11248
 Alpha virt. eigenvalues --    0.11425   0.14969   0.15306   0.16558   0.19945
 Alpha virt. eigenvalues --    0.20055   0.24574   0.32518   0.34337   0.35177

 Mulliken charges:
               1
     1  C   -0.102892
     2  C   -0.012616
     3  N   -0.197045
     4  H    0.108218
     5  H    0.102432
     6  H    0.101902
 Sum of Mulliken charges =   0.00000

 Dipole moment (field-independent basis, Debye):
    X=              4.0920    Y=             -0.0464    Z=              0.0216  Tot=              4.0924
 Quadrupole moment (field-independent basis, Debye-Ang):
   XX=            -21.3334   YY=            -17.5581   ZZ=            -17.6335
   XY=              0.1644   XZ=             -0.0723   YZ=             -0.0115

 Normal termination of Gaussian 09 at Wed Aug 26 22:44:06 2020.
