 Gaussian 09, Revision D.01,
 Gaussian 09:  ES64L-G09RevD.01 24-Apr-2013

 --------------------
 #p B2PLYPD3/Def2QZVP
 --------------------

 ------------
 cyanomethane
 ------------
 Symbolic Z-matrix:
 Charge =  0 Multiplicity = 1

                         Standard orientation:
 ---------------------------------------------------------------------
 Center     Atomic      Atomic             Coordinates (Angstroms)
 Number     Number       Type             X           Y           Z
 ---------------------------------------------------------------------
      1          6           0        1.183647    0.004801   -0.009762
      2          6           0       -0.282394    0.001974   -0.016321
      3          7           0       -1.437289   -0.003667    0.012356
      4          1           0        1.590492   -0.020057    1.007626
      5          1           0        1.506830    0.884581   -0.455554
      6          1           0        1.556182   -0.879498   -0.482066
 ---------------------------------------------------------------------

 SCF Done:  E(RB2PLYPD3) =  -132.533201507     A.U. after   11 cycles
 E2(B2PLYPD3) =    -0.1802969235D+00 E(B2PLYPD3) =    -0.13271349843081D+03

 The electronic state is 1-A.
 Alpha  occ. eigenvalues --  -14.84230 -10.66547 -10.66308  -1.04077  -0.89599
 Alpha  occ. eigenvalues --   -0.59900  -0.55569  -0.53096  -0.44789  -0.39264
 Alpha  occ. eigenvalues --   -0.38997
 Alpha virt. eigenvalues --    0.03820   0.07811   0.08547   0.10207   0.11140
 Alpha virt. eigenvalues --    0.11574   0.15377   0.16316   0.16515   0.20019
 Alpha virt. eigenvalues --    0.20161   0.25182   0.32749   0.34427   0.35562

 Mulliken charges:
               1
     1  C   -0.074718
     2  C   -0.002038
     3  N   -0.206742
     4  H    0.088567
     5  H    0.099289
     6  H    0.095642
 Sum of Mulliken charges =   0.00000

 Dipole moment (field-independent basis, Debye):
    X=              4.1428    Y=              0.0040    Z=             -0.0023  Tot=              4.1428
 Quadrupole moment (field-independent basis, Debye-Ang):
   XX=            -20.9001   YY=            -17.6173   ZZ=            -17.8813
   XY=             -0.0621   XZ=              0.1590   YZ=             -0.0258

 Normal termination of Gaussian 09 at Wed Aug 26 16:14:08 2020.
