 Gaussian 09, Revision D.01,
 Gaussian 09:  ES64L-G09RevD.01 24-Apr-2013

 --------------------
 #p B2PLYPD3/Def2QZVP
 --------------------

 ------------
 cyanomethane
 ------------
 Symbolic Z-matrix:
 Charge =  0 Multiplicity = 1

                         Standard orientation:
 ---------------------------------------------------------------------
 Center     Atomic      Atomic             Coordinates (Angstroms)
 Number     Number       Type             X           Y           Z
 ---------------------------------------------------------------------
      1          6           0       -1.175731   -0.003406    0.023919
      2          6           0        0.286846   -0.024952   -0.082536
      3          7           0        1.416545    0.012642    0.037764
      4          1           0       -1.480818   -0.069136    0.998160
      5          1           0       -1.564782   -0.822676   -0.523588
      6          1           0       -1.536904    0.973465   -0.387219
 ---------------------------------------------------------------------

 SCF Done:  E(RB2PLYPD3) =  -132.530900104     A.U. after   12 cycles
 E2(B2PLYPD3) =    -0.1788314900D+00 E(B2PLYPD3) =    -0.13270973159436D+03

 The electronic state is 1-A.
 Alpha  occ. eigenvalues --  -14.83676 -10.66410 -10.65631  -1.04844  -0.89517
 Alpha  occ. eigenvalues --   -0.59646  -0.54930  -0.53682  -0.44711  -0.39621
 Alpha  occ. eigenvalues --   -0.39478
 Alpha virt. eigenvalues --    0.03767   0.08127   0.08741   0.10118   0.11433
 Alpha virt. eigenvalues --    0.11714   0.15561   0.15966   0.16734   0.19895
 Alpha virt. eigenvalues --    0.20040   0.25745   0.32889   0.34477   0.35532

 Mulliken charges:
               1
     1  C   -0.084007
     2  C   -0.003619
     3  N   -0.197211
     4  H    0.098509
     5  H    0.094093
     6  H    0.092235
 Sum of Mulliken charges =   0.00000

 Dipole moment (field-independent basis, Debye):
    X=             -4.0579    Y=             -0.0276    Z=             -0.0320  Tot=              4.0581
 Quadrupole moment (field-independent basis, Debye-Ang):
   XX=            -21.0147   YY=            -17.5581   ZZ=            -17.7181
   XY=             -0.0389   XZ=             -0.2234   YZ=              0.0133

 Normal termination of Gaussian 09 at Wed Aug 26 23:37:32 2020.
