 Gaussian 09, Revision D.01,
 Gaussian 09:  ES64L-G09RevD.01 24-Apr-2013

 --------------------
 #p B2PLYPD3/Def2QZVP
 --------------------

 ------------
 cyanomethane
 ------------
 Symbolic Z-matrix:
 Charge =  0 Multiplicity = 1

                         Standard orientation:
 ---------------------------------------------------------------------
 Center     Atomic      Atomic             Coordinates (Angstroms)
 Number     Number       Type             X           Y           Z
 ---------------------------------------------------------------------
      1          6           0        1.177873    0.011234    0.003714
      2          6           0       -0.285214   -0.038030   -0.013779
      3          7           0       -1.442536    0.021570    0.007558
      4          1           0        1.614484    1.056170   -0.177654
      5          1           0        1.550057   -0.683095   -0.782850
      6          1           0        1.577257   -0.363292    0.967993
 ---------------------------------------------------------------------

 SCF Done:  E(RB2PLYPD3) =  -132.530850744     A.U. after   12 cycles
 E2(B2PLYPD3) =    -0.1814420587D+00 E(B2PLYPD3) =    -0.13271229280265D+03

 The electronic state is 1-A.
 Alpha  occ. eigenvalues --  -14.84464 -10.68189 -10.66562  -1.04001  -0.88327
 Alpha  occ. eigenvalues --   -0.59588  -0.53041  -0.52762  -0.44914  -0.38987
 Alpha  occ. eigenvalues --   -0.38921
 Alpha virt. eigenvalues --    0.03462   0.07039   0.07699   0.10100   0.11432
 Alpha virt. eigenvalues --    0.11512   0.15333   0.15849   0.17084   0.20047
 Alpha virt. eigenvalues --    0.20144   0.25381   0.32350   0.33957   0.34150

 Mulliken charges:
               1
     1  C   -0.090338
     2  C    0.003064
     3  N   -0.206061
     4  H    0.099127
     5  H    0.096657
     6  H    0.097551
 Sum of Mulliken charges =   0.00000

 Dipole moment (field-independent basis, Debye):
    X=              4.1222    Y=             -0.0519    Z=             -0.0034  Tot=              4.1225
 Quadrupole moment (field-independent basis, Debye-Ang):
   XX=            -20.9756   YY=            -17.7686   ZZ=            -17.9300
   XY=              0.1137   XZ=              0.0715   YZ=             -0.0030

 Normal termination of Gaussian 09 at Wed Aug 26 15:53:49 2020.
