 Gaussian 09, Revision D.01,
 Gaussian 09:  ES64L-G09RevD.01 24-Apr-2013

 --------------------
 #p B2PLYPD3/Def2QZVP
 --------------------

 ------------
 cyanomethane
 ------------
 Symbolic Z-matrix:
 Charge =  0 Multiplicity = 1

                         Standard orientation:
 ---------------------------------------------------------------------
 Center     Atomic      Atomic             Coordinates (Angstroms)
 Number     Number       Type             X           Y           Z
 ---------------------------------------------------------------------
      1          6           0        1.171958   -0.009911    0.005120
      2          6           0       -0.281357   -0.015615    0.005840
      3          7           0       -1.431481    0.011876   -0.004052
      4          1           0        1.594287    0.961543   -0.346167
      5          1           0        1.535466   -0.739720   -0.647899
      6          1           0        1.547004   -0.151799    0.956669
 ---------------------------------------------------------------------

 SCF Done:  E(RB2PLYPD3) =  -132.532222244     A.U. after   11 cycles
 E2(B2PLYPD3) =    -0.1798567089D+00 E(B2PLYPD3) =    -0.13271207895336D+03

 The electronic state is 1-A.
 Alpha  occ. eigenvalues --  -14.84132 -10.66254 -10.66158  -1.04332  -0.89856
 Alpha  occ. eigenvalues --   -0.60504  -0.55415  -0.53115  -0.44845  -0.39372
 Alpha  occ. eigenvalues --   -0.39095
 Alpha virt. eigenvalues --    0.03815   0.07809   0.08596   0.10192   0.11295
 Alpha virt. eigenvalues --    0.11658   0.15552   0.16457   0.16695   0.20021
 Alpha virt. eigenvalues --    0.20131   0.25438   0.32904   0.34433   0.35684

 Mulliken charges:
               1
     1  C   -0.067804
     2  C   -0.000873
     3  N   -0.204327
     4  H    0.085776
     5  H    0.093612
     6  H    0.093617
 Sum of Mulliken charges =   0.00000

 Dipole moment (field-independent basis, Debye):
    X=              4.1343    Y=             -0.0222    Z=              0.0099  Tot=              4.1344
 Quadrupole moment (field-independent basis, Debye-Ang):
   XX=            -20.7815   YY=            -17.7837   ZZ=            -17.7132
   XY=              0.1071   XZ=             -0.0233   YZ=              0.0464

 Normal termination of Gaussian 09 at Thu Aug 27 00:06:38 2020.
