 Gaussian 09, Revision D.01,
 Gaussian 09:  ES64L-G09RevD.01 24-Apr-2013

 --------------------
 #p B2PLYPD3/Def2QZVP
 --------------------

 ------------
 cyanomethane
 ------------
 Symbolic Z-matrix:
 Charge =  0 Multiplicity = 1

                         Standard orientation:
 ---------------------------------------------------------------------
 Center     Atomic      Atomic             Coordinates (Angstroms)
 Number     Number       Type             X           Y           Z
 ---------------------------------------------------------------------
      1          6           0        1.180060    0.027596    0.000086
      2          6           0       -0.302608   -0.079395    0.001657
      3          7           0       -1.431473    0.042704   -0.007441
      4          1           0        1.651457    1.022994   -0.219499
      5          1           0        1.623278   -0.728308   -0.676554
      6          1           0        1.480861   -0.282820    0.937676
 ---------------------------------------------------------------------

 SCF Done:  E(RB2PLYPD3) =  -132.527581004     A.U. after   12 cycles
 E2(B2PLYPD3) =    -0.1792258922D+00 E(B2PLYPD3) =    -0.13270680689595D+03

 The electronic state is 1-A.
 Alpha  occ. eigenvalues --  -14.83875 -10.67178 -10.65952  -1.04983  -0.88713
 Alpha  occ. eigenvalues --   -0.59652  -0.53810  -0.52721  -0.44881  -0.39787
 Alpha  occ. eigenvalues --   -0.39638
 Alpha virt. eigenvalues --    0.03444   0.07508   0.09006   0.10064   0.11509
 Alpha virt. eigenvalues --    0.11625   0.15445   0.15577   0.17885   0.20001
 Alpha virt. eigenvalues --    0.20186   0.25545   0.32635   0.34391   0.34888

 Mulliken charges:
               1
     1  C   -0.080629
     2  C   -0.000122
     3  N   -0.194069
     4  H    0.096168
     5  H    0.084887
     6  H    0.093766
 Sum of Mulliken charges =   0.00000

 Dipole moment (field-independent basis, Debye):
    X=              4.0923    Y=             -0.1035    Z=              0.0590  Tot=              4.0941
 Quadrupole moment (field-independent basis, Debye-Ang):
   XX=            -20.7132   YY=            -17.6263   ZZ=            -17.9505
   XY=              0.2182   XZ=             -0.0442   YZ=             -0.0430

 Normal termination of Gaussian 09 at Wed Aug 26 23:46:57 2020.
