 Gaussian 09, Revision D.01,
 Gaussian 09:  ES64L-G09RevD.01 24-Apr-2013

 --------------------
 #p B2PLYPD3/Def2QZVP
 --------------------

 ------------
 cyanomethane
 ------------
 Symbolic Z-matrix:
 Charge =  0 Multiplicity = 1

                         Standard orientation:
 ---------------------------------------------------------------------
 Center     Atomic      Atomic             Coordinates (Angstroms)
 Number     Number       Type             X           Y           Z
 ---------------------------------------------------------------------
      1          6           0        1.169909   -0.003994   -0.018165
      2          6           0       -0.280559   -0.029393    0.015268
      3          7           0       -1.423477    0.020743   -0.009586
      4          1           0        1.622288    0.959028   -0.345476
      5          1           0        1.520835   -0.788810   -0.570646
      6          1           0        1.485115   -0.115091    1.000603
 ---------------------------------------------------------------------

 SCF Done:  E(RB2PLYPD3) =  -132.531069271     A.U. after   12 cycles
 E2(B2PLYPD3) =    -0.1794570340D+00 E(B2PLYPD3) =    -0.13271052630545D+03

 The electronic state is 1-A.
 Alpha  occ. eigenvalues --  -14.83885 -10.66350 -10.65894  -1.04555  -0.89856
 Alpha  occ. eigenvalues --   -0.60078  -0.55547  -0.53097  -0.44764  -0.39490
 Alpha  occ. eigenvalues --   -0.39112
 Alpha virt. eigenvalues --    0.03768   0.07774   0.08864   0.10159   0.11348
 Alpha virt. eigenvalues --    0.11781   0.15572   0.15678   0.17342   0.20023
 Alpha virt. eigenvalues --    0.20148   0.25579   0.33079   0.34168   0.35594

 Mulliken charges:
               1
     1  C   -0.077888
     2  C   -0.002079
     3  N   -0.201737
     4  H    0.092232
     5  H    0.098815
     6  H    0.090657
 Sum of Mulliken charges =   0.00000

 Dipole moment (field-independent basis, Debye):
    X=              4.1118    Y=             -0.0413    Z=              0.0516  Tot=              4.1123
 Quadrupole moment (field-independent basis, Debye-Ang):
   XX=            -20.8889   YY=            -17.6203   ZZ=            -17.7794
   XY=              0.1792   XZ=             -0.0261   YZ=              0.0798

 Normal termination of Gaussian 09 at Wed Aug 26 12:04:25 2020.
