 Gaussian 09, Revision D.01,
 Gaussian 09:  ES64L-G09RevD.01 24-Apr-2013

 --------------------
 #p B2PLYPD3/Def2QZVP
 --------------------

 ------------
 cyanomethane
 ------------
 Symbolic Z-matrix:
 Charge =  0 Multiplicity = 1

                         Standard orientation:
 ---------------------------------------------------------------------
 Center     Atomic      Atomic             Coordinates (Angstroms)
 Number     Number       Type             X           Y           Z
 ---------------------------------------------------------------------
      1          6           0        1.162602    0.033184    0.016614
      2          6           0       -0.281291   -0.050786   -0.013161
      3          7           0       -1.418470    0.024086    0.014164
      4          1           0        1.653321   -0.427134    0.938116
      5          1           0        1.542225    1.055023   -0.194709
      6          1           0        1.445883   -0.690880   -0.863273
 ---------------------------------------------------------------------

 SCF Done:  E(RB2PLYPD3) =  -132.525378337     A.U. after   12 cycles
 E2(B2PLYPD3) =    -0.1802301028D+00 E(B2PLYPD3) =    -0.13270560843990D+03

 The electronic state is 1-A.
 Alpha  occ. eigenvalues --  -14.83759 -10.68514 -10.65804  -1.04749  -0.88333
 Alpha  occ. eigenvalues --   -0.59249  -0.53810  -0.51768  -0.44757  -0.39450
 Alpha  occ. eigenvalues --   -0.38766
 Alpha virt. eigenvalues --    0.03432   0.07256   0.07525   0.10057   0.11642
 Alpha virt. eigenvalues --    0.12088   0.15088   0.15452   0.17752   0.20013
 Alpha virt. eigenvalues --    0.20137   0.25857   0.31974   0.32862   0.34962

 Mulliken charges:
               1
     1  C   -0.111034
     2  C    0.005044
     3  N   -0.198307
     4  H    0.101238
     5  H    0.109730
     6  H    0.093329
 Sum of Mulliken charges =   0.00000

 Dipole moment (field-independent basis, Debye):
    X=              4.0571    Y=             -0.0542    Z=             -0.0361  Tot=              4.0576
 Quadrupole moment (field-independent basis, Debye-Ang):
   XX=            -21.2066   YY=            -17.5981   ZZ=            -17.8823
   XY=              0.1066   XZ=              0.2027   YZ=             -0.0772

 Normal termination of Gaussian 09 at Wed Aug 26 23:13:46 2020.
