 Gaussian 09, Revision D.01,
 Gaussian 09:  ES64L-G09RevD.01 24-Apr-2013

 --------------------
 #p B2PLYPD3/Def2QZVP
 --------------------

 ------------
 cyanomethane
 ------------
 Symbolic Z-matrix:
 Charge =  0 Multiplicity = 1

                         Standard orientation:
 ---------------------------------------------------------------------
 Center     Atomic      Atomic             Coordinates (Angstroms)
 Number     Number       Type             X           Y           Z
 ---------------------------------------------------------------------
      1          6           0        1.162388    0.006910    0.016214
      2          6           0       -0.284535   -0.037512   -0.003172
      3          7           0       -1.426449    0.025327   -0.000327
      4          1           0        1.653658    0.993925   -0.313173
      5          1           0        1.512401   -0.752405   -0.707129
      6          1           0        1.551961   -0.235196    0.944338
 ---------------------------------------------------------------------

 SCF Done:  E(RB2PLYPD3) =  -132.529791145     A.U. after   12 cycles
 E2(B2PLYPD3) =    -0.1798285489D+00 E(B2PLYPD3) =    -0.13270961969349D+03

 The electronic state is 1-A.
 Alpha  occ. eigenvalues --  -14.84002 -10.67131 -10.66015  -1.04669  -0.89205
 Alpha  occ. eigenvalues --   -0.60435  -0.54319  -0.52400  -0.44891  -0.39460
 Alpha  occ. eigenvalues --   -0.39133
 Alpha virt. eigenvalues --    0.03578   0.07273   0.08442   0.10107   0.11536
 Alpha virt. eigenvalues --    0.11818   0.15578   0.15903   0.17504   0.20000
 Alpha virt. eigenvalues --    0.20159   0.25693   0.32808   0.33748   0.35115

 Mulliken charges:
               1
     1  C   -0.079771
     2  C    0.001271
     3  N   -0.199629
     4  H    0.090501
     5  H    0.090168
     6  H    0.097460
 Sum of Mulliken charges =   0.00000

 Dipole moment (field-independent basis, Debye):
    X=              4.1014    Y=             -0.0686    Z=              0.0068  Tot=              4.1019
 Quadrupole moment (field-independent basis, Debye-Ang):
   XX=            -20.8089   YY=            -17.7807   ZZ=            -17.7828
   XY=              0.1854   XZ=              0.0055   YZ=             -0.0144

 Normal termination of Gaussian 09 at Wed Aug 26 15:56:44 2020.
