 Gaussian 09, Revision D.01,
 Gaussian 09:  ES64L-G09RevD.01 24-Apr-2013

 --------------------
 #p B2PLYPD3/Def2QZVP
 --------------------

 ------------
 cyanomethane
 ------------
 Symbolic Z-matrix:
 Charge =  0 Multiplicity = 1

                         Standard orientation:
 ---------------------------------------------------------------------
 Center     Atomic      Atomic             Coordinates (Angstroms)
 Number     Number       Type             X           Y           Z
 ---------------------------------------------------------------------
      1          6           0       -1.182022    0.010527    0.000901
      2          6           0        0.276247   -0.005019    0.009422
      3          7           0        1.438505    0.005076   -0.007662
      4          1           0       -1.491028   -0.455160    0.898688
      5          1           0       -1.547505   -0.607759   -0.818554
      6          1           0       -1.596354    0.994332   -0.088439
 ---------------------------------------------------------------------

 SCF Done:  E(RB2PLYPD3) =  -132.533744169     A.U. after   12 cycles
 E2(B2PLYPD3) =    -0.1809677365D+00 E(B2PLYPD3) =    -0.13271471190531D+03

 The electronic state is 1-A.
 Alpha  occ. eigenvalues --  -14.84396 -10.66666 -10.66478  -1.03795  -0.89653
 Alpha  occ. eigenvalues --   -0.59925  -0.54841  -0.53816  -0.44798  -0.38989
 Alpha  occ. eigenvalues --   -0.38807
 Alpha virt. eigenvalues --    0.03816   0.07738   0.08236   0.10163   0.11233
 Alpha virt. eigenvalues --    0.11441   0.15406   0.15789   0.16831   0.20112
 Alpha virt. eigenvalues --    0.20174   0.25323   0.32717   0.34508   0.35235

 Mulliken charges:
               1
     1  C   -0.078624
     2  C   -0.000374
     3  N   -0.210590
     4  H    0.097313
     5  H    0.093727
     6  H    0.098548
 Sum of Mulliken charges =   0.00000

 Dipole moment (field-independent basis, Debye):
    X=             -4.1492    Y=             -0.0279    Z=              0.0173  Tot=              4.1493
 Quadrupole moment (field-independent basis, Debye-Ang):
   XX=            -20.9632   YY=            -17.6918   ZZ=            -17.8261
   XY=             -0.0366   XZ=              0.0740   YZ=             -0.0299

 Normal termination of Gaussian 09 at Wed Aug 26 11:45:41 2020.
