 Gaussian 09, Revision D.01,
 Gaussian 09:  ES64L-G09RevD.01 24-Apr-2013

 --------------------
 #p B2PLYPD3/Def2QZVP
 --------------------

 ------------
 cyanomethane
 ------------
 Symbolic Z-matrix:
 Charge =  0 Multiplicity = 1

                         Standard orientation:
 ---------------------------------------------------------------------
 Center     Atomic      Atomic             Coordinates (Angstroms)
 Number     Number       Type             X           Y           Z
 ---------------------------------------------------------------------
      1          6           0        1.187364   -0.007433   -0.005789
      2          6           0       -0.276177   -0.012093    0.024704
      3          7           0       -1.436907    0.004841   -0.010587
      4          1           0        1.562265   -0.326661    0.957615
      5          1           0        1.497434    1.052622   -0.192324
      6          1           0        1.531524   -0.642692   -0.804667
 ---------------------------------------------------------------------

 SCF Done:  E(RB2PLYPD3) =  -132.533869669     A.U. after   12 cycles
 E2(B2PLYPD3) =    -0.1810994958D+00 E(B2PLYPD3) =    -0.13271496916455D+03

 The electronic state is 1-A.
 Alpha  occ. eigenvalues --  -14.84295 -10.67370 -10.66387  -1.03771  -0.89145
 Alpha  occ. eigenvalues --   -0.59115  -0.54663  -0.53561  -0.44701  -0.38948
 Alpha  occ. eigenvalues --   -0.38753
 Alpha virt. eigenvalues --    0.03694   0.07770   0.08034   0.10174   0.11215
 Alpha virt. eigenvalues --    0.11456   0.15249   0.15864   0.16268   0.20091
 Alpha virt. eigenvalues --    0.20159   0.25220   0.32530   0.33919   0.34977

 Mulliken charges:
               1
     1  C   -0.094330
     2  C   -0.001433
     3  N   -0.210144
     4  H    0.101551
     5  H    0.100050
     6  H    0.104306
 Sum of Mulliken charges =   0.00000

 Dipole moment (field-independent basis, Debye):
    X=              4.1283    Y=             -0.0023    Z=              0.0138  Tot=              4.1283
 Quadrupole moment (field-independent basis, Debye-Ang):
   XX=            -21.1982   YY=            -17.7462   ZZ=            -17.7123
   XY=             -0.0021   XZ=             -0.0252   YZ=              0.0249

 Normal termination of Gaussian 09 at Wed Aug 26 13:57:03 2020.
