 Gaussian 09, Revision D.01,
 Gaussian 09:  ES64L-G09RevD.01 24-Apr-2013

 --------------------
 #p B2PLYPD3/Def2QZVP
 --------------------

 ------------
 cyanomethane
 ------------
 Symbolic Z-matrix:
 Charge =  0 Multiplicity = 1

                         Standard orientation:
 ---------------------------------------------------------------------
 Center     Atomic      Atomic             Coordinates (Angstroms)
 Number     Number       Type             X           Y           Z
 ---------------------------------------------------------------------
      1          6           0       -1.173926    0.008872   -0.000102
      2          6           0        0.266108   -0.003687    0.031324
      3          7           0        1.430593    0.006210   -0.022318
      4          1           0       -1.414634   -0.468627    0.867209
      5          1           0       -1.553918   -0.598102   -0.817060
      6          1           0       -1.598688    0.992154   -0.081256
 ---------------------------------------------------------------------

 SCF Done:  E(RB2PLYPD3) =  -132.528436097     A.U. after   12 cycles
 E2(B2PLYPD3) =    -0.1812041307D+00 E(B2PLYPD3) =    -0.13270964022749D+03

 The electronic state is 1-A.
 Alpha  occ. eigenvalues --  -14.84406 -10.66432 -10.66069  -1.03705  -0.90435
 Alpha  occ. eigenvalues --   -0.60127  -0.55818  -0.53899  -0.44777  -0.38821
 Alpha  occ. eigenvalues --   -0.38613
 Alpha virt. eigenvalues --    0.03817   0.07455   0.08658   0.10084   0.11197
 Alpha virt. eigenvalues --    0.11513   0.15303   0.15644   0.17053   0.20132
 Alpha virt. eigenvalues --    0.20255   0.25700   0.32950   0.34614   0.35399

 Mulliken charges:
               1
     1  C   -0.080103
     2  C    0.000838
     3  N   -0.213589
     4  H    0.101203
     5  H    0.092797
     6  H    0.098855
 Sum of Mulliken charges =   0.00000

 Dipole moment (field-independent basis, Debye):
    X=             -4.1413    Y=             -0.0373    Z=              0.0406  Tot=              4.1417
 Quadrupole moment (field-independent basis, Debye-Ang):
   XX=            -20.9947   YY=            -17.6314   ZZ=            -17.8024
   XY=             -0.0532   XZ=              0.2042   YZ=             -0.0576

 Normal termination of Gaussian 09 at Wed Aug 26 16:21:51 2020.
