 Gaussian 09, Revision D.01,
 Gaussian 09:  ES64L-G09RevD.01 24-Apr-2013

 --------------------
 #p B2PLYPD3/Def2QZVP
 --------------------

 ------------
 cyanomethane
 ------------
 Symbolic Z-matrix:
 Charge =  0 Multiplicity = 1

                         Standard orientation:
 ---------------------------------------------------------------------
 Center     Atomic      Atomic             Coordinates (Angstroms)
 Number     Number       Type             X           Y           Z
 ---------------------------------------------------------------------
      1          6           0       -1.172158   -0.000356   -0.025199
      2          6           0        0.308165   -0.017120   -0.047760
      3          7           0        1.440120    0.009120    0.019270
      4          1           0       -1.659979    1.031388   -0.124537
      5          1           0       -1.500005   -0.299225    1.065650
      6          1           0       -1.736898   -0.691148   -0.638250
 ---------------------------------------------------------------------

 SCF Done:  E(RB2PLYPD3) =  -132.523934899     A.U. after   12 cycles
 E2(B2PLYPD3) =    -0.1798096430D+00 E(B2PLYPD3) =    -0.13270374454240D+03

 The electronic state is 1-A.
 Alpha  occ. eigenvalues --  -14.83973 -10.68608 -10.66253  -1.05140  -0.87588
 Alpha  occ. eigenvalues --   -0.60507  -0.52817  -0.50778  -0.45012  -0.39966
 Alpha  occ. eigenvalues --   -0.39298
 Alpha virt. eigenvalues --    0.03339   0.07151   0.07793   0.10259   0.11464
 Alpha virt. eigenvalues --    0.12178   0.15191   0.16265   0.18172   0.20000
 Alpha virt. eigenvalues --    0.20184   0.24936   0.32160   0.32578   0.34919

 Mulliken charges:
               1
     1  C   -0.085878
     2  C    0.008834
     3  N   -0.192452
     4  H    0.090355
     5  H    0.082920
     6  H    0.096221
 Sum of Mulliken charges =   0.00000

 Dipole moment (field-independent basis, Debye):
    X=             -4.1136    Y=             -0.0276    Z=              0.0087  Tot=              4.1137
 Quadrupole moment (field-independent basis, Debye-Ang):
   XX=            -20.5757   YY=            -17.8594   ZZ=            -18.0497
   XY=             -0.0246   XZ=             -0.0897   YZ=              0.0783

 Normal termination of Gaussian 09 at Wed Aug 26 21:43:20 2020.
