 Gaussian 09, Revision D.01,
 Gaussian 09:  ES64L-G09RevD.01 24-Apr-2013

 --------------------
 #p B2PLYPD3/Def2QZVP
 --------------------

 ------------
 cyanomethane
 ------------
 Symbolic Z-matrix:
 Charge =  0 Multiplicity = 1

                         Standard orientation:
 ---------------------------------------------------------------------
 Center     Atomic      Atomic             Coordinates (Angstroms)
 Number     Number       Type             X           Y           Z
 ---------------------------------------------------------------------
      1          6           0       -1.172863   -0.018635   -0.014831
      2          6           0        0.280788    0.035226    0.012521
      3          7           0        1.420560   -0.010005   -0.001459
      4          1           0       -1.574590   -0.083895    0.991612
      5          1           0       -1.430532   -0.878098   -0.541812
      6          1           0       -1.586351    0.932481   -0.425724
 ---------------------------------------------------------------------

 SCF Done:  E(RB2PLYPD3) =  -132.533277393     A.U. after   11 cycles
 E2(B2PLYPD3) =    -0.1792189644D+00 E(B2PLYPD3) =    -0.13271249635777D+03

 The electronic state is 1-A.
 Alpha  occ. eigenvalues --  -14.83710 -10.66772 -10.65720  -1.04641  -0.89520
 Alpha  occ. eigenvalues --   -0.59446  -0.55581  -0.52959  -0.44665  -0.39491
 Alpha  occ. eigenvalues --   -0.39200
 Alpha virt. eigenvalues --    0.03815   0.07985   0.08520   0.10223   0.11504
 Alpha virt. eigenvalues --    0.11779   0.15349   0.16224   0.16476   0.19965
 Alpha virt. eigenvalues --    0.20099   0.25516   0.32796   0.34102   0.35539

 Mulliken charges:
               1
     1  C   -0.086887
     2  C   -0.004689
     3  N   -0.200206
     4  H    0.091157
     5  H    0.105447
     6  H    0.095178
 Sum of Mulliken charges =   0.00000

 Dipole moment (field-independent basis, Debye):
    X=             -4.0965    Y=              0.0075    Z=              0.0326  Tot=              4.0966
 Quadrupole moment (field-independent basis, Debye-Ang):
   XX=            -21.0521   YY=            -17.5021   ZZ=            -17.8305
   XY=             -0.0451   XZ=             -0.1312   YZ=              0.0687

 Normal termination of Gaussian 09 at Wed Aug 26 12:23:47 2020.
