 Gaussian 09, Revision D.01,
 Gaussian 09:  ES64L-G09RevD.01 24-Apr-2013

 --------------------
 #p B2PLYPD3/Def2QZVP
 --------------------

 ------------
 cyanomethane
 ------------
 Symbolic Z-matrix:
 Charge =  0 Multiplicity = 1

                         Standard orientation:
 ---------------------------------------------------------------------
 Center     Atomic      Atomic             Coordinates (Angstroms)
 Number     Number       Type             X           Y           Z
 ---------------------------------------------------------------------
      1          6           0       -1.181638    0.012661    0.002533
      2          6           0        0.287907    0.027280   -0.010244
      3          7           0        1.437660   -0.011325    0.006827
      4          1           0       -1.580951   -0.220659    0.971868
      5          1           0       -1.505060   -0.861066   -0.624608
      6          1           0       -1.615218    0.921358   -0.348780
 ---------------------------------------------------------------------

 SCF Done:  E(RB2PLYPD3) =  -132.533597634     A.U. after   12 cycles
 E2(B2PLYPD3) =    -0.1801859965D+00 E(B2PLYPD3) =    -0.13271378363073D+03

 The electronic state is 1-A.
 Alpha  occ. eigenvalues --  -14.84154 -10.67178 -10.66281  -1.04293  -0.88998
 Alpha  occ. eigenvalues --   -0.60004  -0.54640  -0.52612  -0.44824  -0.39421
 Alpha  occ. eigenvalues --   -0.39038
 Alpha virt. eigenvalues --    0.03714   0.07821   0.08156   0.10209   0.11211
 Alpha virt. eigenvalues --    0.11741   0.15329   0.16154   0.16975   0.19973
 Alpha virt. eigenvalues --    0.20146   0.25140   0.32621   0.33856   0.35435

 Mulliken charges:
               1
     1  C   -0.079594
     2  C    0.000030
     3  N   -0.203575
     4  H    0.092728
     5  H    0.091697
     6  H    0.098714
 Sum of Mulliken charges =   0.00000

 Dipole moment (field-independent basis, Debye):
    X=             -4.1344    Y=             -0.0098    Z=              0.0107  Tot=              4.1344
 Quadrupole moment (field-independent basis, Debye-Ang):
   XX=            -20.8785   YY=            -17.6404   ZZ=            -17.9348
   XY=              0.0549   XZ=             -0.1158   YZ=             -0.0559

 Normal termination of Gaussian 09 at Wed Aug 26 13:04:37 2020.
