 Gaussian 09, Revision D.01,
 Gaussian 09:  ES64L-G09RevD.01 24-Apr-2013

 --------------------
 #p B2PLYPD3/Def2QZVP
 --------------------

 ------------
 cyanomethane
 ------------
 Symbolic Z-matrix:
 Charge =  0 Multiplicity = 1

                         Standard orientation:
 ---------------------------------------------------------------------
 Center     Atomic      Atomic             Coordinates (Angstroms)
 Number     Number       Type             X           Y           Z
 ---------------------------------------------------------------------
      1          6           0       -1.180288    0.000442    0.009045
      2          6           0        0.277960    0.023882   -0.004682
      3          7           0        1.427073   -0.006686    0.004994
      4          1           0       -1.547599   -0.333199    0.997613
      5          1           0       -1.441076   -0.782975   -0.783365
      6          1           0       -1.586871    1.017033   -0.275380
 ---------------------------------------------------------------------

 SCF Done:  E(RB2PLYPD3) =  -132.531035237     A.U. after   12 cycles
 E2(B2PLYPD3) =    -0.1805656305D+00 E(B2PLYPD3) =    -0.13271160086716D+03

 The electronic state is 1-A.
 Alpha  occ. eigenvalues --  -14.83911 -10.68298 -10.65998  -1.04231  -0.88517
 Alpha  occ. eigenvalues --   -0.58584  -0.53745  -0.53094  -0.44627  -0.39111
 Alpha  occ. eigenvalues --   -0.38856
 Alpha virt. eigenvalues --    0.03530   0.07644   0.07725   0.10177   0.11483
 Alpha virt. eigenvalues --    0.11768   0.15178   0.15618   0.16462   0.20043
 Alpha virt. eigenvalues --    0.20125   0.25292   0.32327   0.33263   0.34463

 Mulliken charges:
               1
     1  C   -0.111911
     2  C   -0.000771
     3  N   -0.204045
     4  H    0.107052
     5  H    0.104529
     6  H    0.105147
 Sum of Mulliken charges =   0.00000

 Dipole moment (field-independent basis, Debye):
    X=             -4.0870    Y=             -0.0056    Z=             -0.0062  Tot=              4.0870
 Quadrupole moment (field-independent basis, Debye-Ang):
   XX=            -21.3753   YY=            -17.6584   ZZ=            -17.7342
   XY=             -0.0324   XZ=             -0.0929   YZ=             -0.0305

 Normal termination of Gaussian 09 at Wed Aug 26 11:19:06 2020.
