 Gaussian 09, Revision D.01,
 Gaussian 09:  ES64L-G09RevD.01 24-Apr-2013

 --------------------
 #p B2PLYPD3/Def2QZVP
 --------------------

 ------------
 cyanomethane
 ------------
 Symbolic Z-matrix:
 Charge =  0 Multiplicity = 1

                         Standard orientation:
 ---------------------------------------------------------------------
 Center     Atomic      Atomic             Coordinates (Angstroms)
 Number     Number       Type             X           Y           Z
 ---------------------------------------------------------------------
      1          6           0        1.190824    0.002014   -0.021191
      2          6           0       -0.288817   -0.023957    0.001616
      3          7           0       -1.436268    0.009262    0.004907
      4          1           0        1.602693   -0.149960    1.033373
      5          1           0        1.490124    0.988749   -0.328528
      6          1           0        1.549022   -0.771972   -0.621741
 ---------------------------------------------------------------------

 SCF Done:  E(RB2PLYPD3) =  -132.532228990     A.U. after   12 cycles
 E2(B2PLYPD3) =    -0.1799100306D+00 E(B2PLYPD3) =    -0.13271213902053D+03

 The electronic state is 1-A.
 Alpha  occ. eigenvalues --  -14.83993 -10.67278 -10.66107  -1.04313  -0.88957
 Alpha  occ. eigenvalues --   -0.59129  -0.55455  -0.52504  -0.44695  -0.39473
 Alpha  occ. eigenvalues --   -0.39105
 Alpha virt. eigenvalues --    0.03700   0.07753   0.08651   0.10244   0.11166
 Alpha virt. eigenvalues --    0.11662   0.15183   0.16232   0.16395   0.19979
 Alpha virt. eigenvalues --    0.20108   0.24938   0.32305   0.33919   0.35490

 Mulliken charges:
               1
     1  C   -0.088978
     2  C   -0.004217
     3  N   -0.202665
     4  H    0.089922
     5  H    0.102677
     6  H    0.103260
 Sum of Mulliken charges =   0.00000

 Dipole moment (field-independent basis, Debye):
    X=              4.1226    Y=             -0.0080    Z=             -0.0056  Tot=              4.1226
 Quadrupole moment (field-independent basis, Debye-Ang):
   XX=            -21.0576   YY=            -17.6209   ZZ=            -17.8355
   XY=              0.0057   XZ=              0.1020   YZ=              0.0528

 Normal termination of Gaussian 09 at Wed Aug 26 15:39:01 2020.
