 Gaussian 09, Revision D.01,
 Gaussian 09:  ES64L-G09RevD.01 24-Apr-2013

 --------------------
 #p B2PLYPD3/Def2QZVP
 --------------------

 ------------
 cyanomethane
 ------------
 Symbolic Z-matrix:
 Charge =  0 Multiplicity = 1

                         Standard orientation:
 ---------------------------------------------------------------------
 Center     Atomic      Atomic             Coordinates (Angstroms)
 Number     Number       Type             X           Y           Z
 ---------------------------------------------------------------------
      1          6           0        1.198955   -0.003769    0.011205
      2          6           0       -0.275087    0.062048    0.019139
      3          7           0       -1.446486   -0.038822   -0.017479
      4          1           0        1.462844    0.969283   -0.311470
      5          1           0        1.656139   -0.773361   -0.719129
      6          1           0        1.463208   -0.273838    0.970887
 ---------------------------------------------------------------------

 SCF Done:  E(RB2PLYPD3) =  -132.522040242     A.U. after   13 cycles
 E2(B2PLYPD3) =    -0.1826129796D+00 E(B2PLYPD3) =    -0.13270465322144D+03

 The electronic state is 1-A.
 Alpha  occ. eigenvalues --  -14.84792 -10.67155 -10.66874  -1.03223  -0.89451
 Alpha  occ. eigenvalues --   -0.59012  -0.56366  -0.52360  -0.44760  -0.38718
 Alpha  occ. eigenvalues --   -0.38395
 Alpha virt. eigenvalues --    0.03347   0.06992   0.08678   0.09986   0.10795
 Alpha virt. eigenvalues --    0.11353   0.15116   0.15334   0.16795   0.20123
 Alpha virt. eigenvalues --    0.20269   0.25219   0.32216   0.33661   0.35488

 Mulliken charges:
               1
     1  C   -0.094125
     2  C    0.001261
     3  N   -0.215932
     4  H    0.106048
     5  H    0.094092
     6  H    0.108656
 Sum of Mulliken charges =   0.00000

 Dipole moment (field-independent basis, Debye):
    X=              4.1296    Y=              0.0517    Z=              0.0301  Tot=              4.1300
 Quadrupole moment (field-independent basis, Debye-Ang):
   XX=            -21.1782   YY=            -17.7650   ZZ=            -17.7986
   XY=             -0.3188   XZ=             -0.1903   YZ=             -0.1274

 Normal termination of Gaussian 09 at Wed Aug 26 22:21:48 2020.
