 Gaussian 09, Revision D.01,
 Gaussian 09:  ES64L-G09RevD.01 24-Apr-2013

 --------------------
 #p B2PLYPD3/Def2QZVP
 --------------------

 ------------
 cyanomethane
 ------------
 Symbolic Z-matrix:
 Charge =  0 Multiplicity = 1

                         Standard orientation:
 ---------------------------------------------------------------------
 Center     Atomic      Atomic             Coordinates (Angstroms)
 Number     Number       Type             X           Y           Z
 ---------------------------------------------------------------------
      1          6           0        1.167757   -0.004453    0.003825
      2          6           0       -0.272867    0.029346    0.002870
      3          7           0       -1.436378   -0.014490   -0.001517
      4          1           0        1.566626    1.015954   -0.103791
      5          1           0        1.553904   -0.614765   -0.834520
      6          1           0        1.564779   -0.449121    0.908762
 ---------------------------------------------------------------------

 SCF Done:  E(RB2PLYPD3) =  -132.533837103     A.U. after   11 cycles
 E2(B2PLYPD3) =    -0.1814659526D+00 E(B2PLYPD3) =    -0.13271530305532D+03

 The electronic state is 1-A.
 Alpha  occ. eigenvalues --  -14.84517 -10.67199 -10.66543  -1.03806  -0.89323
 Alpha  occ. eigenvalues --   -0.60308  -0.53980  -0.53352  -0.44909  -0.38813
 Alpha  occ. eigenvalues --   -0.38718
 Alpha virt. eigenvalues --    0.03702   0.07364   0.07600   0.10098   0.11370
 Alpha virt. eigenvalues --    0.11565   0.15519   0.16255   0.16575   0.20085
 Alpha virt. eigenvalues --    0.20183   0.25685   0.32736   0.34300   0.34717

 Mulliken charges:
               1
     1  C   -0.079209
     2  C    0.002236
     3  N   -0.210200
     4  H    0.095695
     5  H    0.094767
     6  H    0.096712
 Sum of Mulliken charges =   0.00000

 Dipole moment (field-independent basis, Debye):
    X=              4.1368    Y=              0.0066    Z=              0.0027  Tot=              4.1368
 Quadrupole moment (field-independent basis, Debye-Ang):
   XX=            -20.9309   YY=            -17.7544   ZZ=            -17.8638
   XY=             -0.1032   XZ=             -0.0021   YZ=             -0.0202

 Normal termination of Gaussian 09 at Wed Aug 26 10:05:30 2020.
