 Gaussian 09, Revision D.01,
 Gaussian 09:  ES64L-G09RevD.01 24-Apr-2013

 --------------------
 #p B2PLYPD3/Def2QZVP
 --------------------

 ------------
 cyanomethane
 ------------
 Symbolic Z-matrix:
 Charge =  0 Multiplicity = 1

                         Standard orientation:
 ---------------------------------------------------------------------
 Center     Atomic      Atomic             Coordinates (Angstroms)
 Number     Number       Type             X           Y           Z
 ---------------------------------------------------------------------
      1          6           0       -1.147023   -0.003633    0.019077
      2          6           0        0.251387    0.022412   -0.068694
      3          7           0        1.434333   -0.021459    0.024157
      4          1           0       -1.739056   -0.868184   -0.515827
      5          1           0       -1.490716    0.961053   -0.392468
      6          1           0       -1.436745   -0.055328    1.036897
 ---------------------------------------------------------------------

 SCF Done:  E(RB2PLYPD3) =  -132.520048692     A.U. after   12 cycles
 E2(B2PLYPD3) =    -0.1840291420D+00 E(B2PLYPD3) =    -0.13270407783353D+03

 The electronic state is 1-A.
 Alpha  occ. eigenvalues --  -14.85116 -10.67307 -10.67041  -1.03095  -0.89952
 Alpha  occ. eigenvalues --   -0.60919  -0.54538  -0.52589  -0.45052  -0.38007
 Alpha  occ. eigenvalues --   -0.37926
 Alpha virt. eigenvalues --    0.03487   0.05888   0.07143   0.09921   0.11389
 Alpha virt. eigenvalues --    0.11666   0.15449   0.15747   0.17171   0.20166
 Alpha virt. eigenvalues --    0.20376   0.26567   0.32015   0.33794   0.34927

 Mulliken charges:
               1
     1  C   -0.084201
     2  C    0.010161
     3  N   -0.220690
     4  H    0.093135
     5  H    0.097006
     6  H    0.104589
 Sum of Mulliken charges =   0.00000

 Dipole moment (field-independent basis, Debye):
    X=             -4.1456    Y=              0.0547    Z=              0.0235  Tot=              4.1460
 Quadrupole moment (field-independent basis, Debye-Ang):
   XX=            -20.9338   YY=            -17.8233   ZZ=            -17.9454
   XY=              0.2205   XZ=             -0.0714   YZ=             -0.0439

 Normal termination of Gaussian 09 at Wed Aug 26 21:09:17 2020.
