 Gaussian 09, Revision D.01,
 Gaussian 09:  ES64L-G09RevD.01 24-Apr-2013

 --------------------
 #p B2PLYPD3/Def2QZVP
 --------------------

 ------------
 cyanomethane
 ------------
 Symbolic Z-matrix:
 Charge =  0 Multiplicity = 1

                         Standard orientation:
 ---------------------------------------------------------------------
 Center     Atomic      Atomic             Coordinates (Angstroms)
 Number     Number       Type             X           Y           Z
 ---------------------------------------------------------------------
      1          6           0        1.171816   -0.002821   -0.001978
      2          6           0       -0.274429   -0.000866   -0.009708
      3          7           0       -1.433726    0.001380    0.001169
      4          1           0        1.573339    1.006728   -0.233031
      5          1           0        1.585780   -0.725529   -0.686908
      6          1           0        1.492638   -0.268741    0.981868
 ---------------------------------------------------------------------

 SCF Done:  E(RB2PLYPD3) =  -132.534464529     A.U. after   12 cycles
 E2(B2PLYPD3) =    -0.1808451640D+00 E(B2PLYPD3) =    -0.13271530969316D+03

 The electronic state is 1-A.
 Alpha  occ. eigenvalues --  -14.84320 -10.66908 -10.66364  -1.03958  -0.89529
 Alpha  occ. eigenvalues --   -0.60104  -0.54187  -0.53817  -0.44828  -0.38955
 Alpha  occ. eigenvalues --   -0.38858
 Alpha virt. eigenvalues --    0.03775   0.07611   0.07987   0.10161   0.11405
 Alpha virt. eigenvalues --    0.11525   0.15487   0.16026   0.16710   0.20109
 Alpha virt. eigenvalues --    0.20144   0.25541   0.32733   0.34499   0.34888

 Mulliken charges:
               1
     1  C   -0.079949
     2  C    0.000200
     3  N   -0.208794
     4  H    0.095401
     5  H    0.096380
     6  H    0.096762
 Sum of Mulliken charges =   0.00000

 Dipole moment (field-independent basis, Debye):
    X=              4.1368    Y=             -0.0153    Z=              0.0217  Tot=              4.1369
 Quadrupole moment (field-independent basis, Debye-Ang):
   XX=            -20.9567   YY=            -17.7017   ZZ=            -17.8274
   XY=             -0.0124   XZ=             -0.0103   YZ=              0.0093

 Normal termination of Gaussian 09 at Wed Aug 26 15:39:41 2020.
