 Gaussian 09, Revision D.01,
 Gaussian 09:  ES64L-G09RevD.01 24-Apr-2013

 --------------------
 #p B2PLYPD3/Def2QZVP
 --------------------

 ------------
 cyanomethane
 ------------
 Symbolic Z-matrix:
 Charge =  0 Multiplicity = 1

                         Standard orientation:
 ---------------------------------------------------------------------
 Center     Atomic      Atomic             Coordinates (Angstroms)
 Number     Number       Type             X           Y           Z
 ---------------------------------------------------------------------
      1          6           0        1.173991    0.010808    0.003060
      2          6           0       -0.284241    0.021207   -0.029387
      3          7           0       -1.434986   -0.016606    0.020218
      4          1           0        1.658286   -0.416440    0.901848
      5          1           0        1.502007    0.969842   -0.109871
      6          1           0        1.546112   -0.629256   -0.775543
 ---------------------------------------------------------------------

 SCF Done:  E(RB2PLYPD3) =  -132.529776426     A.U. after   12 cycles
 E2(B2PLYPD3) =    -0.1801944339D+00 E(B2PLYPD3) =    -0.13270997086029D+03

 The electronic state is 1-A.
 Alpha  occ. eigenvalues --  -14.84250 -10.66383 -10.66293  -1.04283  -0.89716
 Alpha  occ. eigenvalues --   -0.60531  -0.55664  -0.52454  -0.44896  -0.39381
 Alpha  occ. eigenvalues --   -0.39034
 Alpha virt. eigenvalues --    0.03734   0.07459   0.08724   0.10138   0.11162
 Alpha virt. eigenvalues --    0.11734   0.15519   0.16109   0.17225   0.19977
 Alpha virt. eigenvalues --    0.20227   0.25433   0.32899   0.34379   0.35583

 Mulliken charges:
               1
     1  C   -0.068366
     2  C    0.000935
     3  N   -0.204651
     4  H    0.085706
     5  H    0.097135
     6  H    0.089242
 Sum of Mulliken charges =   0.00000

 Dipole moment (field-independent basis, Debye):
    X=              4.1364    Y=              0.0112    Z=             -0.0391  Tot=              4.1366
 Quadrupole moment (field-independent basis, Debye-Ang):
   XX=            -20.7187   YY=            -17.6434   ZZ=            -17.9358
   XY=             -0.2013   XZ=              0.1785   YZ=              0.0171

 Normal termination of Gaussian 09 at Wed Aug 26 13:27:29 2020.
