 Gaussian 09, Revision D.01,
 Gaussian 09:  ES64L-G09RevD.01 24-Apr-2013

 --------------------
 #p B2PLYPD3/Def2QZVP
 --------------------

 ------------
 cyanomethane
 ------------
 Symbolic Z-matrix:
 Charge =  0 Multiplicity = 1

                         Standard orientation:
 ---------------------------------------------------------------------
 Center     Atomic      Atomic             Coordinates (Angstroms)
 Number     Number       Type             X           Y           Z
 ---------------------------------------------------------------------
      1          6           0        1.163232    0.025688    0.007837
      2          6           0       -0.255017   -0.005918   -0.058816
      3          7           0       -1.432984   -0.001066    0.026380
      4          1           0        1.513507    1.056665   -0.061678
      5          1           0        1.570893   -0.676375   -0.821699
      6          1           0        1.497202   -0.491446    1.004592
 ---------------------------------------------------------------------

 SCF Done:  E(RB2PLYPD3) =  -132.521888076     A.U. after   12 cycles
 E2(B2PLYPD3) =    -0.1836583909D+00 E(B2PLYPD3) =    -0.13270554646657D+03

 The electronic state is 1-A.
 Alpha  occ. eigenvalues --  -14.84807 -10.68385 -10.66785  -1.03138  -0.89079
 Alpha  occ. eigenvalues --   -0.59286  -0.54792  -0.51996  -0.44840  -0.38295
 Alpha  occ. eigenvalues --   -0.37786
 Alpha virt. eigenvalues --    0.03295   0.06309   0.07101   0.09977   0.11154
 Alpha virt. eigenvalues --    0.11719   0.15324   0.15547   0.16360   0.20142
 Alpha virt. eigenvalues --    0.20274   0.26031   0.31993   0.32699   0.34619

 Mulliken charges:
               1
     1  C   -0.107583
     2  C    0.008014
     3  N   -0.218375
     4  H    0.114432
     5  H    0.100170
     6  H    0.103342
 Sum of Mulliken charges =   0.00000

 Dipole moment (field-independent basis, Debye):
    X=              4.1088    Y=             -0.0160    Z=             -0.0171  Tot=              4.1088
 Quadrupole moment (field-independent basis, Debye-Ang):
   XX=            -21.3963   YY=            -17.6058   ZZ=            -17.9741
   XY=             -0.0833   XZ=              0.1118   YZ=             -0.0129

 Normal termination of Gaussian 09 at Wed Aug 26 21:49:49 2020.
