 Gaussian 09, Revision D.01,
 Gaussian 09:  ES64L-G09RevD.01 24-Apr-2013

 --------------------
 #p B2PLYPD3/Def2QZVP
 --------------------

 ------------
 cyanomethane
 ------------
 Symbolic Z-matrix:
 Charge =  0 Multiplicity = 1

                         Standard orientation:
 ---------------------------------------------------------------------
 Center     Atomic      Atomic             Coordinates (Angstroms)
 Number     Number       Type             X           Y           Z
 ---------------------------------------------------------------------
      1          6           0        1.186922   -0.026231   -0.018176
      2          6           0       -0.271309   -0.054836    0.024984
      3          7           0       -1.418652    0.036456   -0.018603
      4          1           0        1.602694    0.877907   -0.547668
      5          1           0        1.446792   -0.845432   -0.348898
      6          1           0        1.387398    0.198732    0.985943
 ---------------------------------------------------------------------

 SCF Done:  E(RB2PLYPD3) =  -132.503010893     A.U. after   12 cycles
 E2(B2PLYPD3) =    -0.1800050351D+00 E(B2PLYPD3) =    -0.13268301592846D+03

 The electronic state is 1-A.
 Alpha  occ. eigenvalues --  -14.83918 -10.65914 -10.65366  -1.04192  -0.91204
 Alpha  occ. eigenvalues --   -0.60081  -0.58350  -0.52677  -0.44582  -0.39440
 Alpha  occ. eigenvalues --   -0.38665
 Alpha virt. eigenvalues --    0.03621   0.07833   0.09921   0.10143   0.10764
 Alpha virt. eigenvalues --    0.11774   0.15033   0.15531   0.17035   0.19992
 Alpha virt. eigenvalues --    0.20278   0.25407   0.32828   0.33713   0.36305

 Mulliken charges:
               1
     1  C   -0.106206
     2  C   -0.003065
     3  N   -0.208064
     4  H    0.094087
     5  H    0.122329
     6  H    0.100919
 Sum of Mulliken charges =   0.00000

 Dipole moment (field-independent basis, Debye):
    X=              4.0902    Y=             -0.0113    Z=              0.0818  Tot=              4.0910
 Quadrupole moment (field-independent basis, Debye-Ang):
   XX=            -21.1479   YY=            -17.4225   ZZ=            -17.7528
   XY=              0.3680   XZ=             -0.1181   YZ=              0.1696

 Normal termination of Gaussian 09 at Wed Aug 26 19:37:13 2020.
