 Gaussian 09, Revision D.01,
 Gaussian 09:  ES64L-G09RevD.01 24-Apr-2013

 --------------------
 #p B2PLYPD3/Def2QZVP
 --------------------

 ------------
 cyanomethane
 ------------
 Symbolic Z-matrix:
 Charge =  0 Multiplicity = 1

                         Standard orientation:
 ---------------------------------------------------------------------
 Center     Atomic      Atomic             Coordinates (Angstroms)
 Number     Number       Type             X           Y           Z
 ---------------------------------------------------------------------
      1          6           0        1.165282   -0.006581   -0.001584
      2          6           0       -0.288161    0.012985    0.040894
      3          7           0       -1.423699   -0.004940   -0.024330
      4          1           0        1.593727    0.991297   -0.285867
      5          1           0        1.583436   -0.732054   -0.719133
      6          1           0        1.526006   -0.263085    0.939450
 ---------------------------------------------------------------------

 SCF Done:  E(RB2PLYPD3) =  -132.532927115     A.U. after   12 cycles
 E2(B2PLYPD3) =    -0.1791228766D+00 E(B2PLYPD3) =    -0.13271204999170D+03

 The electronic state is 1-A.
 Alpha  occ. eigenvalues --  -14.83806 -10.66914 -10.65809  -1.04880  -0.89207
 Alpha  occ. eigenvalues --   -0.60163  -0.54372  -0.52817  -0.44835  -0.39583
 Alpha  occ. eigenvalues --   -0.39430
 Alpha virt. eigenvalues --    0.03687   0.07589   0.08646   0.10156   0.11540
 Alpha virt. eigenvalues --    0.11822   0.15581   0.16178   0.17183   0.19939
 Alpha virt. eigenvalues --    0.20080   0.25579   0.32971   0.34405   0.34981

 Mulliken charges:
               1
     1  C   -0.077872
     2  C   -0.002085
     3  N   -0.196317
     4  H    0.089883
     5  H    0.091540
     6  H    0.094850
 Sum of Mulliken charges =   0.00000

 Dipole moment (field-independent basis, Debye):
    X=              4.0951    Y=             -0.0062    Z=              0.0533  Tot=              4.0954
 Quadrupole moment (field-independent basis, Debye-Ang):
   XX=            -20.8117   YY=            -17.7260   ZZ=            -17.7566
   XY=             -0.0408   XZ=             -0.1595   YZ=             -0.0240

 Normal termination of Gaussian 09 at Wed Aug 26 13:51:43 2020.
