 Gaussian 09, Revision D.01,
 Gaussian 09:  ES64L-G09RevD.01 24-Apr-2013

 --------------------
 #p B2PLYPD3/Def2QZVP
 --------------------

 ------------
 cyanomethane
 ------------
 Symbolic Z-matrix:
 Charge =  0 Multiplicity = 1

                         Standard orientation:
 ---------------------------------------------------------------------
 Center     Atomic      Atomic             Coordinates (Angstroms)
 Number     Number       Type             X           Y           Z
 ---------------------------------------------------------------------
      1          6           0        1.168225   -0.015394   -0.000437
      2          6           0       -0.274346   -0.008951   -0.007821
      3          7           0       -1.431430    0.009667    0.006071
      4          1           0        1.501268   -0.854631   -0.542251
      5          1           0        1.576690   -0.011253    1.028738
      6          1           0        1.578776    0.944283   -0.479432
 ---------------------------------------------------------------------

 SCF Done:  E(RB2PLYPD3) =  -132.531699298     A.U. after   11 cycles
 E2(B2PLYPD3) =    -0.1809249147D+00 E(B2PLYPD3) =    -0.13271262421221D+03

 The electronic state is 1-A.
 Alpha  occ. eigenvalues --  -14.84270 -10.67368 -10.66288  -1.04051  -0.89264
 Alpha  occ. eigenvalues --   -0.59875  -0.54958  -0.52436  -0.44830  -0.39054
 Alpha  occ. eigenvalues --   -0.38719
 Alpha virt. eigenvalues --    0.03639   0.07128   0.08098   0.10139   0.11315
 Alpha virt. eigenvalues --    0.11763   0.15460   0.16217   0.16491   0.20041
 Alpha virt. eigenvalues --    0.20177   0.25596   0.32537   0.33722   0.35085

 Mulliken charges:
               1
     1  C   -0.086507
     2  C    0.000253
     3  N   -0.207237
     4  H    0.103892
     5  H    0.097014
     6  H    0.092585
 Sum of Mulliken charges =   0.00000

 Dipole moment (field-independent basis, Debye):
    X=              4.1195    Y=             -0.0145    Z=             -0.0021  Tot=              4.1195
 Quadrupole moment (field-independent basis, Debye-Ang):
   XX=            -21.0274   YY=            -17.7373   ZZ=            -17.7998
   XY=              0.1171   XZ=              0.0823   YZ=              0.0881

 Normal termination of Gaussian 09 at Thu Aug 27 00:06:46 2020.
