 Gaussian 09, Revision D.01,
 Gaussian 09:  ES64L-G09RevD.01 24-Apr-2013

 --------------------
 #p B2PLYPD3/Def2QZVP
 --------------------

 ------------
 cyanomethane
 ------------
 Symbolic Z-matrix:
 Charge =  0 Multiplicity = 1

                         Standard orientation:
 ---------------------------------------------------------------------
 Center     Atomic      Atomic             Coordinates (Angstroms)
 Number     Number       Type             X           Y           Z
 ---------------------------------------------------------------------
      1          6           0        1.174222   -0.008087    0.010725
      2          6           0       -0.274316    0.032844   -0.012897
      3          7           0       -1.448827   -0.014461    0.005001
      4          1           0        1.607028    1.001760   -0.155373
      5          1           0        1.570930   -0.660349   -0.777087
      6          1           0        1.564393   -0.388728    0.910490
 ---------------------------------------------------------------------

 SCF Done:  E(RB2PLYPD3) =  -132.531071854     A.U. after   12 cycles
 E2(B2PLYPD3) =    -0.1824022447D+00 E(B2PLYPD3) =    -0.13271347409873D+03

 The electronic state is 1-A.
 Alpha  occ. eigenvalues --  -14.84936 -10.67041 -10.66980  -1.03400  -0.89397
 Alpha  occ. eigenvalues --   -0.60855  -0.53980  -0.53259  -0.45027  -0.38678
 Alpha  occ. eigenvalues --   -0.38560
 Alpha virt. eigenvalues --    0.03724   0.07207   0.07365   0.10076   0.11251
 Alpha virt. eigenvalues --    0.11409   0.15488   0.16362   0.16707   0.20121
 Alpha virt. eigenvalues --    0.20227   0.25566   0.32456   0.34355   0.35033

 Mulliken charges:
               1
     1  C   -0.068690
     2  C    0.005512
     3  N   -0.214496
     4  H    0.091115
     5  H    0.091131
     6  H    0.095428
 Sum of Mulliken charges =   0.00000

 Dipole moment (field-independent basis, Debye):
    X=              4.1660    Y=             -0.0043    Z=              0.0008  Tot=              4.1660
 Quadrupole moment (field-independent basis, Debye-Ang):
   XX=            -20.7785   YY=            -17.8241   ZZ=            -17.9492
   XY=             -0.0961   XZ=              0.0278   YZ=             -0.0245

 Normal termination of Gaussian 09 at Wed Aug 26 16:04:37 2020.
