 Gaussian 09, Revision D.01,
 Gaussian 09:  ES64L-G09RevD.01 24-Apr-2013

 --------------------
 #p B2PLYPD3/Def2QZVP
 --------------------

 ------------
 cyanomethane
 ------------
 Symbolic Z-matrix:
 Charge =  0 Multiplicity = 1

                         Standard orientation:
 ---------------------------------------------------------------------
 Center     Atomic      Atomic             Coordinates (Angstroms)
 Number     Number       Type             X           Y           Z
 ---------------------------------------------------------------------
      1          6           0        1.183903    0.002168   -0.002398
      2          6           0       -0.282528   -0.015835    0.009945
      3          7           0       -1.433238    0.006801   -0.002880
      4          1           0        1.570087    0.031263    0.999213
      5          1           0        1.511837    0.911183   -0.527846
      6          1           0        1.542492   -0.908050   -0.496491
 ---------------------------------------------------------------------

 SCF Done:  E(RB2PLYPD3) =  -132.535503783     A.U. after   11 cycles
 E2(B2PLYPD3) =    -0.1801512197D+00 E(B2PLYPD3) =    -0.13271565500320D+03

 The electronic state is 1-A.
 Alpha  occ. eigenvalues --  -14.84047 -10.67240 -10.66128  -1.04203  -0.89075
 Alpha  occ. eigenvalues --   -0.59305  -0.54162  -0.53781  -0.44708  -0.39171
 Alpha  occ. eigenvalues --   -0.39134
 Alpha virt. eigenvalues --    0.03742   0.08025   0.08137   0.10211   0.11406
 Alpha virt. eigenvalues --    0.11495   0.15279   0.16227   0.16285   0.20049
 Alpha virt. eigenvalues --    0.20096   0.25182   0.32669   0.34496   0.34660

 Mulliken charges:
               1
     1  C   -0.089616
     2  C   -0.003189
     3  N   -0.204602
     4  H    0.097420
     5  H    0.100302
     6  H    0.099684
 Sum of Mulliken charges =   0.00000

 Dipole moment (field-independent basis, Debye):
    X=              4.1208    Y=             -0.0060    Z=              0.0193  Tot=              4.1208
 Quadrupole moment (field-independent basis, Debye-Ang):
   XX=            -21.0883   YY=            -17.6325   ZZ=            -17.8076
   XY=              0.0237   XZ=              0.0587   YZ=              0.0047

 Normal termination of Gaussian 09 at Wed Aug 26 09:46:42 2020.
