 Gaussian 09, Revision D.01,
 Gaussian 09:  ES64L-G09RevD.01 24-Apr-2013

 --------------------
 #p B2PLYPD3/Def2QZVP
 --------------------

 ------------
 cyanomethane
 ------------
 Symbolic Z-matrix:
 Charge =  0 Multiplicity = 1

                         Standard orientation:
 ---------------------------------------------------------------------
 Center     Atomic      Atomic             Coordinates (Angstroms)
 Number     Number       Type             X           Y           Z
 ---------------------------------------------------------------------
      1          6           0       -1.175664    0.001299    0.005870
      2          6           0        0.270725   -0.024137   -0.002666
      3          7           0        1.430837    0.010596   -0.001266
      4          1           0       -1.503479   -0.093377    0.995908
      5          1           0       -1.565614   -0.802086   -0.600418
      6          1           0       -1.517134    0.958320   -0.405846
 ---------------------------------------------------------------------

 SCF Done:  E(RB2PLYPD3) =  -132.534100724     A.U. after   11 cycles
 E2(B2PLYPD3) =    -0.1807790549D+00 E(B2PLYPD3) =    -0.13271487977874D+03

 The electronic state is 1-A.
 Alpha  occ. eigenvalues --  -14.84270 -10.66583 -10.66293  -1.03863  -0.89848
 Alpha  occ. eigenvalues --   -0.59791  -0.55015  -0.54043  -0.44749  -0.38917
 Alpha  occ. eigenvalues --   -0.38799
 Alpha virt. eigenvalues --    0.03815   0.07801   0.08223   0.10163   0.11311
 Alpha virt. eigenvalues --    0.11472   0.15472   0.16097   0.16252   0.20118
 Alpha virt. eigenvalues --    0.20157   0.25542   0.32860   0.34452   0.35122

 Mulliken charges:
               1
     1  C   -0.082433
     2  C   -0.001448
     3  N   -0.210451
     4  H    0.100121
     5  H    0.096879
     6  H    0.097332
 Sum of Mulliken charges =   0.00000

 Dipole moment (field-independent basis, Debye):
    X=             -4.1317    Y=             -0.0117    Z=              0.0090  Tot=              4.1317
 Quadrupole moment (field-independent basis, Debye-Ang):
   XX=            -21.0617   YY=            -17.7112   ZZ=            -17.7123
   XY=             -0.0306   XZ=              0.0272   YZ=              0.0038

 Normal termination of Gaussian 09 at Thu Aug 27 00:03:55 2020.
