 Gaussian 09, Revision D.01,
 Gaussian 09:  ES64L-G09RevD.01 24-Apr-2013

 --------------------
 #p B2PLYPD3/Def2QZVP
 --------------------

 ------------
 cyanomethane
 ------------
 Symbolic Z-matrix:
 Charge =  0 Multiplicity = 1

                         Standard orientation:
 ---------------------------------------------------------------------
 Center     Atomic      Atomic             Coordinates (Angstroms)
 Number     Number       Type             X           Y           Z
 ---------------------------------------------------------------------
      1          6           0        1.154097   -0.009656   -0.024499
      2          6           0       -0.286939   -0.003651    0.056261
      3          7           0       -1.420142    0.005945   -0.031705
      4          1           0        1.629050    1.060174   -0.183913
      5          1           0        1.605195   -0.696337   -0.718068
      6          1           0        1.503798   -0.325609    0.933344
 ---------------------------------------------------------------------

 SCF Done:  E(RB2PLYPD3) =  -132.527252423     A.U. after   12 cycles
 E2(B2PLYPD3) =    -0.1795220159D+00 E(B2PLYPD3) =    -0.13270677443875D+03

 The electronic state is 1-A.
 Alpha  occ. eigenvalues --  -14.83847 -10.67340 -10.65820  -1.05003  -0.89036
 Alpha  occ. eigenvalues --   -0.60496  -0.53614  -0.52367  -0.44920  -0.39553
 Alpha  occ. eigenvalues --   -0.39283
 Alpha virt. eigenvalues --    0.03477   0.07153   0.08363   0.10031   0.11761
 Alpha virt. eigenvalues --    0.11879   0.15570   0.15697   0.18059   0.19942
 Alpha virt. eigenvalues --    0.20225   0.25951   0.32455   0.33933   0.35012

 Mulliken charges:
               1
     1  C   -0.083447
     2  C    0.003485
     3  N   -0.195331
     4  H    0.089113
     5  H    0.096211
     6  H    0.089968
 Sum of Mulliken charges =   0.00000

 Dipole moment (field-independent basis, Debye):
    X=              4.0760    Y=             -0.0567    Z=              0.1011  Tot=              4.0776
 Quadrupole moment (field-independent basis, Debye-Ang):
   XX=            -20.7783   YY=            -17.6458   ZZ=            -17.9187
   XY=             -0.0193   XZ=             -0.1465   YZ=              0.0441

 Normal termination of Gaussian 09 at Wed Aug 26 21:02:23 2020.
