 Gaussian 09, Revision D.01,
 Gaussian 09:  ES64L-G09RevD.01 24-Apr-2013

 --------------------
 #p B2PLYPD3/Def2QZVP
 --------------------

 ------------
 cyanomethane
 ------------
 Symbolic Z-matrix:
 Charge =  0 Multiplicity = 1

                         Standard orientation:
 ---------------------------------------------------------------------
 Center     Atomic      Atomic             Coordinates (Angstroms)
 Number     Number       Type             X           Y           Z
 ---------------------------------------------------------------------
      1          6           0        1.172620   -0.004337   -0.001760
      2          6           0       -0.273569    0.000568   -0.021553
      3          7           0       -1.430669    0.003958    0.018336
      4          1           0        1.432530   -0.646031   -0.755838
      5          1           0        1.612520   -0.353423    0.928794
      6          1           0        1.575329    0.994359   -0.161429
 ---------------------------------------------------------------------

 SCF Done:  E(RB2PLYPD3) =  -132.530836950     A.U. after   12 cycles
 E2(B2PLYPD3) =    -0.1805521651D+00 E(B2PLYPD3) =    -0.13271138911523D+03

 The electronic state is 1-A.
 Alpha  occ. eigenvalues --  -14.84255 -10.66315 -10.66256  -1.04026  -0.90063
 Alpha  occ. eigenvalues --   -0.60227  -0.55586  -0.53367  -0.44803  -0.39026
 Alpha  occ. eigenvalues --   -0.38903
 Alpha virt. eigenvalues --    0.03823   0.07501   0.08638   0.10152   0.11281
 Alpha virt. eigenvalues --    0.11584   0.15450   0.15869   0.16963   0.20074
 Alpha virt. eigenvalues --    0.20207   0.25580   0.32900   0.34668   0.35291

 Mulliken charges:
               1
     1  C   -0.076848
     2  C   -0.000286
     3  N   -0.208845
     4  H    0.100751
     5  H    0.091500
     6  H    0.093728
 Sum of Mulliken charges =   0.00000

 Dipole moment (field-independent basis, Debye):
    X=              4.1352    Y=             -0.0165    Z=             -0.0293  Tot=              4.1354
 Quadrupole moment (field-independent basis, Debye-Ang):
   XX=            -20.9072   YY=            -17.6910   ZZ=            -17.7799
   XY=              0.0652   XZ=              0.2156   YZ=              0.0663

 Normal termination of Gaussian 09 at Wed Aug 26 12:59:36 2020.
