 Gaussian 09, Revision D.01,
 Gaussian 09:  ES64L-G09RevD.01 24-Apr-2013

 --------------------
 #p B2PLYPD3/Def2QZVP
 --------------------

 ------------
 cyanomethane
 ------------
 Symbolic Z-matrix:
 Charge =  0 Multiplicity = 1

                         Standard orientation:
 ---------------------------------------------------------------------
 Center     Atomic      Atomic             Coordinates (Angstroms)
 Number     Number       Type             X           Y           Z
 ---------------------------------------------------------------------
      1          6           0        1.186567   -0.010383   -0.001411
      2          6           0       -0.277459   -0.002667   -0.008669
      3          7           0       -1.440175    0.000948    0.001411
      4          1           0        1.532109    1.012989   -0.202285
      5          1           0        1.589940   -0.663995   -0.710730
      6          1           0        1.504523   -0.277336    0.963615
 ---------------------------------------------------------------------

 SCF Done:  E(RB2PLYPD3) =  -132.532948739     A.U. after   12 cycles
 E2(B2PLYPD3) =    -0.1808753247D+00 E(B2PLYPD3) =    -0.13271382406330D+03

 The electronic state is 1-A.
 Alpha  occ. eigenvalues --  -14.84400 -10.66521 -10.66465  -1.03761  -0.89751
 Alpha  occ. eigenvalues --   -0.59947  -0.55081  -0.53929  -0.44779  -0.39026
 Alpha  occ. eigenvalues --   -0.38833
 Alpha virt. eigenvalues --    0.03849   0.07960   0.08252   0.10195   0.11182
 Alpha virt. eigenvalues --    0.11385   0.15366   0.15962   0.16589   0.20113
 Alpha virt. eigenvalues --    0.20162   0.25192   0.32654   0.34455   0.35461

 Mulliken charges:
               1
     1  C   -0.076768
     2  C   -0.000822
     3  N   -0.210939
     4  H    0.093814
     5  H    0.097444
     6  H    0.097271
 Sum of Mulliken charges =   0.00000

 Dipole moment (field-independent basis, Debye):
    X=              4.1536    Y=             -0.0012    Z=              0.0120  Tot=              4.1536
 Quadrupole moment (field-independent basis, Debye-Ang):
   XX=            -20.9596   YY=            -17.7388   ZZ=            -17.7609
   XY=             -0.0191   XZ=             -0.0174   YZ=              0.0249

 Normal termination of Gaussian 09 at Wed Aug 26 22:43:42 2020.
