 Gaussian 09, Revision D.01,
 Gaussian 09:  ES64L-G09RevD.01 24-Apr-2013

 --------------------
 #p B2PLYPD3/Def2QZVP
 --------------------

 ------------
 cyanomethane
 ------------
 Symbolic Z-matrix:
 Charge =  0 Multiplicity = 1

                         Standard orientation:
 ---------------------------------------------------------------------
 Center     Atomic      Atomic             Coordinates (Angstroms)
 Number     Number       Type             X           Y           Z
 ---------------------------------------------------------------------
      1          6           0       -1.169344    0.006186   -0.010811
      2          6           0        0.279217   -0.021445    0.004834
      3          7           0        1.431797    0.011819   -0.001823
      4          1           0       -1.550436   -0.831886   -0.544788
      5          1           0       -1.578683    0.906279   -0.425084
      6          1           0       -1.552697   -0.065570    1.018495
 ---------------------------------------------------------------------

 SCF Done:  E(RB2PLYPD3) =  -132.534917069     A.U. after   11 cycles
 E2(B2PLYPD3) =    -0.1802554109D+00 E(B2PLYPD3) =    -0.13271517248038D+03

 The electronic state is 1-A.
 Alpha  occ. eigenvalues --  -14.84202 -10.66680 -10.66233  -1.04236  -0.89547
 Alpha  occ. eigenvalues --   -0.60409  -0.54474  -0.53428  -0.44860  -0.39203
 Alpha  occ. eigenvalues --   -0.39023
 Alpha virt. eigenvalues --    0.03804   0.07760   0.08127   0.10146   0.11416
 Alpha virt. eigenvalues --    0.11618   0.15548   0.16164   0.16910   0.20062
 Alpha virt. eigenvalues --    0.20122   0.25557   0.32926   0.34437   0.35225

 Mulliken charges:
               1
     1  C   -0.072973
     2  C    0.000090
     3  N   -0.205387
     4  H    0.094109
     5  H    0.094540
     6  H    0.089621
 Sum of Mulliken charges =   0.00000

 Dipole moment (field-independent basis, Debye):
    X=             -4.1311    Y=             -0.0203    Z=              0.0086  Tot=              4.1312
 Quadrupole moment (field-independent basis, Debye-Ang):
   XX=            -20.8410   YY=            -17.7287   ZZ=            -17.8058
   XY=             -0.0783   XZ=             -0.0002   YZ=              0.0109

 Normal termination of Gaussian 09 at Thu Aug 27 00:14:11 2020.
