 Gaussian 09, Revision D.01,
 Gaussian 09:  ES64L-G09RevD.01 24-Apr-2013

 --------------------
 #p B2PLYPD3/Def2QZVP
 --------------------

 ------------
 cyanomethane
 ------------
 Symbolic Z-matrix:
 Charge =  0 Multiplicity = 1

                         Standard orientation:
 ---------------------------------------------------------------------
 Center     Atomic      Atomic             Coordinates (Angstroms)
 Number     Number       Type             X           Y           Z
 ---------------------------------------------------------------------
      1          6           0        1.192998    0.011231   -0.015240
      2          6           0       -0.287102    0.024628   -0.016490
      3          7           0       -1.437304   -0.010417    0.008950
      4          1           0        1.522503   -0.739862   -0.736971
      5          1           0        1.510097   -0.380006    1.021255
      6          1           0        1.593150    0.977634   -0.156559
 ---------------------------------------------------------------------

 SCF Done:  E(RB2PLYPD3) =  -132.531641968     A.U. after   12 cycles
 E2(B2PLYPD3) =    -0.1803584358D+00 E(B2PLYPD3) =    -0.13271200040403D+03

 The electronic state is 1-A.
 Alpha  occ. eigenvalues --  -14.84048 -10.67712 -10.66194  -1.04165  -0.88680
 Alpha  occ. eigenvalues --   -0.58990  -0.55131  -0.52337  -0.44674  -0.39384
 Alpha  occ. eigenvalues --   -0.38912
 Alpha virt. eigenvalues --    0.03596   0.07712   0.08403   0.10226   0.11102
 Alpha virt. eigenvalues --    0.11716   0.15148   0.15833   0.16598   0.19979
 Alpha virt. eigenvalues --    0.20144   0.24898   0.32319   0.33219   0.35435

 Mulliken charges:
               1
     1  C   -0.096774
     2  C   -0.002454
     3  N   -0.204273
     4  H    0.103258
     5  H    0.094421
     6  H    0.105821
 Sum of Mulliken charges =   0.00000

 Dipole moment (field-independent basis, Debye):
    X=              4.1218    Y=              0.0011    Z=             -0.0030  Tot=              4.1219
 Quadrupole moment (field-independent basis, Debye-Ang):
   XX=            -21.1620   YY=            -17.6154   ZZ=            -17.8553
   XY=             -0.0269   XZ=              0.0612   YZ=              0.0383

 Normal termination of Gaussian 09 at Wed Aug 26 13:42:01 2020.
