 Gaussian 09, Revision D.01,
 Gaussian 09:  ES64L-G09RevD.01 24-Apr-2013

 --------------------
 #p B2PLYPD3/Def2QZVP
 --------------------

 ------------
 cyanomethane
 ------------
 Symbolic Z-matrix:
 Charge =  0 Multiplicity = 1

                         Standard orientation:
 ---------------------------------------------------------------------
 Center     Atomic      Atomic             Coordinates (Angstroms)
 Number     Number       Type             X           Y           Z
 ---------------------------------------------------------------------
      1          6           0       -1.193643   -0.011428    0.002176
      2          6           0        0.273277   -0.012251    0.023485
      3          7           0        1.441789    0.008926   -0.016331
      4          1           0       -1.465746   -0.273686    0.944291
      5          1           0       -1.549600   -0.679681   -0.746044
      6          1           0       -1.554982    1.032960   -0.237896
 ---------------------------------------------------------------------

 SCF Done:  E(RB2PLYPD3) =  -132.528012966     A.U. after   12 cycles
 E2(B2PLYPD3) =    -0.1815754475D+00 E(B2PLYPD3) =    -0.13270958841319D+03

 The electronic state is 1-A.
 Alpha  occ. eigenvalues --  -14.84520 -10.66721 -10.66607  -1.03459  -0.89785
 Alpha  occ. eigenvalues --   -0.59246  -0.56043  -0.53420  -0.44713  -0.38840
 Alpha  occ. eigenvalues --   -0.38602
 Alpha virt. eigenvalues --    0.03707   0.07496   0.08626   0.10158   0.10976
 Alpha virt. eigenvalues --    0.11344   0.15274   0.15613   0.16408   0.20127
 Alpha virt. eigenvalues --    0.20212   0.25133   0.32389   0.34029   0.35496

 Mulliken charges:
               1
     1  C   -0.088375
     2  C   -0.001485
     3  N   -0.214327
     4  H    0.105827
     5  H    0.102117
     6  H    0.096242
 Sum of Mulliken charges =   0.00000

 Dipole moment (field-independent basis, Debye):
    X=             -4.1458    Y=             -0.0186    Z=              0.0281  Tot=              4.1460
 Quadrupole moment (field-independent basis, Debye-Ang):
   XX=            -21.1451   YY=            -17.7513   ZZ=            -17.7085
   XY=             -0.0590   XZ=              0.1375   YZ=              0.0087

 Normal termination of Gaussian 09 at Wed Aug 26 11:32:25 2020.
