 Gaussian 09, Revision D.01,
 Gaussian 09:  ES64L-G09RevD.01 24-Apr-2013

 --------------------
 #p B2PLYPD3/Def2QZVP
 --------------------

 ------------
 cyanomethane
 ------------
 Symbolic Z-matrix:
 Charge =  0 Multiplicity = 1

                         Standard orientation:
 ---------------------------------------------------------------------
 Center     Atomic      Atomic             Coordinates (Angstroms)
 Number     Number       Type             X           Y           Z
 ---------------------------------------------------------------------
      1          6           0       -1.174083    0.000351   -0.021415
      2          6           0        0.262882   -0.009535    0.028968
      3          7           0        1.431912    0.004642   -0.012533
      4          1           0       -1.523506   -0.089977    0.979552
      5          1           0       -1.518934   -0.833892   -0.548889
      6          1           0       -1.513736    0.946478   -0.388247
 ---------------------------------------------------------------------

 SCF Done:  E(RB2PLYPD3) =  -132.531212077     A.U. after   12 cycles
 E2(B2PLYPD3) =    -0.1814734503D+00 E(B2PLYPD3) =    -0.13271268552731D+03

 The electronic state is 1-A.
 Alpha  occ. eigenvalues --  -14.84484 -10.66496 -10.66090  -1.03519  -0.90392
 Alpha  occ. eigenvalues --   -0.60077  -0.55866  -0.54125  -0.44764  -0.38745
 Alpha  occ. eigenvalues --   -0.38461
 Alpha virt. eigenvalues --    0.03865   0.07874   0.08063   0.10118   0.11141
 Alpha virt. eigenvalues --    0.11469   0.15337   0.15728   0.16705   0.20154
 Alpha virt. eigenvalues --    0.20239   0.25744   0.32970   0.34358   0.35529

 Mulliken charges:
               1
     1  C   -0.076487
     2  C    0.000645
     3  N   -0.215831
     4  H    0.091131
     5  H    0.100342
     6  H    0.100200
 Sum of Mulliken charges =   0.00000

 Dipole moment (field-independent basis, Debye):
    X=             -4.1504    Y=             -0.0105    Z=              0.0532  Tot=              4.1508
 Quadrupole moment (field-independent basis, Debye-Ang):
   XX=            -21.0469   YY=            -17.5479   ZZ=            -17.8761
   XY=             -0.0064   XZ=             -0.0334   YZ=              0.0246

 Normal termination of Gaussian 09 at Wed Aug 26 11:25:02 2020.
