 Gaussian 09, Revision D.01,
 Gaussian 09:  ES64L-G09RevD.01 24-Apr-2013

 --------------------
 #p B2PLYPD3/Def2QZVP
 --------------------

 ------------
 cyanomethane
 ------------
 Symbolic Z-matrix:
 Charge =  0 Multiplicity = 1

                         Standard orientation:
 ---------------------------------------------------------------------
 Center     Atomic      Atomic             Coordinates (Angstroms)
 Number     Number       Type             X           Y           Z
 ---------------------------------------------------------------------
      1          6           0       -1.165437    0.021255    0.011909
      2          6           0        0.273521    0.022578    0.000011
      3          7           0        1.428955   -0.022277   -0.001085
      4          1           0       -1.445066    1.017826   -0.146203
      5          1           0       -1.594405   -0.448812    0.892120
      6          1           0       -1.611717   -0.676076   -0.809841
 ---------------------------------------------------------------------

 SCF Done:  E(RB2PLYPD3) =  -132.527335052     A.U. after   12 cycles
 E2(B2PLYPD3) =    -0.1809527875D+00 E(B2PLYPD3) =    -0.13270828783942D+03

 The electronic state is 1-A.
 Alpha  occ. eigenvalues --  -14.84238 -10.67231 -10.66239  -1.04111  -0.89472
 Alpha  occ. eigenvalues --   -0.60119  -0.55903  -0.51550  -0.44832  -0.39146
 Alpha  occ. eigenvalues --   -0.38570
 Alpha virt. eigenvalues --    0.03570   0.06905   0.08322   0.10119   0.11156
 Alpha virt. eigenvalues --    0.11990   0.15323   0.16321   0.16656   0.19951
 Alpha virt. eigenvalues --    0.20265   0.25669   0.32358   0.33607   0.35482

 Mulliken charges:
               1
     1  C   -0.083393
     2  C    0.000511
     3  N   -0.207091
     4  H    0.106572
     5  H    0.096584
     6  H    0.086818
 Sum of Mulliken charges =   0.00000

 Dipole moment (field-independent basis, Debye):
    X=             -4.1180    Y=              0.0030    Z=              0.0159  Tot=              4.1181
 Quadrupole moment (field-independent basis, Debye-Ang):
   XX=            -20.9927   YY=            -17.5253   ZZ=            -18.0250
   XY=              0.3490   XZ=             -0.0238   YZ=             -0.1024

 Normal termination of Gaussian 09 at Wed Aug 26 13:58:02 2020.
