 Gaussian 09, Revision D.01,
 Gaussian 09:  ES64L-G09RevD.01 24-Apr-2013

 --------------------
 #p B2PLYPD3/Def2QZVP
 --------------------

 ------------
 cyanomethane
 ------------
 Symbolic Z-matrix:
 Charge =  0 Multiplicity = 1

                         Standard orientation:
 ---------------------------------------------------------------------
 Center     Atomic      Atomic             Coordinates (Angstroms)
 Number     Number       Type             X           Y           Z
 ---------------------------------------------------------------------
      1          6           0       -1.173595   -0.001571    0.009603
      2          6           0        0.280709   -0.010613   -0.026110
      3          7           0        1.428482    0.012222    0.014720
      4          1           0       -1.562104   -0.162798    0.999253
      5          1           0       -1.464024   -0.834373   -0.630957
      6          1           0       -1.615933    0.984724   -0.372296
 ---------------------------------------------------------------------

 SCF Done:  E(RB2PLYPD3) =  -132.532313590     A.U. after   12 cycles
 E2(B2PLYPD3) =    -0.1802359477D+00 E(B2PLYPD3) =    -0.13271254953735D+03

 The electronic state is 1-A.
 Alpha  occ. eigenvalues --  -14.84017 -10.67497 -10.66064  -1.04359  -0.89004
 Alpha  occ. eigenvalues --   -0.59582  -0.54118  -0.53001  -0.44763  -0.39156
 Alpha  occ. eigenvalues --   -0.39094
 Alpha virt. eigenvalues --    0.03645   0.07412   0.08243   0.10142   0.11527
 Alpha virt. eigenvalues --    0.11653   0.15363   0.15808   0.16946   0.20025
 Alpha virt. eigenvalues --    0.20125   0.25463   0.32528   0.34161   0.34628

 Mulliken charges:
               1
     1  C   -0.092656
     2  C   -0.000783
     3  N   -0.203089
     4  H    0.099839
     5  H    0.100569
     6  H    0.096120
 Sum of Mulliken charges =   0.00000

 Dipole moment (field-independent basis, Debye):
    X=             -4.1007    Y=             -0.0391    Z=             -0.0052  Tot=              4.1009
 Quadrupole moment (field-independent basis, Debye-Ang):
   XX=            -21.0747   YY=            -17.6650   ZZ=            -17.8077
   XY=             -0.1364   XZ=             -0.1588   YZ=              0.0281

 Normal termination of Gaussian 09 at Wed Aug 26 12:16:11 2020.
