 Gaussian 09, Revision D.01,
 Gaussian 09:  ES64L-G09RevD.01 24-Apr-2013

 --------------------
 #p B2PLYPD3/Def2QZVP
 --------------------

 ------------
 cyanomethane
 ------------
 Symbolic Z-matrix:
 Charge =  0 Multiplicity = 1

                         Standard orientation:
 ---------------------------------------------------------------------
 Center     Atomic      Atomic             Coordinates (Angstroms)
 Number     Number       Type             X           Y           Z
 ---------------------------------------------------------------------
      1          6           0        1.179423   -0.021635    0.028943
      2          6           0       -0.283074    0.025815   -0.077825
      3          7           0       -1.417968   -0.005302    0.044818
      4          1           0        1.572353   -0.363982    0.983354
      5          1           0        1.575194    1.086225   -0.187871
      6          1           0        1.400129   -0.710207   -0.815915
 ---------------------------------------------------------------------

 SCF Done:  E(RB2PLYPD3) =  -132.522517201     A.U. after   13 cycles
 E2(B2PLYPD3) =    -0.1803667810D+00 E(B2PLYPD3) =    -0.13270288398167D+03

 The electronic state is 1-A.
 Alpha  occ. eigenvalues --  -14.83772 -10.68436 -10.65789  -1.04604  -0.88302
 Alpha  occ. eigenvalues --   -0.58809  -0.53780  -0.52175  -0.44657  -0.39236
 Alpha  occ. eigenvalues --   -0.39035
 Alpha virt. eigenvalues --    0.03360   0.06950   0.08332   0.09955   0.11566
 Alpha virt. eigenvalues --    0.11823   0.14937   0.15395   0.17054   0.20002
 Alpha virt. eigenvalues --    0.20089   0.25722   0.31641   0.33507   0.34469

 Mulliken charges:
               1
     1  C   -0.118438
     2  C    0.002530
     3  N   -0.199438
     4  H    0.110857
     5  H    0.097252
     6  H    0.107237
 Sum of Mulliken charges =   0.00000

 Dipole moment (field-independent basis, Debye):
    X=              4.0135    Y=             -0.0176    Z=             -0.0563  Tot=              4.0139
 Quadrupole moment (field-independent basis, Debye-Ang):
   XX=            -21.4568   YY=            -17.6716   ZZ=            -17.6680
   XY=              0.0266   XZ=              0.4026   YZ=              0.0301

 Normal termination of Gaussian 09 at Wed Aug 26 23:31:39 2020.
