 Gaussian 09, Revision D.01,
 Gaussian 09:  ES64L-G09RevD.01 24-Apr-2013

 --------------------
 #p B2PLYPD3/Def2QZVP
 --------------------

 ------------
 cyanomethane
 ------------
 Symbolic Z-matrix:
 Charge =  0 Multiplicity = 1

                         Standard orientation:
 ---------------------------------------------------------------------
 Center     Atomic      Atomic             Coordinates (Angstroms)
 Number     Number       Type             X           Y           Z
 ---------------------------------------------------------------------
      1          6           0        1.140901   -0.023675   -0.025352
      2          6           0       -0.252739    0.045168    0.036200
      3          7           0       -1.433888   -0.016705   -0.010492
      4          1           0        1.625230   -0.306240    0.931235
      5          1           0        1.606709    0.968070   -0.213979
      6          1           0        1.476303   -0.673851   -0.708896
 ---------------------------------------------------------------------

 SCF Done:  E(RB2PLYPD3) =  -132.521400194     A.U. after   11 cycles
 E2(B2PLYPD3) =    -0.1831588931D+00 E(B2PLYPD3) =    -0.13270455908688D+03

 The electronic state is 1-A.
 Alpha  occ. eigenvalues --  -14.85083 -10.66957 -10.66041  -1.03280  -0.90679
 Alpha  occ. eigenvalues --   -0.62324  -0.55600  -0.52646  -0.45124  -0.38395
 Alpha  occ. eigenvalues --   -0.37973
 Alpha virt. eigenvalues --    0.03785   0.06628   0.07063   0.09970   0.11414
 Alpha virt. eigenvalues --    0.11643   0.15819   0.16279   0.16987   0.20176
 Alpha virt. eigenvalues --    0.20311   0.26636   0.32697   0.33942   0.35851

 Mulliken charges:
               1
     1  C   -0.056206
     2  C    0.009802
     3  N   -0.219295
     4  H    0.082211
     5  H    0.084508
     6  H    0.098980
 Sum of Mulliken charges =   0.00000

 Dipole moment (field-independent basis, Debye):
    X=              4.1729    Y=              0.0114    Z=              0.0165  Tot=              4.1729
 Quadrupole moment (field-independent basis, Debye-Ang):
   XX=            -20.6364   YY=            -17.8338   ZZ=            -17.9281
   XY=             -0.0236   XZ=              0.0628   YZ=              0.1019

 Normal termination of Gaussian 09 at Wed Aug 26 20:43:23 2020.
