 Gaussian 09, Revision D.01,
 Gaussian 09:  ES64L-G09RevD.01 24-Apr-2013

 --------------------
 #p B2PLYPD3/Def2QZVP
 --------------------

 ------------
 cyanomethane
 ------------
 Symbolic Z-matrix:
 Charge =  0 Multiplicity = 1

                         Standard orientation:
 ---------------------------------------------------------------------
 Center     Atomic      Atomic             Coordinates (Angstroms)
 Number     Number       Type             X           Y           Z
 ---------------------------------------------------------------------
      1          6           0        1.194349   -0.011546   -0.025654
      2          6           0       -0.280195   -0.019950    0.044688
      3          7           0       -1.440306    0.014190   -0.016888
      4          1           0        1.590775    0.031495    0.942915
      5          1           0        1.533706    0.927195   -0.467861
      6          1           0        1.472735   -0.869048   -0.471034
 ---------------------------------------------------------------------

 SCF Done:  E(RB2PLYPD3) =  -132.526798800     A.U. after   12 cycles
 E2(B2PLYPD3) =    -0.1807755539D+00 E(B2PLYPD3) =    -0.13270757435370D+03

 The electronic state is 1-A.
 Alpha  occ. eigenvalues --  -14.84370 -10.66459 -10.66092  -1.03752  -0.90044
 Alpha  occ. eigenvalues --   -0.59617  -0.56787  -0.53172  -0.44725  -0.39177
 Alpha  occ. eigenvalues --   -0.38795
 Alpha virt. eigenvalues --    0.03787   0.07996   0.08725   0.10255   0.10885
 Alpha virt. eigenvalues --    0.11453   0.15017   0.15934   0.16747   0.20039
 Alpha virt. eigenvalues --    0.20184   0.25151   0.32698   0.34233   0.36015

 Mulliken charges:
               1
     1  C   -0.074277
     2  C   -0.001084
     3  N   -0.211380
     4  H    0.086531
     5  H    0.096393
     6  H    0.103817
 Sum of Mulliken charges =   0.00000

 Dipole moment (field-independent basis, Debye):
    X=              4.1562    Y=             -0.0067    Z=              0.0720  Tot=              4.1568
 Quadrupole moment (field-independent basis, Debye-Ang):
   XX=            -20.9470   YY=            -17.4824   ZZ=            -17.9709
   XY=              0.1542   XZ=              0.0984   YZ=              0.0838

 Normal termination of Gaussian 09 at Wed Aug 26 19:13:11 2020.
