 Gaussian 09, Revision D.01,
 Gaussian 09:  ES64L-G09RevD.01 24-Apr-2013

 --------------------
 #p B2PLYPD3/Def2QZVP
 --------------------

 ------------
 cyanomethane
 ------------
 Symbolic Z-matrix:
 Charge =  0 Multiplicity = 1

                         Standard orientation:
 ---------------------------------------------------------------------
 Center     Atomic      Atomic             Coordinates (Angstroms)
 Number     Number       Type             X           Y           Z
 ---------------------------------------------------------------------
      1          6           0        1.167306   -0.007441   -0.001273
      2          6           0       -0.274016    0.024147   -0.003468
      3          7           0       -1.433019   -0.010379    0.002146
      4          1           0        1.576104    1.023786   -0.147946
      5          1           0        1.542992   -0.660511   -0.797844
      6          1           0        1.552297   -0.390859    0.959217
 ---------------------------------------------------------------------

 SCF Done:  E(RB2PLYPD3) =  -132.534076815     A.U. after   11 cycles
 E2(B2PLYPD3) =    -0.1811402221D+00 E(B2PLYPD3) =    -0.13271521703705D+03

 The electronic state is 1-A.
 Alpha  occ. eigenvalues --  -14.84352 -10.67476 -10.66374  -1.03975  -0.89122
 Alpha  occ. eigenvalues --   -0.59960  -0.53727  -0.53370  -0.44860  -0.38869
 Alpha  occ. eigenvalues --   -0.38816
 Alpha virt. eigenvalues --    0.03675   0.07456   0.07536   0.10117   0.11496
 Alpha virt. eigenvalues --    0.11573   0.15488   0.16243   0.16476   0.20086
 Alpha virt. eigenvalues --    0.20140   0.25657   0.32661   0.34253   0.34495

 Mulliken charges:
               1
     1  C   -0.086092
     2  C    0.001319
     3  N   -0.207987
     4  H    0.096027
     5  H    0.099222
     6  H    0.097512
 Sum of Mulliken charges =   0.00000

 Dipole moment (field-independent basis, Debye):
    X=              4.1227    Y=              0.0039    Z=              0.0014  Tot=              4.1227
 Quadrupole moment (field-independent basis, Debye-Ang):
   XX=            -21.0118   YY=            -17.7557   ZZ=            -17.8154
   XY=             -0.0549   XZ=              0.0267   YZ=              0.0144

 Normal termination of Gaussian 09 at Thu Aug 27 00:06:43 2020.
