 Gaussian 09, Revision D.01,
 Gaussian 09:  ES64L-G09RevD.01 24-Apr-2013

 --------------------
 #p B2PLYPD3/Def2QZVP
 --------------------

 ------------
 cyanomethane
 ------------
 Symbolic Z-matrix:
 Charge =  0 Multiplicity = 1

                         Standard orientation:
 ---------------------------------------------------------------------
 Center     Atomic      Atomic             Coordinates (Angstroms)
 Number     Number       Type             X           Y           Z
 ---------------------------------------------------------------------
      1          6           0       -1.173560    0.007317   -0.010693
      2          6           0        0.284522    0.025370   -0.014020
      3          7           0        1.442742   -0.017078    0.008768
      4          1           0       -1.550428    1.005837   -0.075358
      5          1           0       -1.604959   -0.446095    0.960469
      6          1           0       -1.609576   -0.636317   -0.798204
 ---------------------------------------------------------------------

 SCF Done:  E(RB2PLYPD3) =  -132.530738179     A.U. after   12 cycles
 E2(B2PLYPD3) =    -0.1812980533D+00 E(B2PLYPD3) =    -0.13271203623197D+03

 The electronic state is 1-A.
 Alpha  occ. eigenvalues --  -14.84503 -10.67739 -10.66593  -1.04032  -0.88698
 Alpha  occ. eigenvalues --   -0.60173  -0.54376  -0.51779  -0.44967  -0.39162
 Alpha  occ. eigenvalues --   -0.38787
 Alpha virt. eigenvalues --    0.03528   0.06949   0.07907   0.10128   0.11214
 Alpha virt. eigenvalues --    0.11751   0.15402   0.16421   0.16830   0.19990
 Alpha virt. eigenvalues --    0.20189   0.25370   0.32412   0.33560   0.35083

 Mulliken charges:
               1
     1  C   -0.079379
     2  C    0.002792
     3  N   -0.206224
     4  H    0.099299
     5  H    0.088095
     6  H    0.095417
 Sum of Mulliken charges =   0.00000

 Dipole moment (field-independent basis, Debye):
    X=             -4.1346    Y=              0.0189    Z=             -0.0085  Tot=              4.1347
 Quadrupole moment (field-independent basis, Debye-Ang):
   XX=            -20.8364   YY=            -17.7526   ZZ=            -17.9857
   XY=              0.1642   XZ=             -0.0719   YZ=              0.0414

 Normal termination of Gaussian 09 at Wed Aug 26 16:14:53 2020.
