 Gaussian 09, Revision D.01,
 Gaussian 09:  ES64L-G09RevD.01 24-Apr-2013

 --------------------
 #p B2PLYPD3/Def2QZVP
 --------------------

 ------------
 cyanomethane
 ------------
 Symbolic Z-matrix:
 Charge =  0 Multiplicity = 1

                         Standard orientation:
 ---------------------------------------------------------------------
 Center     Atomic      Atomic             Coordinates (Angstroms)
 Number     Number       Type             X           Y           Z
 ---------------------------------------------------------------------
      1          6           0        1.201651    0.027313    0.012148
      2          6           0       -0.280361    0.012252   -0.033184
      3          7           0       -1.448585   -0.014150    0.012891
      4          1           0        1.474363    1.097225    0.030830
      5          1           0        1.604437   -0.602307   -0.931848
      6          1           0        1.533560   -0.633258    0.936996
 ---------------------------------------------------------------------

 SCF Done:  E(RB2PLYPD3) =  -132.516679833     A.U. after   12 cycles
 E2(B2PLYPD3) =    -0.1830470258D+00 E(B2PLYPD3) =    -0.13269972685908D+03

 The electronic state is 1-A.
 Alpha  occ. eigenvalues --  -14.84526 -10.69713 -10.66717  -1.03382  -0.87517
 Alpha  occ. eigenvalues --   -0.57591  -0.54634  -0.50832  -0.44641  -0.38773
 Alpha  occ. eigenvalues --   -0.38242
 Alpha virt. eigenvalues --    0.03095   0.06337   0.07688   0.10143   0.10916
 Alpha virt. eigenvalues --    0.11639   0.14639   0.15650   0.16030   0.20021
 Alpha virt. eigenvalues --    0.20222   0.24821   0.31053   0.32038   0.34380

 Mulliken charges:
               1
     1  C   -0.123278
     2  C    0.004570
     3  N   -0.212004
     4  H    0.121755
     5  H    0.101365
     6  H    0.107593
 Sum of Mulliken charges =   0.00000

 Dipole moment (field-independent basis, Debye):
    X=              4.1069    Y=             -0.0073    Z=             -0.0075  Tot=              4.1070
 Quadrupole moment (field-independent basis, Debye-Ang):
   XX=            -21.5991   YY=            -17.5117   ZZ=            -18.0740
   XY=             -0.2444   XZ=              0.0277   YZ=             -0.0180

 Normal termination of Gaussian 09 at Wed Aug 26 23:21:45 2020.
