 Gaussian 09, Revision D.01,
 Gaussian 09:  ES64L-G09RevD.01 24-Apr-2013

 --------------------
 #p B2PLYPD3/Def2QZVP
 --------------------

 ------------
 cyanomethane
 ------------
 Symbolic Z-matrix:
 Charge =  0 Multiplicity = 1

                         Standard orientation:
 ---------------------------------------------------------------------
 Center     Atomic      Atomic             Coordinates (Angstroms)
 Number     Number       Type             X           Y           Z
 ---------------------------------------------------------------------
      1          6           0       -1.176014   -0.008089    0.005096
      2          6           0        0.283364    0.038640   -0.009611
      3          7           0        1.421909   -0.018628    0.002056
      4          1           0       -1.495998   -0.297460    0.957411
      5          1           0       -1.548891   -0.727276   -0.709570
      6          1           0       -1.552570    0.971828   -0.235143
 ---------------------------------------------------------------------

 SCF Done:  E(RB2PLYPD3) =  -132.535169322     A.U. after   11 cycles
 E2(B2PLYPD3) =    -0.1789612665D+00 E(B2PLYPD3) =    -0.13271413058804D+03

 The electronic state is 1-A.
 Alpha  occ. eigenvalues --  -14.83719 -10.66406 -10.65728  -1.04667  -0.89654
 Alpha  occ. eigenvalues --   -0.59609  -0.54789  -0.54131  -0.44682  -0.39470
 Alpha  occ. eigenvalues --   -0.39421
 Alpha virt. eigenvalues --    0.03866   0.08313   0.08649   0.10194   0.11499
 Alpha virt. eigenvalues --    0.11613   0.15501   0.16101   0.16634   0.19982
 Alpha virt. eigenvalues --    0.20075   0.25414   0.33044   0.34845   0.35196

 Mulliken charges:
               1
     1  C   -0.081351
     2  C   -0.005508
     3  N   -0.199426
     4  H    0.097230
     5  H    0.094526
     6  H    0.094528
 Sum of Mulliken charges =   0.00000

 Dipole moment (field-independent basis, Debye):
    X=             -4.0998    Y=              0.0190    Z=              0.0079  Tot=              4.0999
 Quadrupole moment (field-independent basis, Debye-Ang):
   XX=            -20.9884   YY=            -17.6126   ZZ=            -17.6984
   XY=              0.1154   XZ=              0.0056   YZ=             -0.0164

 Normal termination of Gaussian 09 at Wed Aug 26 16:20:43 2020.
