 Gaussian 09, Revision D.01,
 Gaussian 09:  ES64L-G09RevD.01 24-Apr-2013

 --------------------
 #p B2PLYPD3/Def2QZVP
 --------------------

 ------------
 cyanomethane
 ------------
 Symbolic Z-matrix:
 Charge =  0 Multiplicity = 1

                         Standard orientation:
 ---------------------------------------------------------------------
 Center     Atomic      Atomic             Coordinates (Angstroms)
 Number     Number       Type             X           Y           Z
 ---------------------------------------------------------------------
      1          6           0       -1.174916    0.014382    0.002575
      2          6           0        0.281125    0.002590   -0.017916
      3          7           0        1.428411   -0.003870    0.008590
      4          1           0       -1.532645    1.032311    0.010678
      5          1           0       -1.545141   -0.552957    0.904494
      6          1           0       -1.558345   -0.554099   -0.883257
 ---------------------------------------------------------------------

 SCF Done:  E(RB2PLYPD3) =  -132.533924183     A.U. after   11 cycles
 E2(B2PLYPD3) =    -0.1801379455D+00 E(B2PLYPD3) =    -0.13271406212881D+03

 The electronic state is 1-A.
 Alpha  occ. eigenvalues --  -14.83958 -10.67686 -10.66006  -1.04372  -0.88828
 Alpha  occ. eigenvalues --   -0.59239  -0.54529  -0.52652  -0.44728  -0.39290
 Alpha  occ. eigenvalues --   -0.38989
 Alpha virt. eigenvalues --    0.03645   0.07580   0.08078   0.10176   0.11418
 Alpha virt. eigenvalues --    0.11782   0.15353   0.16085   0.16500   0.20005
 Alpha virt. eigenvalues --    0.20111   0.25371   0.32631   0.33677   0.34897

 Mulliken charges:
               1
     1  C   -0.094843
     2  C   -0.002277
     3  N   -0.202324
     4  H    0.105083
     5  H    0.097328
     6  H    0.097034
 Sum of Mulliken charges =   0.00000

 Dipole moment (field-independent basis, Debye):
    X=             -4.1016    Y=             -0.0082    Z=             -0.0113  Tot=              4.1017
 Quadrupole moment (field-independent basis, Debye-Ang):
   XX=            -21.1323   YY=            -17.6084   ZZ=            -17.8412
   XY=              0.0779   XZ=             -0.0437   YZ=              0.0065

 Normal termination of Gaussian 09 at Wed Aug 26 23:55:39 2020.
