 Gaussian 09, Revision D.01,
 Gaussian 09:  ES64L-G09RevD.01 24-Apr-2013

 --------------------
 #p B2PLYPD3/Def2QZVP
 --------------------

 ------------
 cyanomethane
 ------------
 Symbolic Z-matrix:
 Charge =  0 Multiplicity = 1

                         Standard orientation:
 ---------------------------------------------------------------------
 Center     Atomic      Atomic             Coordinates (Angstroms)
 Number     Number       Type             X           Y           Z
 ---------------------------------------------------------------------
      1          6           0        1.175524    0.022046    0.002203
      2          6           0       -0.284055   -0.000167   -0.065465
      3          7           0       -1.452902   -0.011235    0.026374
      4          1           0        1.470361    0.954091    0.147400
      5          1           0        1.772565   -0.431553   -0.776812
      6          1           0        1.578575   -0.575168    0.824371
 ---------------------------------------------------------------------

 SCF Done:  E(RB2PLYPD3) =  -132.519842358     A.U. after   12 cycles
 E2(B2PLYPD3) =    -0.1820718963D+00 E(B2PLYPD3) =    -0.13270191425463D+03

 The electronic state is 1-A.
 Alpha  occ. eigenvalues --  -14.85002 -10.67170 -10.66063  -1.03619  -0.90017
 Alpha  occ. eigenvalues --   -0.61826  -0.55993  -0.51627  -0.45147  -0.39106
 Alpha  occ. eigenvalues --   -0.38593
 Alpha virt. eigenvalues --    0.03675   0.06952   0.08105   0.10235   0.10975
 Alpha virt. eigenvalues --    0.11702   0.15334   0.16638   0.17370   0.20020
 Alpha virt. eigenvalues --    0.20308   0.25449   0.32358   0.34310   0.36108

 Mulliken charges:
               1
     1  C   -0.053008
     2  C    0.014019
     3  N   -0.213700
     4  H    0.095202
     5  H    0.079583
     6  H    0.077905
 Sum of Mulliken charges =   0.00000

 Dipole moment (field-independent basis, Debye):
    X=              4.1926    Y=             -0.0061    Z=              0.0006  Tot=              4.1926
 Quadrupole moment (field-independent basis, Debye-Ang):
   XX=            -20.3496   YY=            -17.7611   ZZ=            -18.1696
   XY=             -0.2744   XZ=              0.1128   YZ=              0.0428

 Normal termination of Gaussian 09 at Wed Aug 26 22:25:30 2020.
