 Gaussian 09, Revision D.01,
 Gaussian 09:  ES64L-G09RevD.01 24-Apr-2013

 --------------------
 #p B2PLYPD3/Def2QZVP
 --------------------

 ------------
 cyanomethane
 ------------
 Symbolic Z-matrix:
 Charge =  0 Multiplicity = 1

                         Standard orientation:
 ---------------------------------------------------------------------
 Center     Atomic      Atomic             Coordinates (Angstroms)
 Number     Number       Type             X           Y           Z
 ---------------------------------------------------------------------
      1          6           0       -1.183175    0.001565    0.015080
      2          6           0        0.282973    0.052107   -0.013243
      3          7           0        1.417668   -0.015423    0.010788
      4          1           0       -1.525797   -0.417600    0.970907
      5          1           0       -1.357165   -0.806826   -0.813903
      6          1           0       -1.639506    1.010353   -0.243542
 ---------------------------------------------------------------------

 SCF Done:  E(RB2PLYPD3) =  -132.526524431     A.U. after   12 cycles
 E2(B2PLYPD3) =    -0.1797512147D+00 E(B2PLYPD3) =    -0.13270627564538D+03

 The electronic state is 1-A.
 Alpha  occ. eigenvalues --  -14.83473 -10.68601 -10.65611  -1.04694  -0.88233
 Alpha  occ. eigenvalues --   -0.58223  -0.54025  -0.52438  -0.44500  -0.39487
 Alpha  occ. eigenvalues --   -0.38932
 Alpha virt. eigenvalues --    0.03432   0.07822   0.07857   0.10214   0.11491
 Alpha virt. eigenvalues --    0.12142   0.15008   0.15379   0.16745   0.19924
 Alpha virt. eigenvalues --    0.20146   0.25243   0.32036   0.32557   0.34902

 Mulliken charges:
               1
     1  C   -0.122931
     2  C   -0.002151
     3  N   -0.197810
     4  H    0.109726
     5  H    0.104629
     6  H    0.108537
 Sum of Mulliken charges =   0.00000

 Dipole moment (field-independent basis, Debye):
    X=             -4.0545    Y=             -0.0056    Z=             -0.0101  Tot=              4.0545
 Quadrupole moment (field-independent basis, Debye-Ang):
   XX=            -21.4872   YY=            -17.5250   ZZ=            -17.7685
   XY=             -0.0596   XZ=             -0.1750   YZ=             -0.0643

 Normal termination of Gaussian 09 at Wed Aug 26 22:04:38 2020.
