 Gaussian 09, Revision D.01,
 Gaussian 09:  ES64L-G09RevD.01 24-Apr-2013

 --------------------
 #p B2PLYPD3/Def2QZVP
 --------------------

 ------------
 cyanomethane
 ------------
 Symbolic Z-matrix:
 Charge =  0 Multiplicity = 1

                         Standard orientation:
 ---------------------------------------------------------------------
 Center     Atomic      Atomic             Coordinates (Angstroms)
 Number     Number       Type             X           Y           Z
 ---------------------------------------------------------------------
      1          6           0        1.168379   -0.010834   -0.008221
      2          6           0       -0.281089   -0.035423   -0.001549
      3          7           0       -1.430598    0.022759   -0.000701
      4          1           0        1.610442    1.015856   -0.232084
      5          1           0        1.560826   -0.677491   -0.656126
      6          1           0        1.519176   -0.220131    0.951739
 ---------------------------------------------------------------------

 SCF Done:  E(RB2PLYPD3) =  -132.527896253     A.U. after   12 cycles
 E2(B2PLYPD3) =    -0.1799788072D+00 E(B2PLYPD3) =    -0.13270787506057D+03

 The electronic state is 1-A.
 Alpha  occ. eigenvalues --  -14.84184 -10.66216 -10.66147  -1.04353  -0.89987
 Alpha  occ. eigenvalues --   -0.60788  -0.55640  -0.52718  -0.44891  -0.39408
 Alpha  occ. eigenvalues --   -0.39025
 Alpha virt. eigenvalues --    0.03679   0.07603   0.08757   0.10168   0.11235
 Alpha virt. eigenvalues --    0.11737   0.15610   0.16176   0.17119   0.20003
 Alpha virt. eigenvalues --    0.20167   0.25563   0.32840   0.34173   0.35775

 Mulliken charges:
               1
     1  C   -0.066307
     2  C    0.000959
     3  N   -0.204331
     4  H    0.085447
     5  H    0.094656
     6  H    0.089576
 Sum of Mulliken charges =   0.00000

 Dipole moment (field-independent basis, Debye):
    X=              4.1301    Y=             -0.0521    Z=              0.0334  Tot=              4.1306
 Quadrupole moment (field-independent basis, Debye-Ang):
   XX=            -20.7255   YY=            -17.7227   ZZ=            -17.8021
   XY=              0.1419   XZ=              0.0303   YZ=              0.0791

 Normal termination of Gaussian 09 at Wed Aug 26 13:44:59 2020.
