 Gaussian 09, Revision D.01,
 Gaussian 09:  ES64L-G09RevD.01 24-Apr-2013

 --------------------
 #p B2PLYPD3/Def2QZVP
 --------------------

 ------------
 cyanomethane
 ------------
 Symbolic Z-matrix:
 Charge =  0 Multiplicity = 1

                         Standard orientation:
 ---------------------------------------------------------------------
 Center     Atomic      Atomic             Coordinates (Angstroms)
 Number     Number       Type             X           Y           Z
 ---------------------------------------------------------------------
      1          6           0        1.192413   -0.003541   -0.003667
      2          6           0       -0.289732    0.032141   -0.007699
      3          7           0       -1.435606   -0.007577    0.000185
      4          1           0        1.534777   -0.555953   -0.854160
      5          1           0        1.432761   -0.557423    0.895316
      6          1           0        1.665616    0.994818    0.025747
 ---------------------------------------------------------------------

 SCF Done:  E(RB2PLYPD3) =  -132.534243650     A.U. after   12 cycles
 E2(B2PLYPD3) =    -0.1797865049D+00 E(B2PLYPD3) =    -0.13271403015477D+03

 The electronic state is 1-A.
 Alpha  occ. eigenvalues --  -14.83932 -10.67286 -10.66087  -1.04357  -0.88914
 Alpha  occ. eigenvalues --   -0.59072  -0.54142  -0.53750  -0.44667  -0.39409
 Alpha  occ. eigenvalues --   -0.39240
 Alpha virt. eigenvalues --    0.03758   0.08007   0.08502   0.10293   0.11342
 Alpha virt. eigenvalues --    0.11553   0.15136   0.15806   0.16844   0.20017
 Alpha virt. eigenvalues --    0.20087   0.24901   0.32395   0.34432   0.35120

 Mulliken charges:
               1
     1  C   -0.091985
     2  C   -0.004021
     3  N   -0.202305
     4  H    0.100014
     5  H    0.100693
     6  H    0.097605
 Sum of Mulliken charges =   0.00000

 Dipole moment (field-independent basis, Debye):
    X=              4.1272    Y=             -0.0159    Z=              0.0092  Tot=              4.1272
 Quadrupole moment (field-independent basis, Debye-Ang):
   XX=            -21.0431   YY=            -17.6890   ZZ=            -17.7667
   XY=              0.0510   XZ=             -0.0535   YZ=              0.0109

 Normal termination of Gaussian 09 at Wed Aug 26 12:30:31 2020.
