 Gaussian 09, Revision D.01,
 Gaussian 09:  ES64L-G09RevD.01 24-Apr-2013

 --------------------
 #p B2PLYPD3/Def2QZVP
 --------------------

 ------------
 cyanomethane
 ------------
 Symbolic Z-matrix:
 Charge =  0 Multiplicity = 1

                         Standard orientation:
 ---------------------------------------------------------------------
 Center     Atomic      Atomic             Coordinates (Angstroms)
 Number     Number       Type             X           Y           Z
 ---------------------------------------------------------------------
      1          6           0        1.176425    0.002515   -0.000608
      2          6           0       -0.278009    0.012074    0.013846
      3          7           0       -1.427412   -0.005924   -0.008853
      4          1           0        1.547094   -0.594388   -0.832870
      5          1           0        1.509432   -0.442945    0.909695
      6          1           0        1.544867    0.991264   -0.094288
 ---------------------------------------------------------------------

 SCF Done:  E(RB2PLYPD3) =  -132.535480649     A.U. after   11 cycles
 E2(B2PLYPD3) =    -0.1798108661D+00 E(B2PLYPD3) =    -0.13271529151524D+03

 The electronic state is 1-A.
 Alpha  occ. eigenvalues --  -14.83987 -10.66533 -10.66015  -1.04281  -0.89702
 Alpha  occ. eigenvalues --   -0.59712  -0.54904  -0.53990  -0.44718  -0.39227
 Alpha  occ. eigenvalues --   -0.39116
 Alpha virt. eigenvalues --    0.03846   0.08061   0.08463   0.10194   0.11393
 Alpha virt. eigenvalues --    0.11560   0.15472   0.16099   0.16490   0.20062
 Alpha virt. eigenvalues --    0.20107   0.25407   0.32977   0.34643   0.35141

 Mulliken charges:
               1
     1  C   -0.081177
     2  C   -0.003648
     3  N   -0.204737
     4  H    0.094938
     5  H    0.097179
     6  H    0.097446
 Sum of Mulliken charges =   0.00000

 Dipole moment (field-independent basis, Debye):
    X=              4.1201    Y=              0.0048    Z=              0.0148  Tot=              4.1202
 Quadrupole moment (field-independent basis, Debye-Ang):
   XX=            -21.0107   YY=            -17.6733   ZZ=            -17.7061
   XY=             -0.0312   XZ=             -0.0756   YZ=             -0.0245

 Normal termination of Gaussian 09 at Wed Aug 26 09:30:32 2020.
