 Gaussian 09, Revision D.01,
 Gaussian 09:  ES64L-G09RevD.01 24-Apr-2013

 --------------------
 #p B2PLYPD3/Def2QZVP
 --------------------

 ------------
 cyanomethane
 ------------
 Symbolic Z-matrix:
 Charge =  0 Multiplicity = 1

                         Standard orientation:
 ---------------------------------------------------------------------
 Center     Atomic      Atomic             Coordinates (Angstroms)
 Number     Number       Type             X           Y           Z
 ---------------------------------------------------------------------
      1          6           0        1.168425   -0.005861   -0.011586
      2          6           0       -0.280792    0.004977    0.029047
      3          7           0       -1.428655   -0.004097   -0.016183
      4          1           0        1.531253    0.993529   -0.089576
      5          1           0        1.600802   -0.559874   -0.789402
      6          1           0        1.542737   -0.399677    0.887488
 ---------------------------------------------------------------------

 SCF Done:  E(RB2PLYPD3) =  -132.533157233     A.U. after   12 cycles
 E2(B2PLYPD3) =    -0.1796376587D+00 E(B2PLYPD3) =    -0.13271279489200D+03

 The electronic state is 1-A.
 Alpha  occ. eigenvalues --  -14.84088 -10.66115 -10.65898  -1.04420  -0.90073
 Alpha  occ. eigenvalues --   -0.60857  -0.54419  -0.54299  -0.44859  -0.39327
 Alpha  occ. eigenvalues --   -0.39240
 Alpha virt. eigenvalues --    0.03908   0.08066   0.08496   0.10144   0.11502
 Alpha virt. eigenvalues --    0.11533   0.15630   0.16096   0.17204   0.20060
 Alpha virt. eigenvalues --    0.20122   0.25591   0.33183   0.34980   0.35432

 Mulliken charges:
               1
     1  C   -0.062610
     2  C    0.000584
     3  N   -0.203883
     4  H    0.088450
     5  H    0.089665
     6  H    0.087792
 Sum of Mulliken charges =   0.00000

 Dipole moment (field-independent basis, Debye):
    X=              4.1338    Y=              0.0076    Z=              0.0354  Tot=              4.1340
 Quadrupole moment (field-independent basis, Debye-Ang):
   XX=            -20.7132   YY=            -17.7216   ZZ=            -17.7581
   XY=             -0.0537   XZ=             -0.0988   YZ=              0.0056

 Normal termination of Gaussian 09 at Wed Aug 26 10:45:59 2020.
