 Gaussian 09, Revision D.01,
 Gaussian 09:  ES64L-G09RevD.01 24-Apr-2013

 --------------------
 #p B2PLYPD3/Def2QZVP
 --------------------

 ------------
 cyanomethane
 ------------
 Symbolic Z-matrix:
 Charge =  0 Multiplicity = 1

                         Standard orientation:
 ---------------------------------------------------------------------
 Center     Atomic      Atomic             Coordinates (Angstroms)
 Number     Number       Type             X           Y           Z
 ---------------------------------------------------------------------
      1          6           0       -1.177601    0.014296    0.003680
      2          6           0        0.275169    0.013546    0.019871
      3          7           0        1.438826   -0.014256   -0.010375
      4          1           0       -1.476498    1.003626   -0.161620
      5          1           0       -1.586298   -0.412249    0.894741
      6          1           0       -1.594392   -0.658639   -0.801799
 ---------------------------------------------------------------------

 SCF Done:  E(RB2PLYPD3) =  -132.530863531     A.U. after   12 cycles
 E2(B2PLYPD3) =    -0.1813165379D+00 E(B2PLYPD3) =    -0.13271218006864D+03

 The electronic state is 1-A.
 Alpha  occ. eigenvalues --  -14.84487 -10.66870 -10.66546  -1.03756  -0.89567
 Alpha  occ. eigenvalues --   -0.60101  -0.55660  -0.52504  -0.44848  -0.38993
 Alpha  occ. eigenvalues --   -0.38638
 Alpha virt. eigenvalues --    0.03693   0.07294   0.08263   0.10155   0.11071
 Alpha virt. eigenvalues --    0.11639   0.15355   0.16284   0.16480   0.20042
 Alpha virt. eigenvalues --    0.20230   0.25433   0.32628   0.33952   0.35468

 Mulliken charges:
               1
     1  C   -0.077690
     2  C    0.000634
     3  N   -0.210916
     4  H    0.103249
     5  H    0.095064
     6  H    0.089659
 Sum of Mulliken charges =   0.00000

 Dipole moment (field-independent basis, Debye):
    X=             -4.1460    Y=              0.0012    Z=              0.0210  Tot=              4.1460
 Quadrupole moment (field-independent basis, Debye-Ang):
   XX=            -20.9409   YY=            -17.6297   ZZ=            -17.9495
   XY=              0.2305   XZ=              0.0367   YZ=             -0.0745

 Normal termination of Gaussian 09 at Wed Aug 26 14:08:43 2020.
