 Gaussian 09, Revision D.01,
 Gaussian 09:  ES64L-G09RevD.01 24-Apr-2013

 --------------------
 #p B2PLYPD3/Def2QZVP
 --------------------

 ------------
 cyanomethane
 ------------
 Symbolic Z-matrix:
 Charge =  0 Multiplicity = 1

                         Standard orientation:
 ---------------------------------------------------------------------
 Center     Atomic      Atomic             Coordinates (Angstroms)
 Number     Number       Type             X           Y           Z
 ---------------------------------------------------------------------
      1          6           0       -1.177213   -0.015704    0.016739
      2          6           0        0.282755    0.071116   -0.009608
      3          7           0        1.411367   -0.030446    0.003692
      4          1           0       -1.497256   -0.222651    1.015831
      5          1           0       -1.452780   -0.933748   -0.688694
      6          1           0       -1.562781    1.037046   -0.395765
 ---------------------------------------------------------------------

 SCF Done:  E(RB2PLYPD3) =  -132.520750061     A.U. after   12 cycles
 E2(B2PLYPD3) =    -0.1796929300D+00 E(B2PLYPD3) =    -0.13270044299130D+03

 The electronic state is 1-A.
 Alpha  occ. eigenvalues --  -14.83409 -10.68921 -10.65420  -1.04878  -0.88024
 Alpha  occ. eigenvalues --   -0.58122  -0.53320  -0.52398  -0.44523  -0.39417
 Alpha  occ. eigenvalues --   -0.39130
 Alpha virt. eigenvalues --    0.03214   0.07258   0.08043   0.10100   0.11689
 Alpha virt. eigenvalues --    0.11954   0.15175   0.15602   0.16269   0.19876
 Alpha virt. eigenvalues --    0.20074   0.25478   0.31333   0.32550   0.34453

 Mulliken charges:
               1
     1  C   -0.130263
     2  C   -0.000750
     3  N   -0.194705
     4  H    0.113328
     5  H    0.107666
     6  H    0.104723
 Sum of Mulliken charges =   0.00000

 Dipole moment (field-independent basis, Debye):
    X=             -3.9969    Y=              0.0223    Z=              0.0286  Tot=              3.9970
 Quadrupole moment (field-independent basis, Debye-Ang):
   XX=            -21.6422   YY=            -17.4579   ZZ=            -17.7427
   XY=              0.1456   XZ=             -0.1111   YZ=             -0.0309

 Normal termination of Gaussian 09 at Wed Aug 26 22:56:10 2020.
