 Gaussian 09, Revision D.01,
 Gaussian 09:  ES64L-G09RevD.01 24-Apr-2013

 --------------------
 #p B2PLYPD3/Def2QZVP
 --------------------

 ------------
 cyanomethane
 ------------
 Symbolic Z-matrix:
 Charge =  0 Multiplicity = 1

                         Standard orientation:
 ---------------------------------------------------------------------
 Center     Atomic      Atomic             Coordinates (Angstroms)
 Number     Number       Type             X           Y           Z
 ---------------------------------------------------------------------
      1          6           0       -1.181937   -0.002039    0.002210
      2          6           0        0.278524    0.000947    0.007224
      3          7           0        1.433993    0.004444   -0.005099
      4          1           0       -1.504986   -0.335600    0.946683
      5          1           0       -1.508370   -0.697537   -0.758297
      6          1           0       -1.604113    1.008577   -0.209294
 ---------------------------------------------------------------------

 SCF Done:  E(RB2PLYPD3) =  -132.534149560     A.U. after   12 cycles
 E2(B2PLYPD3) =    -0.1804622728D+00 E(B2PLYPD3) =    -0.13271461183298D+03

 The electronic state is 1-A.
 Alpha  occ. eigenvalues --  -14.84169 -10.66971 -10.66240  -1.04041  -0.89408
 Alpha  occ. eigenvalues --   -0.59467  -0.54681  -0.53714  -0.44734  -0.39065
 Alpha  occ. eigenvalues --   -0.39005
 Alpha virt. eigenvalues --    0.03766   0.07720   0.08390   0.10198   0.11365
 Alpha virt. eigenvalues --    0.11454   0.15367   0.15882   0.16593   0.20099
 Alpha virt. eigenvalues --    0.20115   0.25270   0.32625   0.34531   0.34899

 Mulliken charges:
               1
     1  C   -0.086578
     2  C   -0.002447
     3  N   -0.207221
     4  H    0.100353
     5  H    0.098997
     6  H    0.096896
 Sum of Mulliken charges =   0.00000

 Dipole moment (field-independent basis, Debye):
    X=             -4.1291    Y=             -0.0257    Z=              0.0150  Tot=              4.1293
 Quadrupole moment (field-independent basis, Debye-Ang):
   XX=            -21.0584   YY=            -17.6948   ZZ=            -17.7564
   XY=             -0.0623   XZ=              0.0288   YZ=             -0.0043

 Normal termination of Gaussian 09 at Wed Aug 26 14:46:15 2020.
