 Gaussian 09, Revision D.01,
 Gaussian 09:  ES64L-G09RevD.01 24-Apr-2013

 --------------------
 #p B2PLYPD3/Def2QZVP
 --------------------

 ------------
 cyanomethane
 ------------
 Symbolic Z-matrix:
 Charge =  0 Multiplicity = 1

                         Standard orientation:
 ---------------------------------------------------------------------
 Center     Atomic      Atomic             Coordinates (Angstroms)
 Number     Number       Type             X           Y           Z
 ---------------------------------------------------------------------
      1          6           0       -1.159526    0.025090   -0.007107
      2          6           0        0.269755    0.029882   -0.016763
      3          7           0        1.430677   -0.022430    0.011335
      4          1           0       -1.504282    0.989118   -0.174422
      5          1           0       -1.597228   -0.404298    1.015804
      6          1           0       -1.574606   -0.757638   -0.777504
 ---------------------------------------------------------------------

 SCF Done:  E(RB2PLYPD3) =  -132.521167180     A.U. after   12 cycles
 E2(B2PLYPD3) =    -0.1819568592D+00 E(B2PLYPD3) =    -0.13270312403957D+03

 The electronic state is 1-A.
 Alpha  occ. eigenvalues --  -14.84452 -10.68144 -10.66420  -1.03915  -0.89016
 Alpha  occ. eigenvalues --   -0.59839  -0.55158  -0.51044  -0.44905  -0.38945
 Alpha  occ. eigenvalues --   -0.38259
 Alpha virt. eigenvalues --    0.03272   0.06092   0.07992   0.10070   0.11160
 Alpha virt. eigenvalues --    0.12065   0.15449   0.16286   0.16414   0.19976
 Alpha virt. eigenvalues --    0.20263   0.25785   0.32137   0.32445   0.34875

 Mulliken charges:
               1
     1  C   -0.095283
     2  C    0.003690
     3  N   -0.208411
     4  H    0.110727
     5  H    0.092904
     6  H    0.096372
 Sum of Mulliken charges =   0.00000

 Dipole moment (field-independent basis, Debye):
    X=             -4.1001    Y=              0.0191    Z=             -0.0135  Tot=              4.1002
 Quadrupole moment (field-independent basis, Debye-Ang):
   XX=            -21.1155   YY=            -17.6236   ZZ=            -17.9993
   XY=              0.2296   XZ=             -0.1050   YZ=             -0.0284

 Normal termination of Gaussian 09 at Wed Aug 26 11:37:03 2020.
