 Gaussian 09, Revision D.01,
 Gaussian 09:  ES64L-G09RevD.01 24-Apr-2013

 --------------------
 #p B2PLYPD3/Def2QZVP
 --------------------

 ------------
 cyanomethane
 ------------
 Symbolic Z-matrix:
 Charge =  0 Multiplicity = 1

                         Standard orientation:
 ---------------------------------------------------------------------
 Center     Atomic      Atomic             Coordinates (Angstroms)
 Number     Number       Type             X           Y           Z
 ---------------------------------------------------------------------
      1          6           0       -1.178127   -0.012134    0.008946
      2          6           0        0.281090    0.015934    0.000318
      3          7           0        1.426704   -0.005142   -0.002978
      4          1           0       -1.503703   -0.238916    0.972108
      5          1           0       -1.533616   -0.752243   -0.708185
      6          1           0       -1.567386    1.004354   -0.298661
 ---------------------------------------------------------------------

 SCF Done:  E(RB2PLYPD3) =  -132.533839020     A.U. after   11 cycles
 E2(B2PLYPD3) =    -0.1796786921D+00 E(B2PLYPD3) =    -0.13271351771196D+03

 The electronic state is 1-A.
 Alpha  occ. eigenvalues --  -14.83874 -10.67057 -10.65915  -1.04423  -0.89298
 Alpha  occ. eigenvalues --   -0.59359  -0.54931  -0.53266  -0.44686  -0.39350
 Alpha  occ. eigenvalues --   -0.39136
 Alpha virt. eigenvalues --    0.03760   0.07831   0.08495   0.10195   0.11433
 Alpha virt. eigenvalues --    0.11657   0.15395   0.16153   0.16361   0.20046
 Alpha virt. eigenvalues --    0.20072   0.25315   0.32593   0.34156   0.35162

 Mulliken charges:
               1
     1  C   -0.090258
     2  C   -0.004077
     3  N   -0.202260
     4  H    0.102654
     5  H    0.099377
     6  H    0.094564
 Sum of Mulliken charges =   0.00000

 Dipole moment (field-independent basis, Debye):
    X=             -4.1040    Y=             -0.0028    Z=              0.0124  Tot=              4.1040
 Quadrupole moment (field-independent basis, Debye-Ang):
   XX=            -21.1023   YY=            -17.6882   ZZ=            -17.6831
   XY=              0.0171   XZ=              0.0321   YZ=              0.0026

 Normal termination of Gaussian 09 at Thu Aug 27 00:04:10 2020.
