 Gaussian 09, Revision D.01,
 Gaussian 09:  ES64L-G09RevD.01 24-Apr-2013

 --------------------
 #p B2PLYPD3/Def2QZVP
 --------------------

 ------------
 cyanomethane
 ------------
 Symbolic Z-matrix:
 Charge =  0 Multiplicity = 1

                         Standard orientation:
 ---------------------------------------------------------------------
 Center     Atomic      Atomic             Coordinates (Angstroms)
 Number     Number       Type             X           Y           Z
 ---------------------------------------------------------------------
      1          6           0        1.163909    0.025175    0.008224
      2          6           0       -0.273992   -0.008339   -0.072061
      3          7           0       -1.446035    0.001533    0.036730
      4          1           0        1.597125    1.045367   -0.084170
      5          1           0        1.595148   -0.689439   -0.816166
      6          1           0        1.590476   -0.467673    1.026250
 ---------------------------------------------------------------------

 SCF Done:  E(RB2PLYPD3) =  -132.517561699     A.U. after   12 cycles
 E2(B2PLYPD3) =    -0.1838678682D+00 E(B2PLYPD3) =    -0.13270142956723D+03

 The electronic state is 1-A.
 Alpha  occ. eigenvalues --  -14.85066 -10.69178 -10.67092  -1.03425  -0.87988
 Alpha  occ. eigenvalues --   -0.59818  -0.53320  -0.50856  -0.45111  -0.38595
 Alpha  occ. eigenvalues --   -0.38071
 Alpha virt. eigenvalues --    0.02989   0.05905   0.06752   0.09918   0.11220
 Alpha virt. eigenvalues --    0.11734   0.15427   0.15755   0.17117   0.20045
 Alpha virt. eigenvalues --    0.20252   0.25898   0.31853   0.32241   0.34305

 Mulliken charges:
               1
     1  C   -0.099702
     2  C    0.011673
     3  N   -0.211613
     4  H    0.108616
     5  H    0.094693
     6  H    0.096332
 Sum of Mulliken charges =   0.00000

 Dipole moment (field-independent basis, Debye):
    X=              4.1029    Y=             -0.0076    Z=             -0.0433  Tot=              4.1031
 Quadrupole moment (field-independent basis, Debye-Ang):
   XX=            -21.0492   YY=            -17.8117   ZZ=            -18.0937
   XY=             -0.0219   XZ=              0.2091   YZ=              0.0001

 Normal termination of Gaussian 09 at Wed Aug 26 23:51:54 2020.
