 Gaussian 09, Revision D.01,
 Gaussian 09:  ES64L-G09RevD.01 24-Apr-2013

 --------------------
 #p B2PLYPD3/Def2QZVP
 --------------------

 ------------
 cyanomethane
 ------------
 Symbolic Z-matrix:
 Charge =  0 Multiplicity = 1

                         Standard orientation:
 ---------------------------------------------------------------------
 Center     Atomic      Atomic             Coordinates (Angstroms)
 Number     Number       Type             X           Y           Z
 ---------------------------------------------------------------------
      1          6           0       -1.182139   -0.000001   -0.007633
      2          6           0        0.282533   -0.013527    0.010860
      3          7           0        1.436305    0.007753   -0.006850
      4          1           0       -1.561857    1.038235   -0.032614
      5          1           0       -1.524695   -0.468379    0.916405
      6          1           0       -1.569949   -0.542959   -0.855201
 ---------------------------------------------------------------------

 SCF Done:  E(RB2PLYPD3) =  -132.535246874     A.U. after   11 cycles
 E2(B2PLYPD3) =    -0.1804658128D+00 E(B2PLYPD3) =    -0.13271571268657D+03

 The electronic state is 1-A.
 Alpha  occ. eigenvalues --  -14.84187 -10.67279 -10.66273  -1.04114  -0.89037
 Alpha  occ. eigenvalues --   -0.59535  -0.54113  -0.53544  -0.44773  -0.39150
 Alpha  occ. eigenvalues --   -0.39037
 Alpha virt. eigenvalues --    0.03728   0.07785   0.08101   0.10182   0.11379
 Alpha virt. eigenvalues --    0.11488   0.15346   0.15994   0.16669   0.20068
 Alpha virt. eigenvalues --    0.20101   0.25227   0.32643   0.34323   0.34852

 Mulliken charges:
               1
     1  C   -0.086300
     2  C   -0.001676
     3  N   -0.205673
     4  H    0.097080
     5  H    0.097239
     6  H    0.099331
 Sum of Mulliken charges =   0.00000

 Dipole moment (field-independent basis, Debye):
    X=             -4.1277    Y=             -0.0143    Z=              0.0160  Tot=              4.1278
 Quadrupole moment (field-independent basis, Debye-Ang):
   XX=            -21.0223   YY=            -17.7577   ZZ=            -17.7521
   XY=             -0.0481   XZ=              0.0564   YZ=              0.0167

 Normal termination of Gaussian 09 at Thu Aug 27 00:02:48 2020.
