 Gaussian 09, Revision D.01,
 Gaussian 09:  ES64L-G09RevD.01 24-Apr-2013

 --------------------
 #p B2PLYPD3/Def2QZVP
 --------------------

 ------------
 cyanomethane
 ------------
 Symbolic Z-matrix:
 Charge =  0 Multiplicity = 1

                         Standard orientation:
 ---------------------------------------------------------------------
 Center     Atomic      Atomic             Coordinates (Angstroms)
 Number     Number       Type             X           Y           Z
 ---------------------------------------------------------------------
      1          6           0        1.175671   -0.004588   -0.027900
      2          6           0       -0.266311   -0.023057   -0.061232
      3          7           0       -1.441606    0.017370    0.048886
      4          1           0        1.368686   -0.743864   -0.712148
      5          1           0        1.702997   -0.309827    1.092695
      6          1           0        1.563397    1.097968   -0.187963
 ---------------------------------------------------------------------

 SCF Done:  E(RB2PLYPD3) =  -132.498746910     A.U. after   13 cycles
 E2(B2PLYPD3) =    -0.1844582507D+00 E(B2PLYPD3) =    -0.13268320516028D+03

 The electronic state is 1-A.
 Alpha  occ. eigenvalues --  -14.85001 -10.69002 -10.66993  -1.03198  -0.88904
 Alpha  occ. eigenvalues --   -0.58399  -0.56116  -0.49768  -0.44909  -0.38482
 Alpha  occ. eigenvalues --   -0.37715
 Alpha virt. eigenvalues --    0.02427   0.05064   0.08313   0.09889   0.10765
 Alpha virt. eigenvalues --    0.11878   0.14909   0.15606   0.16752   0.20001
 Alpha virt. eigenvalues --    0.20405   0.25572   0.30361   0.32107   0.34649

 Mulliken charges:
               1
     1  C   -0.112637
     2  C    0.007291
     3  N   -0.215411
     4  H    0.120396
     5  H    0.090874
     6  H    0.109488
 Sum of Mulliken charges =   0.00000

 Dipole moment (field-independent basis, Debye):
    X=              4.0735    Y=             -0.0041    Z=             -0.0723  Tot=              4.0742
 Quadrupole moment (field-independent basis, Debye-Ang):
   XX=            -21.3796   YY=            -17.6795   ZZ=            -18.0476
   XY=              0.2095   XZ=              0.4987   YZ=              0.1969

 Normal termination of Gaussian 09 at Wed Aug 26 23:23:11 2020.
