 Gaussian 09, Revision D.01,
 Gaussian 09:  ES64L-G09RevD.01 24-Apr-2013

 --------------------
 #p B2PLYPD3/Def2QZVP
 --------------------

 ------------
 cyanomethane
 ------------
 Symbolic Z-matrix:
 Charge =  0 Multiplicity = 1

                         Standard orientation:
 ---------------------------------------------------------------------
 Center     Atomic      Atomic             Coordinates (Angstroms)
 Number     Number       Type             X           Y           Z
 ---------------------------------------------------------------------
      1          6           0       -1.184100   -0.017045    0.016746
      2          6           0        0.282802    0.042207   -0.000452
      3          7           0        1.422263   -0.015711   -0.003497
      4          1           0       -1.474576   -0.235032    0.951577
      5          1           0       -1.489358   -0.796798   -0.693966
      6          1           0       -1.584121    0.990829   -0.330892
 ---------------------------------------------------------------------

 SCF Done:  E(RB2PLYPD3) =  -132.529119103     A.U. after   11 cycles
 E2(B2PLYPD3) =    -0.1792203391D+00 E(B2PLYPD3) =    -0.13270833944225D+03

 The electronic state is 1-A.
 Alpha  occ. eigenvalues --  -14.83677 -10.66896 -10.65710  -1.04575  -0.89454
 Alpha  occ. eigenvalues --   -0.59059  -0.55452  -0.53262  -0.44592  -0.39519
 Alpha  occ. eigenvalues --   -0.39223
 Alpha virt. eigenvalues --    0.03757   0.07918   0.08914   0.10184   0.11395
 Alpha virt. eigenvalues --    0.11675   0.15342   0.16021   0.16229   0.20007
 Alpha virt. eigenvalues --    0.20060   0.25251   0.32364   0.34064   0.35308

 Mulliken charges:
               1
     1  C   -0.096903
     2  C   -0.006045
     3  N   -0.200343
     4  H    0.106805
     5  H    0.100847
     6  H    0.095639
 Sum of Mulliken charges =   0.00000

 Dipole moment (field-independent basis, Debye):
    X=             -4.0826    Y=              0.0043    Z=              0.0142  Tot=              4.0826
 Quadrupole moment (field-independent basis, Debye-Ang):
   XX=            -21.2070   YY=            -17.6035   ZZ=            -17.6515
   XY=              0.0527   XZ=              0.0326   YZ=             -0.0141

 Normal termination of Gaussian 09 at Wed Aug 26 10:38:42 2020.
