 Gaussian 09, Revision D.01,
 Gaussian 09:  ES64L-G09RevD.01 24-Apr-2013

 --------------------
 #p B2PLYPD3/Def2QZVP
 --------------------

 ------------
 cyanomethane
 ------------
 Symbolic Z-matrix:
 Charge =  0 Multiplicity = 1

                         Standard orientation:
 ---------------------------------------------------------------------
 Center     Atomic      Atomic             Coordinates (Angstroms)
 Number     Number       Type             X           Y           Z
 ---------------------------------------------------------------------
      1          6           0        1.162335   -0.007145   -0.000467
      2          6           0       -0.278324    0.008702    0.029450
      3          7           0       -1.425229    0.000929   -0.014264
      4          1           0        1.614884    1.019748   -0.244851
      5          1           0        1.503009   -0.713488   -0.774789
      6          1           0        1.554647   -0.322108    0.945587
 ---------------------------------------------------------------------

 SCF Done:  E(RB2PLYPD3) =  -132.533197362     A.U. after   11 cycles
 E2(B2PLYPD3) =    -0.1801626796D+00 E(B2PLYPD3) =    -0.13271336004158D+03

 The electronic state is 1-A.
 Alpha  occ. eigenvalues --  -14.84024 -10.67427 -10.66019  -1.04456  -0.89105
 Alpha  occ. eigenvalues --   -0.59935  -0.54097  -0.52842  -0.44826  -0.39189
 Alpha  occ. eigenvalues --   -0.39045
 Alpha virt. eigenvalues --    0.03633   0.07304   0.08079   0.10153   0.11577
 Alpha virt. eigenvalues --    0.11789   0.15520   0.16217   0.16707   0.20028
 Alpha virt. eigenvalues --    0.20092   0.25698   0.32653   0.34151   0.34643

 Mulliken charges:
               1
     1  C   -0.087238
     2  C   -0.000194
     3  N   -0.202146
     4  H    0.093152
     5  H    0.098454
     6  H    0.097973
 Sum of Mulliken charges =   0.00000

 Dipole moment (field-independent basis, Debye):
    X=              4.1007    Y=             -0.0234    Z=              0.0263  Tot=              4.1009
 Quadrupole moment (field-independent basis, Debye-Ang):
   XX=            -20.9798   YY=            -17.7401   ZZ=            -17.7673
   XY=              0.0380   XZ=             -0.0498   YZ=              0.0043

 Normal termination of Gaussian 09 at Wed Aug 26 14:03:20 2020.
