 Gaussian 09, Revision D.01,
 Gaussian 09:  ES64L-G09RevD.01 24-Apr-2013

 --------------------
 #p B2PLYPD3/Def2QZVP
 --------------------

 ------------
 cyanomethane
 ------------
 Symbolic Z-matrix:
 Charge =  0 Multiplicity = 1

                         Standard orientation:
 ---------------------------------------------------------------------
 Center     Atomic      Atomic             Coordinates (Angstroms)
 Number     Number       Type             X           Y           Z
 ---------------------------------------------------------------------
      1          6           0        1.183751   -0.003756   -0.003394
      2          6           0       -0.278492    0.011210    0.010563
      3          7           0       -1.438943   -0.002014   -0.003237
      4          1           0        1.560782   -0.276406    0.969680
      5          1           0        1.585465    0.983293   -0.269045
      6          1           0        1.494806   -0.737513   -0.720995
 ---------------------------------------------------------------------

 SCF Done:  E(RB2PLYPD3) =  -132.534910080     A.U. after   12 cycles
 E2(B2PLYPD3) =    -0.1809001901D+00 E(B2PLYPD3) =    -0.13271581026992D+03

 The electronic state is 1-A.
 Alpha  occ. eigenvalues --  -14.84348 -10.67020 -10.66438  -1.03851  -0.89322
 Alpha  occ. eigenvalues --   -0.59634  -0.54403  -0.53824  -0.44780  -0.38950
 Alpha  occ. eigenvalues --   -0.38933
 Alpha virt. eigenvalues --    0.03779   0.07789   0.08060   0.10195   0.11338
 Alpha virt. eigenvalues --    0.11359   0.15331   0.16123   0.16411   0.20109
 Alpha virt. eigenvalues --    0.20126   0.25246   0.32595   0.34665   0.34804

 Mulliken charges:
               1
     1  C   -0.083468
     2  C   -0.001113
     3  N   -0.209305
     4  H    0.096842
     5  H    0.096727
     6  H    0.100317
 Sum of Mulliken charges =   0.00000

 Dipole moment (field-independent basis, Debye):
    X=              4.1418    Y=             -0.0084    Z=              0.0074  Tot=              4.1418
 Quadrupole moment (field-independent basis, Debye-Ang):
   XX=            -21.0169   YY=            -17.7305   ZZ=            -17.7892
   XY=              0.0257   XZ=              0.0259   YZ=              0.0181

 Normal termination of Gaussian 09 at Thu Aug 27 00:00:20 2020.
