 Gaussian 09, Revision D.01,
 Gaussian 09:  ES64L-G09RevD.01 24-Apr-2013

 --------------------
 #p B2PLYPD3/Def2QZVP
 --------------------

 ------------
 cyanomethane
 ------------
 Symbolic Z-matrix:
 Charge =  0 Multiplicity = 1

                         Standard orientation:
 ---------------------------------------------------------------------
 Center     Atomic      Atomic             Coordinates (Angstroms)
 Number     Number       Type             X           Y           Z
 ---------------------------------------------------------------------
      1          6           0        1.167348    0.009674    0.000707
      2          6           0       -0.264530   -0.002749   -0.037615
      3          7           0       -1.434033   -0.003301    0.017952
      4          1           0        1.492145    1.053379    0.029583
      5          1           0        1.583179   -0.538263   -0.831962
      6          1           0        1.546001   -0.533561    0.898159
 ---------------------------------------------------------------------

 SCF Done:  E(RB2PLYPD3) =  -132.531799227     A.U. after   11 cycles
 E2(B2PLYPD3) =    -0.1820331858D+00 E(B2PLYPD3) =    -0.13271383241319D+03

 The electronic state is 1-A.
 Alpha  occ. eigenvalues --  -14.84592 -10.67138 -10.66596  -1.03526  -0.89604
 Alpha  occ. eigenvalues --   -0.60117  -0.54891  -0.53058  -0.44851  -0.38633
 Alpha  occ. eigenvalues --   -0.38391
 Alpha virt. eigenvalues --    0.03659   0.07166   0.07687   0.10095   0.11214
 Alpha virt. eigenvalues --    0.11613   0.15439   0.16113   0.16336   0.20112
 Alpha virt. eigenvalues --    0.20236   0.25825   0.32786   0.33955   0.34803

 Mulliken charges:
               1
     1  C   -0.084372
     2  C    0.002603
     3  N   -0.214319
     4  H    0.103701
     5  H    0.097090
     6  H    0.095296
 Sum of Mulliken charges =   0.00000

 Dipole moment (field-independent basis, Debye):
    X=              4.1387    Y=             -0.0183    Z=             -0.0169  Tot=              4.1388
 Quadrupole moment (field-independent basis, Debye-Ang):
   XX=            -21.0655   YY=            -17.6181   ZZ=            -17.9428
   XY=             -0.1474   XZ=              0.0850   YZ=              0.0295

 Normal termination of Gaussian 09 at Wed Aug 26 11:06:33 2020.
