 Gaussian 09, Revision D.01,
 Gaussian 09:  ES64L-G09RevD.01 24-Apr-2013

 --------------------
 #p B2PLYPD3/Def2QZVP
 --------------------

 ------------
 cyanomethane
 ------------
 Symbolic Z-matrix:
 Charge =  0 Multiplicity = 1

                         Standard orientation:
 ---------------------------------------------------------------------
 Center     Atomic      Atomic             Coordinates (Angstroms)
 Number     Number       Type             X           Y           Z
 ---------------------------------------------------------------------
      1          6           0       -1.191744    0.001783    0.011923
      2          6           0        0.277801   -0.000118    0.043895
      3          7           0        1.446343    0.012136   -0.030760
      4          1           0       -1.408583   -0.393680    0.911786
      5          1           0       -1.514168   -0.741905   -0.804895
      6          1           0       -1.717991    1.040644   -0.226482
 ---------------------------------------------------------------------

 SCF Done:  E(RB2PLYPD3) =  -132.515989770     A.U. after   12 cycles
 E2(B2PLYPD3) =    -0.1825848870D+00 E(B2PLYPD3) =    -0.13269857465691D+03

 The electronic state is 1-A.
 Alpha  occ. eigenvalues --  -14.84670 -10.68032 -10.66806  -1.03460  -0.89032
 Alpha  occ. eigenvalues --   -0.58730  -0.55292  -0.51796  -0.44794  -0.38773
 Alpha  occ. eigenvalues --   -0.38448
 Alpha virt. eigenvalues --    0.03229   0.06284   0.08673   0.10095   0.10949
 Alpha virt. eigenvalues --    0.11562   0.15046   0.15240   0.17157   0.20078
 Alpha virt. eigenvalues --    0.20297   0.25173   0.31560   0.33043   0.34713

 Mulliken charges:
               1
     1  C   -0.105269
     2  C    0.003270
     3  N   -0.213214
     4  H    0.113754
     5  H    0.098805
     6  H    0.102654
 Sum of Mulliken charges =   0.00000

 Dipole moment (field-independent basis, Debye):
    X=             -4.1316    Y=             -0.0566    Z=              0.0473  Tot=              4.1323
 Quadrupole moment (field-independent basis, Debye-Ang):
   XX=            -21.1675   YY=            -17.7413   ZZ=            -17.8949
   XY=             -0.1791   XZ=              0.2686   YZ=             -0.0909

 Normal termination of Gaussian 09 at Wed Aug 26 22:04:33 2020.
