 Gaussian 09, Revision D.01,
 Gaussian 09:  ES64L-G09RevD.01 24-Apr-2013

 --------------------
 #p B2PLYPD3/Def2QZVP
 --------------------

 ------------
 cyanomethane
 ------------
 Symbolic Z-matrix:
 Charge =  0 Multiplicity = 1

                         Standard orientation:
 ---------------------------------------------------------------------
 Center     Atomic      Atomic             Coordinates (Angstroms)
 Number     Number       Type             X           Y           Z
 ---------------------------------------------------------------------
      1          6           0        1.179027   -0.000563    0.007739
      2          6           0       -0.285833   -0.058450   -0.007750
      3          7           0       -1.414478    0.018277    0.009802
      4          1           0        1.581586    0.213261    1.000913
      5          1           0        1.343260    0.997533   -0.640935
      6          1           0        1.617339   -0.984656   -0.428528
 ---------------------------------------------------------------------

 SCF Done:  E(RB2PLYPD3) =  -132.521041330     A.U. after   12 cycles
 E2(B2PLYPD3) =    -0.1795839786D+00 E(B2PLYPD3) =    -0.13270062530908D+03

 The electronic state is 1-A.
 Alpha  occ. eigenvalues --  -14.83346 -10.69021 -10.65478  -1.04945  -0.87887
 Alpha  occ. eigenvalues --   -0.58470  -0.53522  -0.51805  -0.44512  -0.39567
 Alpha  occ. eigenvalues --   -0.39015
 Alpha virt. eigenvalues --    0.03241   0.07577   0.07692   0.10222   0.11614
 Alpha virt. eigenvalues --    0.12289   0.14925   0.15641   0.16681   0.19865
 Alpha virt. eigenvalues --    0.20124   0.25278   0.31399   0.32459   0.34455

 Mulliken charges:
               1
     1  C   -0.127403
     2  C   -0.001098
     3  N   -0.193947
     4  H    0.107420
     5  H    0.106301
     6  H    0.108726
 Sum of Mulliken charges =   0.00000

 Dipole moment (field-independent basis, Debye):
    X=              4.0320    Y=             -0.0039    Z=              0.0287  Tot=              4.0321
 Quadrupole moment (field-independent basis, Debye-Ang):
   XX=            -21.5054   YY=            -17.4014   ZZ=            -17.9019
   XY=             -0.0590   XZ=              0.2793   YZ=              0.0634

 Normal termination of Gaussian 09 at Wed Aug 26 21:23:16 2020.
