 Gaussian 09, Revision D.01,
 Gaussian 09:  ES64L-G09RevD.01 24-Apr-2013

 --------------------
 #p B2PLYPD3/Def2QZVP
 --------------------

 ------------
 cyanomethane
 ------------
 Symbolic Z-matrix:
 Charge =  0 Multiplicity = 1

                         Standard orientation:
 ---------------------------------------------------------------------
 Center     Atomic      Atomic             Coordinates (Angstroms)
 Number     Number       Type             X           Y           Z
 ---------------------------------------------------------------------
      1          6           0        1.190484    0.028709   -0.024032
      2          6           0       -0.288089   -0.046868   -0.003362
      3          7           0       -1.436431    0.010207    0.013722
      4          1           0        1.678522    0.036280    1.003125
      5          1           0        1.351646    0.951604   -0.485077
      6          1           0        1.610481   -0.950381   -0.449737
 ---------------------------------------------------------------------

 SCF Done:  E(RB2PLYPD3) =  -132.523781338     A.U. after   12 cycles
 E2(B2PLYPD3) =    -0.1806532538D+00 E(B2PLYPD3) =    -0.13270443459230D+03

 The electronic state is 1-A.
 Alpha  occ. eigenvalues --  -14.84036 -10.67999 -10.66176  -1.04253  -0.88604
 Alpha  occ. eigenvalues --   -0.58829  -0.56022  -0.50921  -0.44668  -0.39388
 Alpha  occ. eigenvalues --   -0.38844
 Alpha virt. eigenvalues --    0.03557   0.07002   0.08422   0.10273   0.11212
 Alpha virt. eigenvalues --    0.11808   0.14835   0.16200   0.16514   0.19905
 Alpha virt. eigenvalues --    0.20165   0.25075   0.31994   0.32840   0.35701

 Mulliken charges:
               1
     1  C   -0.096401
     2  C   -0.002208
     3  N   -0.204044
     4  H    0.088580
     5  H    0.114689
     6  H    0.099385
 Sum of Mulliken charges =   0.00000

 Dipole moment (field-independent basis, Debye):
    X=              4.1155    Y=             -0.0177    Z=              0.0278  Tot=              4.1156
 Quadrupole moment (field-independent basis, Debye-Ang):
   XX=            -21.1260   YY=            -17.4221   ZZ=            -18.1354
   XY=             -0.1748   XZ=              0.3704   YZ=             -0.1067

 Normal termination of Gaussian 09 at Wed Aug 26 21:52:38 2020.
