 Gaussian 09, Revision D.01,
 Gaussian 09:  ES64L-G09RevD.01 24-Apr-2013

 --------------------
 #p B2PLYPD3/Def2QZVP
 --------------------

 ------------
 cyanomethane
 ------------
 Symbolic Z-matrix:
 Charge =  0 Multiplicity = 1

                         Standard orientation:
 ---------------------------------------------------------------------
 Center     Atomic      Atomic             Coordinates (Angstroms)
 Number     Number       Type             X           Y           Z
 ---------------------------------------------------------------------
      1          6           0        1.150844    0.039149   -0.007067
      2          6           0       -0.253487    0.018399   -0.047094
      3          7           0       -1.432329   -0.025836    0.021591
      4          1           0        1.391072    1.021472    0.154009
      5          1           0        1.658136   -0.509766   -0.800292
      6          1           0        1.592952   -0.676143    0.820113
 ---------------------------------------------------------------------

 SCF Done:  E(RB2PLYPD3) =  -132.513570696     A.U. after   12 cycles
 E2(B2PLYPD3) =    -0.1835262350D+00 E(B2PLYPD3) =    -0.13269709693139D+03

 The electronic state is 1-A.
 Alpha  occ. eigenvalues --  -14.84884 -10.66931 -10.66813  -1.03239  -0.90334
 Alpha  occ. eigenvalues --   -0.61290  -0.57275  -0.50571  -0.44954  -0.38518
 Alpha  occ. eigenvalues --   -0.37497
 Alpha virt. eigenvalues --    0.03258   0.06174   0.07782   0.09998   0.10790
 Alpha virt. eigenvalues --    0.12166   0.15283   0.16208   0.16908   0.19979
 Alpha virt. eigenvalues --    0.20474   0.26295   0.32236   0.32971   0.35912

 Mulliken charges:
               1
     1  C   -0.072622
     2  C    0.006257
     3  N   -0.219417
     4  H    0.110071
     5  H    0.093026
     6  H    0.082684
 Sum of Mulliken charges =   0.00000

 Dipole moment (field-independent basis, Debye):
    X=              4.1741    Y=             -0.0404    Z=             -0.0271  Tot=              4.1743
 Quadrupole moment (field-independent basis, Debye-Ang):
   XX=            -20.8917   YY=            -17.4096   ZZ=            -18.3322
   XY=             -0.5479   XZ=              0.0629   YZ=              0.1341

 Normal termination of Gaussian 09 at Wed Aug 26 18:46:23 2020.
