 Gaussian 09, Revision D.01,
 Gaussian 09:  ES64L-G09RevD.01 24-Apr-2013

 --------------------
 #p B2PLYPD3/Def2QZVP
 --------------------

 ------------
 cyanomethane
 ------------
 Symbolic Z-matrix:
 Charge =  0 Multiplicity = 1

                         Standard orientation:
 ---------------------------------------------------------------------
 Center     Atomic      Atomic             Coordinates (Angstroms)
 Number     Number       Type             X           Y           Z
 ---------------------------------------------------------------------
      1          6           0        1.182629    0.006024   -0.001921
      2          6           0       -0.280648   -0.010385   -0.017322
      3          7           0       -1.429734    0.004687    0.010695
      4          1           0        1.550929   -0.406740    0.921520
      5          1           0        1.527908    0.991261   -0.093095
      6          1           0        1.517419   -0.591168   -0.787830
 ---------------------------------------------------------------------

 SCF Done:  E(RB2PLYPD3) =  -132.533983925     A.U. after   11 cycles
 E2(B2PLYPD3) =    -0.1796030124D+00 E(B2PLYPD3) =    -0.13271358693690D+03

 The electronic state is 1-A.
 Alpha  occ. eigenvalues --  -14.83988 -10.66127 -10.66026  -1.04273  -0.89943
 Alpha  occ. eigenvalues --   -0.59721  -0.55374  -0.54210  -0.44703  -0.39315
 Alpha  occ. eigenvalues --   -0.39195
 Alpha virt. eigenvalues --    0.03908   0.08275   0.08719   0.10216   0.11299
 Alpha virt. eigenvalues --    0.11485   0.15448   0.16083   0.16531   0.20050
 Alpha virt. eigenvalues --    0.20111   0.25247   0.32977   0.34881   0.35452

 Mulliken charges:
               1
     1  C   -0.075786
     2  C   -0.004518
     3  N   -0.204835
     4  H    0.092528
     5  H    0.096669
     6  H    0.095943
 Sum of Mulliken charges =   0.00000

 Dipole moment (field-independent basis, Debye):
    X=              4.1292    Y=             -0.0114    Z=             -0.0150  Tot=              4.1292
 Quadrupole moment (field-independent basis, Debye-Ang):
   XX=            -20.9569   YY=            -17.6431   ZZ=            -17.7138
   XY=              0.0111   XZ=              0.0874   YZ=              0.0241

 Normal termination of Gaussian 09 at Thu Aug 27 00:14:51 2020.
