 Gaussian 09, Revision D.01,
 Gaussian 09:  ES64L-G09RevD.01 24-Apr-2013

 --------------------
 #p B2PLYPD3/Def2QZVP
 --------------------

 ------------
 cyanomethane
 ------------
 Symbolic Z-matrix:
 Charge =  0 Multiplicity = 1

                         Standard orientation:
 ---------------------------------------------------------------------
 Center     Atomic      Atomic             Coordinates (Angstroms)
 Number     Number       Type             X           Y           Z
 ---------------------------------------------------------------------
      1          6           0       -1.176802    0.003098    0.007797
      2          6           0        0.275890    0.007535    0.016263
      3          7           0        1.428595   -0.005523   -0.012898
      4          1           0       -1.490778   -0.326269    0.960762
      5          1           0       -1.578535   -0.706836   -0.778520
      6          1           0       -1.525382    1.007963   -0.236316
 ---------------------------------------------------------------------

 SCF Done:  E(RB2PLYPD3) =  -132.533320960     A.U. after   12 cycles
 E2(B2PLYPD3) =    -0.1804013653D+00 E(B2PLYPD3) =    -0.13271372232498D+03

 The electronic state is 1-A.
 Alpha  occ. eigenvalues --  -14.84066 -10.67199 -10.66098  -1.04138  -0.89335
 Alpha  occ. eigenvalues --   -0.59280  -0.55143  -0.53057  -0.44708  -0.39119
 Alpha  occ. eigenvalues --   -0.38897
 Alpha virt. eigenvalues --    0.03691   0.07529   0.08408   0.10173   0.11335
 Alpha virt. eigenvalues --    0.11647   0.15391   0.15938   0.16413   0.20060
 Alpha virt. eigenvalues --    0.20138   0.25411   0.32672   0.33985   0.35022

 Mulliken charges:
               1
     1  C   -0.092191
     2  C   -0.002621
     3  N   -0.206114
     4  H    0.103933
     5  H    0.095519
     6  H    0.101476
 Sum of Mulliken charges =   0.00000

 Dipole moment (field-independent basis, Debye):
    X=             -4.1101    Y=              0.0067    Z=              0.0226  Tot=              4.1102
 Quadrupole moment (field-independent basis, Debye-Ang):
   XX=            -21.1486   YY=            -17.6986   ZZ=            -17.7099
   XY=              0.0591   XZ=              0.1286   YZ=             -0.0676

 Normal termination of Gaussian 09 at Thu Aug 27 00:13:57 2020.
