 Gaussian 09, Revision D.01,
 Gaussian 09:  ES64L-G09RevD.01 24-Apr-2013

 --------------------
 #p B2PLYPD3/Def2QZVP
 --------------------

 ------------
 cyanomethane
 ------------
 Symbolic Z-matrix:
 Charge =  0 Multiplicity = 1

                         Standard orientation:
 ---------------------------------------------------------------------
 Center     Atomic      Atomic             Coordinates (Angstroms)
 Number     Number       Type             X           Y           Z
 ---------------------------------------------------------------------
      1          6           0        1.183804   -0.006266   -0.003302
      2          6           0       -0.278030   -0.010739    0.018200
      3          7           0       -1.436660    0.008844   -0.010307
      4          1           0        1.525753    0.027743    1.005225
      5          1           0        1.578474    0.896249   -0.522399
      6          1           0        1.517747   -0.883877   -0.500067
 ---------------------------------------------------------------------

 SCF Done:  E(RB2PLYPD3) =  -132.533962026     A.U. after   12 cycles
 E2(B2PLYPD3) =    -0.1807553527D+00 E(B2PLYPD3) =    -0.13271471737880D+03

 The electronic state is 1-A.
 Alpha  occ. eigenvalues --  -14.84287 -10.66923 -10.66358  -1.03901  -0.89426
 Alpha  occ. eigenvalues --   -0.59521  -0.55022  -0.53477  -0.44756  -0.39042
 Alpha  occ. eigenvalues --   -0.38889
 Alpha virt. eigenvalues --    0.03752   0.07693   0.08349   0.10180   0.11229
 Alpha virt. eigenvalues --    0.11460   0.15359   0.15940   0.16517   0.20086
 Alpha virt. eigenvalues --    0.20145   0.25266   0.32665   0.34348   0.35117

 Mulliken charges:
               1
     1  C   -0.084285
     2  C   -0.001948
     3  N   -0.208799
     4  H    0.098407
     5  H    0.095306
     6  H    0.101318
 Sum of Mulliken charges =   0.00000

 Dipole moment (field-independent basis, Debye):
    X=              4.1348    Y=             -0.0129    Z=              0.0245  Tot=              4.1349
 Quadrupole moment (field-independent basis, Debye-Ang):
   XX=            -21.0460   YY=            -17.7158   ZZ=            -17.7620
   XY=              0.0960   XZ=             -0.0515   YZ=              0.0494

 Normal termination of Gaussian 09 at Wed Aug 26 10:09:48 2020.
