 Gaussian 09, Revision D.01,
 Gaussian 09:  ES64L-G09RevD.01 24-Apr-2013

 --------------------
 #p B2PLYPD3/Def2QZVP
 --------------------

 ------------
 cyanomethane
 ------------
 Symbolic Z-matrix:
 Charge =  0 Multiplicity = 1

                         Standard orientation:
 ---------------------------------------------------------------------
 Center     Atomic      Atomic             Coordinates (Angstroms)
 Number     Number       Type             X           Y           Z
 ---------------------------------------------------------------------
      1          6           0        1.190574    0.005510    0.005811
      2          6           0       -0.275772    0.032019    0.003810
      3          7           0       -1.437089   -0.011445   -0.000735
      4          1           0        1.534187   -0.236864    0.955825
      5          1           0        1.588860    0.914094   -0.347729
      6          1           0        1.447769   -0.822291   -0.660684
 ---------------------------------------------------------------------

 SCF Done:  E(RB2PLYPD3) =  -132.532156724     A.U. after   12 cycles
 E2(B2PLYPD3) =    -0.1807964494D+00 E(B2PLYPD3) =    -0.13271295317381D+03

 The electronic state is 1-A.
 Alpha  occ. eigenvalues --  -14.84303 -10.66458 -10.66399  -1.03743  -0.89843
 Alpha  occ. eigenvalues --   -0.59594  -0.55526  -0.54014  -0.44695  -0.39054
 Alpha  occ. eigenvalues --   -0.38754
 Alpha virt. eigenvalues --    0.03839   0.08178   0.08331   0.10218   0.11056
 Alpha virt. eigenvalues --    0.11463   0.15271   0.15792   0.16491   0.20079
 Alpha virt. eigenvalues --    0.20197   0.25162   0.32698   0.34186   0.35675

 Mulliken charges:
               1
     1  C   -0.082727
     2  C   -0.001936
     3  N   -0.211461
     4  H    0.098877
     5  H    0.099923
     6  H    0.097323
 Sum of Mulliken charges =   0.00000

 Dipole moment (field-independent basis, Debye):
    X=              4.1470    Y=             -0.0078    Z=              0.0042  Tot=              4.1470
 Quadrupole moment (field-independent basis, Debye-Ang):
   XX=            -21.0664   YY=            -17.6504   ZZ=            -17.7744
   XY=             -0.0116   XZ=              0.0368   YZ=             -0.0480

 Normal termination of Gaussian 09 at Wed Aug 26 16:05:01 2020.
