 Gaussian 09, Revision D.01,
 Gaussian 09:  ES64L-G09RevD.01 24-Apr-2013

 --------------------
 #p B2PLYPD3/Def2QZVP
 --------------------

 ------------
 cyanomethane
 ------------
 Symbolic Z-matrix:
 Charge =  0 Multiplicity = 1

                         Standard orientation:
 ---------------------------------------------------------------------
 Center     Atomic      Atomic             Coordinates (Angstroms)
 Number     Number       Type             X           Y           Z
 ---------------------------------------------------------------------
      1          6           0       -1.173100    0.013084    0.001375
      2          6           0        0.270519   -0.027640   -0.003504
      3          7           0        1.431010    0.015559   -0.002676
      4          1           0       -1.464934   -0.301374    0.945638
      5          1           0       -1.555594   -0.707215   -0.700531
      6          1           0       -1.581055    0.987017   -0.213606
 ---------------------------------------------------------------------

 SCF Done:  E(RB2PLYPD3) =  -132.532383592     A.U. after   12 cycles
 E2(B2PLYPD3) =    -0.1807768714D+00 E(B2PLYPD3) =    -0.13271316046374D+03

 The electronic state is 1-A.
 Alpha  occ. eigenvalues --  -14.84321 -10.66349 -10.66199  -1.03873  -0.90147
 Alpha  occ. eigenvalues --   -0.60162  -0.55013  -0.54293  -0.44793  -0.38935
 Alpha  occ. eigenvalues --   -0.38803
 Alpha virt. eigenvalues --    0.03848   0.07715   0.08418   0.10128   0.11347
 Alpha virt. eigenvalues --    0.11448   0.15534   0.15667   0.16941   0.20141
 Alpha virt. eigenvalues --    0.20175   0.25651   0.32943   0.34837   0.35156

 Mulliken charges:
               1
     1  C   -0.075963
     2  C   -0.000064
     3  N   -0.210951
     4  H    0.096835
     5  H    0.092499
     6  H    0.097644
 Sum of Mulliken charges =   0.00000

 Dipole moment (field-independent basis, Debye):
    X=             -4.1405    Y=             -0.0433    Z=              0.0246  Tot=              4.1408
 Quadrupole moment (field-independent basis, Debye-Ang):
   XX=            -20.9487   YY=            -17.6421   ZZ=            -17.8055
   XY=             -0.0714   XZ=              0.0427   YZ=             -0.0270

 Normal termination of Gaussian 09 at Wed Aug 26 16:20:28 2020.
