 Gaussian 09, Revision D.01,
 Gaussian 09:  ES64L-G09RevD.01 24-Apr-2013

 --------------------
 #p B2PLYPD3/Def2QZVP
 --------------------

 ------------
 cyanomethane
 ------------
 Symbolic Z-matrix:
 Charge =  0 Multiplicity = 1

                         Standard orientation:
 ---------------------------------------------------------------------
 Center     Atomic      Atomic             Coordinates (Angstroms)
 Number     Number       Type             X           Y           Z
 ---------------------------------------------------------------------
      1          6           0        1.191958   -0.019021    0.008866
      2          6           0       -0.285943    0.028427   -0.061770
      3          7           0       -1.437060   -0.016436    0.036486
      4          1           0        1.608258    0.026512    1.035597
      5          1           0        1.469648    0.960390   -0.484713
      6          1           0        1.545431   -0.928287   -0.488862
 ---------------------------------------------------------------------

 SCF Done:  E(RB2PLYPD3) =  -132.528398557     A.U. after   12 cycles
 E2(B2PLYPD3) =    -0.1812014401D+00 E(B2PLYPD3) =    -0.13270959999661D+03

 The electronic state is 1-A.
 Alpha  occ. eigenvalues --  -14.84259 -10.68058 -10.66358  -1.04012  -0.88382
 Alpha  occ. eigenvalues --   -0.59010  -0.54485  -0.52140  -0.44738  -0.39175
 Alpha  occ. eigenvalues --   -0.38786
 Alpha virt. eigenvalues --    0.03482   0.07183   0.08217   0.09998   0.11151
 Alpha virt. eigenvalues --    0.11585   0.15161   0.15421   0.17060   0.20003
 Alpha virt. eigenvalues --    0.20160   0.25285   0.32314   0.33439   0.34802

 Mulliken charges:
               1
     1  C   -0.102093
     2  C    0.002122
     3  N   -0.205968
     4  H    0.099471
     5  H    0.099432
     6  H    0.107036
 Sum of Mulliken charges =   0.00000

 Dipole moment (field-independent basis, Debye):
    X=              4.0901    Y=              0.0326    Z=             -0.0249  Tot=              4.0903
 Quadrupole moment (field-independent basis, Debye-Ang):
   XX=            -21.2297   YY=            -17.5775   ZZ=            -17.9428
   XY=             -0.1284   XZ=              0.3548   YZ=              0.0623

 Normal termination of Gaussian 09 at Wed Aug 26 23:39:41 2020.
