 Gaussian 09, Revision D.01,
 Gaussian 09:  ES64L-G09RevD.01 24-Apr-2013

 --------------------
 #p B2PLYPD3/Def2QZVP
 --------------------

 ------------
 cyanomethane
 ------------
 Symbolic Z-matrix:
 Charge =  0 Multiplicity = 1

                         Standard orientation:
 ---------------------------------------------------------------------
 Center     Atomic      Atomic             Coordinates (Angstroms)
 Number     Number       Type             X           Y           Z
 ---------------------------------------------------------------------
      1          6           0        1.173391   -0.000469   -0.004108
      2          6           0       -0.283667    0.010346   -0.005804
      3          7           0       -1.437325   -0.002960    0.001621
      4          1           0        1.575574   -0.639410   -0.827329
      5          1           0        1.537636   -0.434634    0.976207
      6          1           0        1.609724    1.035505   -0.100751
 ---------------------------------------------------------------------

 SCF Done:  E(RB2PLYPD3) =  -132.532448956     A.U. after   12 cycles
 E2(B2PLYPD3) =    -0.1809305285D+00 E(B2PLYPD3) =    -0.13271337948416D+03

 The electronic state is 1-A.
 Alpha  occ. eigenvalues --  -14.84260 -10.68201 -10.66348  -1.04196  -0.88379
 Alpha  occ. eigenvalues --   -0.59562  -0.53133  -0.52756  -0.44863  -0.39083
 Alpha  occ. eigenvalues --   -0.38969
 Alpha virt. eigenvalues --    0.03554   0.07355   0.07456   0.10164   0.11520
 Alpha virt. eigenvalues --    0.11649   0.15344   0.16240   0.16656   0.20058
 Alpha virt. eigenvalues --    0.20084   0.25354   0.32385   0.33815   0.34328

 Mulliken charges:
               1
     1  C   -0.092891
     2  C    0.001427
     3  N   -0.203907
     4  H    0.099567
     5  H    0.097698
     6  H    0.098106
 Sum of Mulliken charges =   0.00000

 Dipole moment (field-independent basis, Debye):
    X=              4.1161    Y=             -0.0040    Z=              0.0034  Tot=              4.1161
 Quadrupole moment (field-independent basis, Debye-Ang):
   XX=            -21.0178   YY=            -17.7995   ZZ=            -17.8370
   XY=              0.0056   XZ=             -0.0077   YZ=              0.0164

 Normal termination of Gaussian 09 at Wed Aug 26 15:45:23 2020.
