 Gaussian 09, Revision D.01,
 Gaussian 09:  ES64L-G09RevD.01 24-Apr-2013

 --------------------
 #p B2PLYPD3/Def2QZVP
 --------------------

 ------------
 cyanomethane
 ------------
 Symbolic Z-matrix:
 Charge =  0 Multiplicity = 1

                         Standard orientation:
 ---------------------------------------------------------------------
 Center     Atomic      Atomic             Coordinates (Angstroms)
 Number     Number       Type             X           Y           Z
 ---------------------------------------------------------------------
      1          6           0        1.171541    0.011661    0.006974
      2          6           0       -0.278562   -0.043864   -0.055725
      3          7           0       -1.453428    0.034100    0.031791
      4          1           0        1.453663   -0.643386   -0.696389
      5          1           0        1.590423   -0.371199    0.905372
      6          1           0        1.772037    0.969101   -0.139012
 ---------------------------------------------------------------------

 SCF Done:  E(RB2PLYPD3) =  -132.515167496     A.U. after   13 cycles
 E2(B2PLYPD3) =    -0.1832164298D+00 E(B2PLYPD3) =    -0.13269838392529D+03

 The electronic state is 1-A.
 Alpha  occ. eigenvalues --  -14.85270 -10.67368 -10.66336  -1.03357  -0.90041
 Alpha  occ. eigenvalues --   -0.61591  -0.54777  -0.52235  -0.45220  -0.38615
 Alpha  occ. eigenvalues --   -0.38573
 Alpha virt. eigenvalues --    0.03324   0.06306   0.08186   0.09728   0.11285
 Alpha virt. eigenvalues --    0.11550   0.15250   0.15874   0.18200   0.20029
 Alpha virt. eigenvalues --    0.20952   0.25838   0.32436   0.34493   0.35091

 Mulliken charges:
               1
     1  C   -0.065728
     2  C    0.015000
     3  N   -0.215180
     4  H    0.093249
     5  H    0.084084
     6  H    0.088575
 Sum of Mulliken charges =   0.00000

 Dipole moment (field-independent basis, Debye):
    X=              4.1755    Y=             -0.1138    Z=             -0.0365  Tot=              4.1772
 Quadrupole moment (field-independent basis, Debye-Ang):
   XX=            -20.4078   YY=            -17.9138   ZZ=            -18.0592
   XY=              0.2149   XZ=              0.2360   YZ=              0.0522

 Normal termination of Gaussian 09 at Wed Aug 26 23:38:14 2020.
