 Gaussian 09, Revision D.01,
 Gaussian 09:  ES64L-G09RevD.01 24-Apr-2013

 --------------------
 #p B2PLYPD3/Def2QZVP
 --------------------

 ------------
 cyanomethane
 ------------
 Symbolic Z-matrix:
 Charge =  0 Multiplicity = 1

                         Standard orientation:
 ---------------------------------------------------------------------
 Center     Atomic      Atomic             Coordinates (Angstroms)
 Number     Number       Type             X           Y           Z
 ---------------------------------------------------------------------
      1          6           0       -1.175907    0.000630   -0.004013
      2          6           0        0.277597    0.009928   -0.014452
      3          7           0        1.437552   -0.003719    0.004567
      4          1           0       -1.581713   -0.654380   -0.775974
      5          1           0       -1.585445    1.011244   -0.120855
      6          1           0       -1.505849   -0.394171    0.975649
 ---------------------------------------------------------------------

 SCF Done:  E(RB2PLYPD3) =  -132.534650052     A.U. after   12 cycles
 E2(B2PLYPD3) =    -0.1810800837D+00 E(B2PLYPD3) =    -0.13271573013531D+03

 The electronic state is 1-A.
 Alpha  occ. eigenvalues --  -14.84374 -10.67367 -10.66451  -1.03914  -0.89097
 Alpha  occ. eigenvalues --   -0.59862  -0.53946  -0.53415  -0.44838  -0.38977
 Alpha  occ. eigenvalues --   -0.38819
 Alpha virt. eigenvalues --    0.03705   0.07659   0.07672   0.10166   0.11348
 Alpha virt. eigenvalues --    0.11548   0.15396   0.16102   0.16620   0.20091
 Alpha virt. eigenvalues --    0.20139   0.25413   0.32621   0.34146   0.34832

 Mulliken charges:
               1
     1  C   -0.084567
     2  C    0.000674
     3  N   -0.208479
     4  H    0.097858
     5  H    0.097768
     6  H    0.096745
 Sum of Mulliken charges =   0.00000

 Dipole moment (field-independent basis, Debye):
    X=             -4.1359    Y=             -0.0037    Z=              0.0058  Tot=              4.1359
 Quadrupole moment (field-independent basis, Debye-Ang):
   XX=            -20.9907   YY=            -17.7528   ZZ=            -17.8274
   XY=              0.0149   XZ=              0.0046   YZ=              0.0147

 Normal termination of Gaussian 09 at Thu Aug 27 00:14:04 2020.
