 Gaussian 09, Revision D.01,
 Gaussian 09:  ES64L-G09RevD.01 24-Apr-2013

 --------------------
 #p B2PLYPD3/Def2QZVP
 --------------------

 ------------
 cyanomethane
 ------------
 Symbolic Z-matrix:
 Charge =  0 Multiplicity = 1

                         Standard orientation:
 ---------------------------------------------------------------------
 Center     Atomic      Atomic             Coordinates (Angstroms)
 Number     Number       Type             X           Y           Z
 ---------------------------------------------------------------------
      1          6           0        1.175139   -0.004442    0.019053
      2          6           0       -0.275458   -0.011420   -0.063574
      3          7           0       -1.452795    0.013386    0.025417
      4          1           0        1.694157    1.090935   -0.223337
      5          1           0        1.587529   -0.783405   -0.697768
      6          1           0        1.489791   -0.306061    1.010316
 ---------------------------------------------------------------------

 SCF Done:  E(RB2PLYPD3) =  -132.517559218     A.U. after   12 cycles
 E2(B2PLYPD3) =    -0.1839384711D+00 E(B2PLYPD3) =    -0.13270149768899D+03

 The electronic state is 1-A.
 Alpha  occ. eigenvalues --  -14.85147 -10.68927 -10.67240  -1.03224  -0.88172
 Alpha  occ. eigenvalues --   -0.59720  -0.53140  -0.51527  -0.45063  -0.38416
 Alpha  occ. eigenvalues --   -0.38306
 Alpha virt. eigenvalues --    0.03088   0.05945   0.06956   0.10034   0.11236
 Alpha virt. eigenvalues --    0.11499   0.15324   0.15781   0.16891   0.20093
 Alpha virt. eigenvalues --    0.20229   0.25652   0.30824   0.33090   0.34396

 Mulliken charges:
               1
     1  C   -0.098121
     2  C    0.010106
     3  N   -0.214257
     4  H    0.095873
     5  H    0.098588
     6  H    0.107811
 Sum of Mulliken charges =   0.00000

 Dipole moment (field-independent basis, Debye):
    X=              4.1202    Y=             -0.0701    Z=              0.0124  Tot=              4.1208
 Quadrupole moment (field-independent basis, Debye-Ang):
   XX=            -21.0633   YY=            -17.8176   ZZ=            -18.0690
   XY=              0.0704   XZ=              0.1247   YZ=             -0.0077

 Normal termination of Gaussian 09 at Wed Aug 26 21:27:19 2020.
