 Gaussian 09, Revision D.01,
 Gaussian 09:  ES64L-G09RevD.01 24-Apr-2013

 --------------------
 #p B2PLYPD3/Def2QZVP
 --------------------

 ------------
 cyanomethane
 ------------
 Symbolic Z-matrix:
 Charge =  0 Multiplicity = 1

                         Standard orientation:
 ---------------------------------------------------------------------
 Center     Atomic      Atomic             Coordinates (Angstroms)
 Number     Number       Type             X           Y           Z
 ---------------------------------------------------------------------
      1          6           0       -1.185435   -0.012507   -0.008563
      2          6           0        0.276605    0.027417    0.018172
      3          7           0        1.429601   -0.012794   -0.011381
      4          1           0       -1.478941   -0.164107    0.956272
      5          1           0       -1.539632   -0.763532   -0.602521
      6          1           0       -1.535658    0.927738   -0.331736
 ---------------------------------------------------------------------

 SCF Done:  E(RB2PLYPD3) =  -132.528734539     A.U. after   12 cycles
 E2(B2PLYPD3) =    -0.1797680624D+00 E(B2PLYPD3) =    -0.13270850260097D+03

 The electronic state is 1-A.
 Alpha  occ. eigenvalues --  -14.84086 -10.66123 -10.65377  -1.04094  -0.90610
 Alpha  occ. eigenvalues --   -0.59960  -0.55685  -0.55179  -0.44694  -0.39228
 Alpha  occ. eigenvalues --   -0.39112
 Alpha virt. eigenvalues --    0.03996   0.08443   0.08929   0.10178   0.11286
 Alpha virt. eigenvalues --    0.11320   0.15507   0.15718   0.16757   0.20099
 Alpha virt. eigenvalues --    0.20137   0.25318   0.33048   0.35240   0.35733

 Mulliken charges:
               1
     1  C   -0.069972
     2  C   -0.003312
     3  N   -0.208151
     4  H    0.093810
     5  H    0.095153
     6  H    0.092472
 Sum of Mulliken charges =   0.00000

 Dipole moment (field-independent basis, Debye):
    X=             -4.1363    Y=              0.0157    Z=              0.0357  Tot=              4.1365
 Quadrupole moment (field-independent basis, Debye-Ang):
   XX=            -20.9285   YY=            -17.6062   ZZ=            -17.6957
   XY=              0.0689   XZ=              0.0625   YZ=              0.0164

 Normal termination of Gaussian 09 at Wed Aug 26 11:49:26 2020.
