 Gaussian 09, Revision D.01,
 Gaussian 09:  ES64L-G09RevD.01 24-Apr-2013

 --------------------
 #p B2PLYPD3/Def2QZVP
 --------------------

 ------------
 cyanomethane
 ------------
 Symbolic Z-matrix:
 Charge =  0 Multiplicity = 1

                         Standard orientation:
 ---------------------------------------------------------------------
 Center     Atomic      Atomic             Coordinates (Angstroms)
 Number     Number       Type             X           Y           Z
 ---------------------------------------------------------------------
      1          6           0       -1.170418    0.002874    0.004154
      2          6           0        0.279503   -0.002603   -0.014142
      3          7           0        1.432544   -0.002402    0.003245
      4          1           0       -1.533041    0.993763   -0.309375
      5          1           0       -1.519825   -0.204663    1.010863
      6          1           0       -1.629454   -0.773917   -0.664275
 ---------------------------------------------------------------------

 SCF Done:  E(RB2PLYPD3) =  -132.534493320     A.U. after   12 cycles
 E2(B2PLYPD3) =    -0.1805499881D+00 E(B2PLYPD3) =    -0.13271504330788D+03

 The electronic state is 1-A.
 Alpha  occ. eigenvalues --  -14.84187 -10.67441 -10.66237  -1.04213  -0.89027
 Alpha  occ. eigenvalues --   -0.59861  -0.53971  -0.53087  -0.44832  -0.39072
 Alpha  occ. eigenvalues --   -0.39018
 Alpha virt. eigenvalues --    0.03696   0.07463   0.07907   0.10172   0.11518
 Alpha virt. eigenvalues --    0.11615   0.15434   0.16213   0.16657   0.20064
 Alpha virt. eigenvalues --    0.20105   0.25492   0.32616   0.34396   0.34554

 Mulliken charges:
               1
     1  C   -0.085459
     2  C   -0.000049
     3  N   -0.204900
     4  H    0.098147
     5  H    0.098285
     6  H    0.093976
 Sum of Mulliken charges =   0.00000

 Dipole moment (field-independent basis, Debye):
    X=             -4.1209    Y=              0.0049    Z=              0.0119  Tot=              4.1209
 Quadrupole moment (field-independent basis, Debye-Ang):
   XX=            -20.9719   YY=            -17.7389   ZZ=            -17.8168
   XY=              0.0720   XZ=              0.0080   YZ=             -0.0297

 Normal termination of Gaussian 09 at Thu Aug 27 00:11:42 2020.
