 Gaussian 09, Revision D.01,
 Gaussian 09:  ES64L-G09RevD.01 24-Apr-2013

 --------------------
 #p B2PLYPD3/Def2QZVP
 --------------------

 ------------
 cyanomethane
 ------------
 Symbolic Z-matrix:
 Charge =  0 Multiplicity = 1

                         Standard orientation:
 ---------------------------------------------------------------------
 Center     Atomic      Atomic             Coordinates (Angstroms)
 Number     Number       Type             X           Y           Z
 ---------------------------------------------------------------------
      1          6           0        1.153951   -0.000221   -0.017924
      2          6           0       -0.270015    0.020444    0.020720
      3          7           0       -1.432274   -0.010685   -0.003146
      4          1           0        1.646937   -0.360058    0.960983
      5          1           0        1.560256    1.008239   -0.188360
      6          1           0        1.515110   -0.694730   -0.767378
 ---------------------------------------------------------------------

 SCF Done:  E(RB2PLYPD3) =  -132.530511624     A.U. after   11 cycles
 E2(B2PLYPD3) =    -0.1816353767D+00 E(B2PLYPD3) =    -0.13271214700054D+03

 The electronic state is 1-A.
 Alpha  occ. eigenvalues --  -14.84518 -10.67464 -10.66488  -1.03944  -0.89298
 Alpha  occ. eigenvalues --   -0.60639  -0.54405  -0.52173  -0.44979  -0.38851
 Alpha  occ. eigenvalues --   -0.38542
 Alpha virt. eigenvalues --    0.03623   0.06769   0.07500   0.10079   0.11445
 Alpha virt. eigenvalues --    0.11819   0.15566   0.16499   0.16623   0.20068
 Alpha virt. eigenvalues --    0.20195   0.25983   0.32476   0.33927   0.34895

 Mulliken charges:
               1
     1  C   -0.078603
     2  C    0.004105
     3  N   -0.209033
     4  H    0.087022
     5  H    0.096940
     6  H    0.099570
 Sum of Mulliken charges =   0.00000

 Dipole moment (field-independent basis, Debye):
    X=              4.1292    Y=              0.0056    Z=             -0.0034  Tot=              4.1292
 Quadrupole moment (field-independent basis, Debye-Ang):
   XX=            -20.8645   YY=            -17.7363   ZZ=            -17.9538
   XY=             -0.0806   XZ=              0.0712   YZ=              0.0556

 Normal termination of Gaussian 09 at Wed Aug 26 14:36:20 2020.
