 Gaussian 09, Revision D.01,
 Gaussian 09:  ES64L-G09RevD.01 24-Apr-2013

 --------------------
 #p B2PLYPD3/Def2QZVP
 --------------------

 ------------
 cyanomethane
 ------------
 Symbolic Z-matrix:
 Charge =  0 Multiplicity = 1

                         Standard orientation:
 ---------------------------------------------------------------------
 Center     Atomic      Atomic             Coordinates (Angstroms)
 Number     Number       Type             X           Y           Z
 ---------------------------------------------------------------------
      1          6           0        1.181339   -0.005571    0.003842
      2          6           0       -0.285616   -0.034459   -0.006910
      3          7           0       -1.423087    0.020144    0.003799
      4          1           0        1.534580   -0.068725    1.001987
      5          1           0        1.543667    0.958442   -0.418273
      6          1           0        1.509027   -0.790540   -0.591895
 ---------------------------------------------------------------------

 SCF Done:  E(RB2PLYPD3) =  -132.533696895     A.U. after   11 cycles
 E2(B2PLYPD3) =    -0.1789087907D+00 E(B2PLYPD3) =    -0.13271260568547D+03

 The electronic state is 1-A.
 Alpha  occ. eigenvalues --  -14.83668 -10.66582 -10.65695  -1.04682  -0.89518
 Alpha  occ. eigenvalues --   -0.59253  -0.55521  -0.53412  -0.44641  -0.39601
 Alpha  occ. eigenvalues --   -0.39357
 Alpha virt. eigenvalues --    0.03793   0.08145   0.08971   0.10223   0.11352
 Alpha virt. eigenvalues --    0.11704   0.15419   0.16047   0.16568   0.19966
 Alpha virt. eigenvalues --    0.20081   0.25228   0.32976   0.34297   0.35512

 Mulliken charges:
               1
     1  C   -0.085632
     2  C   -0.007069
     3  N   -0.198597
     4  H    0.098110
     5  H    0.093180
     6  H    0.100008
 Sum of Mulliken charges =   0.00000

 Dipole moment (field-independent basis, Debye):
    X=              4.0985    Y=             -0.0293    Z=             -0.0039  Tot=              4.0986
 Quadrupole moment (field-independent basis, Debye-Ang):
   XX=            -21.0449   YY=            -17.6614   ZZ=            -17.6327
   XY=              0.1485   XZ=              0.0340   YZ=              0.0583

 Normal termination of Gaussian 09 at Wed Aug 26 11:09:45 2020.
