 Gaussian 09, Revision D.01,
 Gaussian 09:  ES64L-G09RevD.01 24-Apr-2013

 --------------------
 #p B2PLYPD3/Def2QZVP
 --------------------

 ------------
 cyanomethane
 ------------
 Symbolic Z-matrix:
 Charge =  0 Multiplicity = 1

                         Standard orientation:
 ---------------------------------------------------------------------
 Center     Atomic      Atomic             Coordinates (Angstroms)
 Number     Number       Type             X           Y           Z
 ---------------------------------------------------------------------
      1          6           0        1.176795   -0.004808   -0.008544
      2          6           0       -0.296844   -0.006240    0.042361
      3          7           0       -1.437053    0.004359   -0.023553
      4          1           0        1.603621    1.041803   -0.176430
      5          1           0        1.609813   -0.649485   -0.802928
      6          1           0        1.566226   -0.356544    0.941331
 ---------------------------------------------------------------------

 SCF Done:  E(RB2PLYPD3) =  -132.532359147     A.U. after   12 cycles
 E2(B2PLYPD3) =    -0.1798739352D+00 E(B2PLYPD3) =    -0.13271223308223D+03

 The electronic state is 1-A.
 Alpha  occ. eigenvalues --  -14.84046 -10.67907 -10.66154  -1.04700  -0.88237
 Alpha  occ. eigenvalues --   -0.59759  -0.53322  -0.52355  -0.44898  -0.39513
 Alpha  occ. eigenvalues --   -0.39415
 Alpha virt. eigenvalues --    0.03539   0.07389   0.08150   0.10155   0.11492
 Alpha virt. eigenvalues --    0.11707   0.15375   0.16190   0.17267   0.19925
 Alpha virt. eigenvalues --    0.20085   0.25216   0.32513   0.34057   0.34598

 Mulliken charges:
               1
     1  C   -0.083976
     2  C    0.000110
     3  N   -0.197176
     4  H    0.091634
     5  H    0.095187
     6  H    0.094220
 Sum of Mulliken charges =   0.00000

 Dipole moment (field-independent basis, Debye):
    X=              4.1072    Y=             -0.0175    Z=              0.0469  Tot=              4.1075
 Quadrupole moment (field-independent basis, Debye-Ang):
   XX=            -20.8218   YY=            -17.8201   ZZ=            -17.8361
   XY=              0.0130   XZ=             -0.1477   YZ=              0.0020

 Normal termination of Gaussian 09 at Wed Aug 26 10:47:06 2020.
