 Gaussian 09, Revision D.01,
 Gaussian 09:  ES64L-G09RevD.01 24-Apr-2013

 --------------------
 #p B2PLYPD3/Def2QZVP
 --------------------

 ------------
 cyanomethane
 ------------
 Symbolic Z-matrix:
 Charge =  0 Multiplicity = 1

                         Standard orientation:
 ---------------------------------------------------------------------
 Center     Atomic      Atomic             Coordinates (Angstroms)
 Number     Number       Type             X           Y           Z
 ---------------------------------------------------------------------
      1          6           0        1.193199   -0.010818   -0.008927
      2          6           0       -0.284769   -0.031492    0.011418
      3          7           0       -1.438291    0.018709   -0.008168
      4          1           0        1.571892    0.947917   -0.446561
      5          1           0        1.549471   -0.819141   -0.527281
      6          1           0        1.496094   -0.005872    1.016072
 ---------------------------------------------------------------------

 SCF Done:  E(RB2PLYPD3) =  -132.531191697     A.U. after   12 cycles
 E2(B2PLYPD3) =    -0.1803157921D+00 E(B2PLYPD3) =    -0.13271150748884D+03

 The electronic state is 1-A.
 Alpha  occ. eigenvalues --  -14.84175 -10.66786 -10.66280  -1.04038  -0.89408
 Alpha  occ. eigenvalues --   -0.59349  -0.55684  -0.53094  -0.44711  -0.39310
 Alpha  occ. eigenvalues --   -0.38975
 Alpha virt. eigenvalues --    0.03720   0.07853   0.08770   0.10210   0.11048
 Alpha virt. eigenvalues --    0.11517   0.15278   0.15805   0.16686   0.20025
 Alpha virt. eigenvalues --    0.20148   0.24989   0.32597   0.34063   0.35557

 Mulliken charges:
               1
     1  C   -0.084116
     2  C   -0.003335
     3  N   -0.206619
     4  H    0.093952
     5  H    0.102745
     6  H    0.097373
 Sum of Mulliken charges =   0.00000

 Dipole moment (field-independent basis, Debye):
    X=              4.1348    Y=             -0.0210    Z=              0.0316  Tot=              4.1350
 Quadrupole moment (field-independent basis, Debye-Ang):
   XX=            -21.0297   YY=            -17.6857   ZZ=            -17.7618
   XY=              0.1380   XZ=             -0.0544   YZ=              0.0860

 Normal termination of Gaussian 09 at Wed Aug 26 15:13:13 2020.
