 Gaussian 09, Revision D.01,
 Gaussian 09:  ES64L-G09RevD.01 24-Apr-2013

 --------------------
 #p B2PLYPD3/Def2QZVP
 --------------------

 ------------
 cyanomethane
 ------------
 Symbolic Z-matrix:
 Charge =  0 Multiplicity = 1

                         Standard orientation:
 ---------------------------------------------------------------------
 Center     Atomic      Atomic             Coordinates (Angstroms)
 Number     Number       Type             X           Y           Z
 ---------------------------------------------------------------------
      1          6           0        1.174462   -0.017918    0.006920
      2          6           0       -0.271573    0.018378   -0.050170
      3          7           0       -1.459270   -0.014531    0.016592
      4          1           0        1.522216    0.957701   -0.132836
      5          1           0        1.772520   -0.591444   -0.644796
      6          1           0        1.502826   -0.267299    0.920988
 ---------------------------------------------------------------------

 SCF Done:  E(RB2PLYPD3) =  -132.517000432     A.U. after   12 cycles
 E2(B2PLYPD3) =    -0.1834252977D+00 E(B2PLYPD3) =    -0.13270042572951D+03

 The electronic state is 1-A.
 Alpha  occ. eigenvalues --  -14.85444 -10.67639 -10.65366  -1.02965  -0.90764
 Alpha  occ. eigenvalues --   -0.62651  -0.54849  -0.53662  -0.45211  -0.38521
 Alpha  occ. eigenvalues --   -0.38349
 Alpha virt. eigenvalues --    0.03860   0.06900   0.07594   0.10068   0.11294
 Alpha virt. eigenvalues --    0.11343   0.15475   0.15962   0.17884   0.20214
 Alpha virt. eigenvalues --    0.20546   0.25661   0.32426   0.34971   0.35924

 Mulliken charges:
               1
     1  C   -0.043535
     2  C    0.018811
     3  N   -0.221500
     4  H    0.079533
     5  H    0.081396
     6  H    0.085296
 Sum of Mulliken charges =   0.00000

 Dipole moment (field-independent basis, Debye):
    X=              4.2286    Y=              0.0523    Z=              0.0206  Tot=              4.2290
 Quadrupole moment (field-independent basis, Debye-Ang):
   XX=            -20.2993   YY=            -17.9760   ZZ=            -17.9910
   XY=             -0.0946   XZ=              0.0334   YZ=             -0.0197

 Normal termination of Gaussian 09 at Wed Aug 26 22:47:37 2020.
