 Gaussian 09, Revision D.01,
 Gaussian 09:  ES64L-G09RevD.01 24-Apr-2013

 --------------------
 #p B2PLYPD3/Def2QZVP
 --------------------

 ------------
 cyanomethane
 ------------
 Symbolic Z-matrix:
 Charge =  0 Multiplicity = 1

                         Standard orientation:
 ---------------------------------------------------------------------
 Center     Atomic      Atomic             Coordinates (Angstroms)
 Number     Number       Type             X           Y           Z
 ---------------------------------------------------------------------
      1          6           0       -1.174785   -0.005418   -0.001071
      2          6           0        0.270638    0.017737    0.013383
      3          7           0        1.433315   -0.010904   -0.007469
      4          1           0       -1.513377    0.899002   -0.482950
      5          1           0       -1.528812   -0.033166    1.000285
      6          1           0       -1.566129   -0.863424   -0.538924
 ---------------------------------------------------------------------

 SCF Done:  E(RB2PLYPD3) =  -132.534231382     A.U. after   12 cycles
 E2(B2PLYPD3) =    -0.1810465919D+00 E(B2PLYPD3) =    -0.13271527797403D+03

 The electronic state is 1-A.
 Alpha  occ. eigenvalues --  -14.84377 -10.66624 -10.66403  -1.03781  -0.89804
 Alpha  occ. eigenvalues --   -0.59974  -0.54668  -0.54140  -0.44792  -0.38828
 Alpha  occ. eigenvalues --   -0.38783
 Alpha virt. eigenvalues --    0.03808   0.07678   0.08131   0.10133   0.11334
 Alpha virt. eigenvalues --    0.11427   0.15493   0.15889   0.16573   0.20141
 Alpha virt. eigenvalues --    0.20162   0.25573   0.32877   0.34661   0.34893

 Mulliken charges:
               1
     1  C   -0.080128
     2  C   -0.000414
     3  N   -0.211297
     4  H    0.097228
     5  H    0.097595
     6  H    0.097015
 Sum of Mulliken charges =   0.00000

 Dipole moment (field-independent basis, Debye):
    X=             -4.1382    Y=              0.0187    Z=              0.0145  Tot=              4.1382
 Quadrupole moment (field-independent basis, Debye-Ang):
   XX=            -21.0176   YY=            -17.7302   ZZ=            -17.7443
   XY=              0.0881   XZ=              0.0396   YZ=             -0.0078

 Normal termination of Gaussian 09 at Thu Aug 27 00:01:22 2020.
