 Gaussian 09, Revision D.01,
 Gaussian 09:  ES64L-G09RevD.01 24-Apr-2013

 --------------------
 #p B2PLYPD3/Def2QZVP
 --------------------

 ------------
 cyanomethane
 ------------
 Symbolic Z-matrix:
 Charge =  0 Multiplicity = 1

                         Standard orientation:
 ---------------------------------------------------------------------
 Center     Atomic      Atomic             Coordinates (Angstroms)
 Number     Number       Type             X           Y           Z
 ---------------------------------------------------------------------
      1          6           0       -1.173664   -0.001129    0.008415
      2          6           0        0.275530   -0.018584   -0.008783
      3          7           0        1.439977    0.012235    0.003825
      4          1           0       -1.551010   -0.450313    0.897833
      5          1           0       -1.544228   -0.549238   -0.856913
      6          1           0       -1.595796    1.032179   -0.065487
 ---------------------------------------------------------------------

 SCF Done:  E(RB2PLYPD3) =  -132.533372227     A.U. after   12 cycles
 E2(B2PLYPD3) =    -0.1814412139D+00 E(B2PLYPD3) =    -0.13271481344047D+03

 The electronic state is 1-A.
 Alpha  occ. eigenvalues --  -14.84546 -10.67112 -10.66604  -1.03764  -0.89330
 Alpha  occ. eigenvalues --   -0.60224  -0.54390  -0.53142  -0.44902  -0.38886
 Alpha  occ. eigenvalues --   -0.38730
 Alpha virt. eigenvalues --    0.03703   0.07314   0.07877   0.10127   0.11300
 Alpha virt. eigenvalues --    0.11504   0.15469   0.16101   0.16734   0.20104
 Alpha virt. eigenvalues --    0.20174   0.25516   0.32658   0.34226   0.34950

 Mulliken charges:
               1
     1  C   -0.077751
     2  C    0.001735
     3  N   -0.210489
     4  H    0.098318
     5  H    0.094868
     6  H    0.093319
 Sum of Mulliken charges =   0.00000

 Dipole moment (field-independent basis, Debye):
    X=             -4.1452    Y=             -0.0245    Z=             -0.0085  Tot=              4.1452
 Quadrupole moment (field-independent basis, Debye-Ang):
   XX=            -20.9096   YY=            -17.8370   ZZ=            -17.7913
   XY=             -0.0919   XZ=             -0.0125   YZ=             -0.0200

 Normal termination of Gaussian 09 at Thu Aug 27 00:09:16 2020.
