 Gaussian 09, Revision D.01,
 Gaussian 09:  ES64L-G09RevD.01 24-Apr-2013

 --------------------
 #p B2PLYPD3/Def2QZVP
 --------------------

 ------------
 cyanomethane
 ------------
 Symbolic Z-matrix:
 Charge =  0 Multiplicity = 1

                         Standard orientation:
 ---------------------------------------------------------------------
 Center     Atomic      Atomic             Coordinates (Angstroms)
 Number     Number       Type             X           Y           Z
 ---------------------------------------------------------------------
      1          6           0        1.176005   -0.004226   -0.002858
      2          6           0       -0.284116   -0.017223   -0.002831
      3          7           0       -1.429929    0.009890    0.003236
      4          1           0        1.572533    0.028926    1.012205
      5          1           0        1.546639    0.912089   -0.508494
      6          1           0        1.538999   -0.881553   -0.492226
 ---------------------------------------------------------------------

 SCF Done:  E(RB2PLYPD3) =  -132.535555748     A.U. after   11 cycles
 E2(B2PLYPD3) =    -0.1797523197D+00 E(B2PLYPD3) =    -0.13271530806777D+03

 The electronic state is 1-A.
 Alpha  occ. eigenvalues --  -14.83960 -10.67112 -10.66014  -1.04448  -0.89132
 Alpha  occ. eigenvalues --   -0.59673  -0.54499  -0.53174  -0.44760  -0.39362
 Alpha  occ. eigenvalues --   -0.39190
 Alpha virt. eigenvalues --    0.03749   0.07839   0.08309   0.10200   0.11414
 Alpha virt. eigenvalues --    0.11682   0.15411   0.16370   0.16489   0.19999
 Alpha virt. eigenvalues --    0.20097   0.25314   0.32815   0.34294   0.35006

 Mulliken charges:
               1
     1  C   -0.083848
     2  C   -0.003076
     3  N   -0.201630
     4  H    0.094168
     5  H    0.095291
     6  H    0.099095
 Sum of Mulliken charges =   0.00000

 Dipole moment (field-independent basis, Debye):
    X=              4.1150    Y=             -0.0122    Z=              0.0065  Tot=              4.1150
 Quadrupole moment (field-independent basis, Debye-Ang):
   XX=            -20.9766   YY=            -17.6580   ZZ=            -17.8033
   XY=              0.0714   XZ=              0.0717   YZ=              0.0365

 Normal termination of Gaussian 09 at Wed Aug 26 19:13:38 2020.
