 Gaussian 09, Revision D.01,
 Gaussian 09:  ES64L-G09RevD.01 24-Apr-2013

 --------------------
 #p B2PLYPD3/Def2QZVP
 --------------------

 ------------
 cyanomethane
 ------------
 Symbolic Z-matrix:
 Charge =  0 Multiplicity = 1

                         Standard orientation:
 ---------------------------------------------------------------------
 Center     Atomic      Atomic             Coordinates (Angstroms)
 Number     Number       Type             X           Y           Z
 ---------------------------------------------------------------------
      1          6           0       -1.174708   -0.010491   -0.003631
      2          6           0        0.276855    0.025488    0.015591
      3          7           0        1.444261   -0.016384   -0.010022
      4          1           0       -1.520333    1.045454   -0.078278
      5          1           0       -1.569490   -0.441040    0.883591
      6          1           0       -1.632889   -0.579703   -0.806918
 ---------------------------------------------------------------------

 SCF Done:  E(RB2PLYPD3) =  -132.531401170     A.U. after   12 cycles
 E2(B2PLYPD3) =    -0.1818033398D+00 E(B2PLYPD3) =    -0.13271320450934D+03

 The electronic state is 1-A.
 Alpha  occ. eigenvalues --  -14.84707 -10.67029 -10.66794  -1.03659  -0.89346
 Alpha  occ. eigenvalues --   -0.60763  -0.53878  -0.53264  -0.44969  -0.38802
 Alpha  occ. eigenvalues --   -0.38722
 Alpha virt. eigenvalues --    0.03716   0.07211   0.07756   0.10049   0.11300
 Alpha virt. eigenvalues --    0.11487   0.15403   0.16063   0.17072   0.20091
 Alpha virt. eigenvalues --    0.20250   0.25527   0.32592   0.34265   0.34950

 Mulliken charges:
               1
     1  C   -0.073080
     2  C    0.004976
     3  N   -0.211897
     4  H    0.093329
     5  H    0.093748
     6  H    0.092924
 Sum of Mulliken charges =   0.00000

 Dipole moment (field-independent basis, Debye):
    X=             -4.1541    Y=              0.0048    Z=              0.0254  Tot=              4.1542
 Quadrupole moment (field-independent basis, Debye-Ang):
   XX=            -20.8133   YY=            -17.7457   ZZ=            -17.9674
   XY=              0.2009   XZ=              0.0625   YZ=             -0.0173

 Normal termination of Gaussian 09 at Wed Aug 26 13:35:09 2020.
