 Gaussian 09, Revision D.01,
 Gaussian 09:  ES64L-G09RevD.01 24-Apr-2013

 --------------------
 #p B2PLYPD3/Def2QZVP
 --------------------

 ------------
 cyanomethane
 ------------
 Symbolic Z-matrix:
 Charge =  0 Multiplicity = 1

                         Standard orientation:
 ---------------------------------------------------------------------
 Center     Atomic      Atomic             Coordinates (Angstroms)
 Number     Number       Type             X           Y           Z
 ---------------------------------------------------------------------
      1          6           0        1.189459   -0.008230   -0.029576
      2          6           0       -0.263219    0.035693    0.058602
      3          7           0       -1.459896   -0.012743   -0.018492
      4          1           0        1.660860   -0.199916    1.018228
      5          1           0        1.569295    1.009249   -0.397382
      6          1           0        1.431678   -0.884906   -0.665558
 ---------------------------------------------------------------------

 SCF Done:  E(RB2PLYPD3) =  -132.519283957     A.U. after   12 cycles
 E2(B2PLYPD3) =    -0.1854538350D+00 E(B2PLYPD3) =    -0.13270473779237D+03

 The electronic state is 1-A.
 Alpha  occ. eigenvalues --  -14.85461 -10.68845 -10.67614  -1.02343  -0.88376
 Alpha  occ. eigenvalues --   -0.59029  -0.54300  -0.51932  -0.44905  -0.37981
 Alpha  occ. eigenvalues --   -0.37728
 Alpha virt. eigenvalues --    0.03299   0.06162   0.06645   0.10082   0.10907
 Alpha virt. eigenvalues --    0.11209   0.14834   0.15841   0.16130   0.20193
 Alpha virt. eigenvalues --    0.20271   0.25592   0.31388   0.33075   0.34350

 Mulliken charges:
               1
     1  C   -0.105128
     2  C    0.009776
     3  N   -0.224155
     4  H    0.096200
     5  H    0.108360
     6  H    0.114947
 Sum of Mulliken charges =   0.00000

 Dipole moment (field-independent basis, Debye):
    X=              4.1592    Y=             -0.0049    Z=              0.0225  Tot=              4.1592
 Quadrupole moment (field-independent basis, Debye-Ang):
   XX=            -21.3063   YY=            -17.7212   ZZ=            -18.1204
   XY=             -0.0032   XZ=              0.1005   YZ=              0.0366

 Normal termination of Gaussian 09 at Wed Aug 26 18:47:12 2020.
