 Gaussian 09, Revision D.01,
 Gaussian 09:  ES64L-G09RevD.01 24-Apr-2013

 --------------------
 #p B2PLYPD3/Def2QZVP
 --------------------

 ------------
 cyanomethane
 ------------
 Symbolic Z-matrix:
 Charge =  0 Multiplicity = 1

                         Standard orientation:
 ---------------------------------------------------------------------
 Center     Atomic      Atomic             Coordinates (Angstroms)
 Number     Number       Type             X           Y           Z
 ---------------------------------------------------------------------
      1          6           0       -1.169265    0.022142   -0.021309
      2          6           0        0.271807    0.059784    0.001776
      3          7           0        1.457578   -0.041001   -0.000054
      4          1           0       -1.520343    0.996535   -0.133391
      5          1           0       -1.615726   -0.439987    1.015588
      6          1           0       -1.682231   -0.761101   -0.764620
 ---------------------------------------------------------------------

 SCF Done:  E(RB2PLYPD3) =  -132.508744821     A.U. after   12 cycles
 E2(B2PLYPD3) =    -0.1850411282D+00 E(B2PLYPD3) =    -0.13269378594933D+03

 The electronic state is 1-A.
 Alpha  occ. eigenvalues --  -14.85467 -10.68835 -10.67528  -1.02938  -0.88481
 Alpha  occ. eigenvalues --   -0.60211  -0.54885  -0.49795  -0.45189  -0.38484
 Alpha  occ. eigenvalues --   -0.37666
 Alpha virt. eigenvalues --    0.02860   0.04940   0.07458   0.09851   0.10775
 Alpha virt. eigenvalues --    0.11926   0.15264   0.16049   0.17165   0.19975
 Alpha virt. eigenvalues --    0.20506   0.25692   0.31370   0.31977   0.34473

 Mulliken charges:
               1
     1  C   -0.087817
     2  C    0.009760
     3  N   -0.216270
     4  H    0.110167
     5  H    0.086838
     6  H    0.097323
 Sum of Mulliken charges =   0.00000

 Dipole moment (field-independent basis, Debye):
    X=             -4.1467    Y=              0.0299    Z=              0.0153  Tot=              4.1468
 Quadrupole moment (field-independent basis, Debye-Ang):
   XX=            -20.9019   YY=            -17.7434   ZZ=            -18.3129
   XY=              0.3960   XZ=             -0.0289   YZ=             -0.0116

 Normal termination of Gaussian 09 at Wed Aug 26 21:25:22 2020.
