 Gaussian 09, Revision D.01,
 Gaussian 09:  ES64L-G09RevD.01 24-Apr-2013

 --------------------
 #p B2PLYPD3/Def2QZVP
 --------------------

 ------------
 cyanomethane
 ------------
 Symbolic Z-matrix:
 Charge =  0 Multiplicity = 1

                         Standard orientation:
 ---------------------------------------------------------------------
 Center     Atomic      Atomic             Coordinates (Angstroms)
 Number     Number       Type             X           Y           Z
 ---------------------------------------------------------------------
      1          6           0        1.176627    0.005414   -0.004162
      2          6           0       -0.278396   -0.016815    0.005607
      3          7           0       -1.427716    0.005480    0.000247
      4          1           0        1.579472   -0.240956    1.001238
      5          1           0        1.489318    1.014202   -0.290145
      6          1           0        1.535835   -0.743200   -0.721491
 ---------------------------------------------------------------------

 SCF Done:  E(RB2PLYPD3) =  -132.535290992     A.U. after   12 cycles
 E2(B2PLYPD3) =    -0.1801576581D+00 E(B2PLYPD3) =    -0.13271544864984D+03

 The electronic state is 1-A.
 Alpha  occ. eigenvalues --  -14.83966 -10.67444 -10.66012  -1.04273  -0.89056
 Alpha  occ. eigenvalues --   -0.59173  -0.54258  -0.53502  -0.44693  -0.39120
 Alpha  occ. eigenvalues --   -0.39067
 Alpha virt. eigenvalues --    0.03711   0.07811   0.08061   0.10190   0.11523
 Alpha virt. eigenvalues --    0.11590   0.15342   0.16113   0.16283   0.20066
 Alpha virt. eigenvalues --    0.20088   0.25382   0.32691   0.34308   0.34528

 Mulliken charges:
               1
     1  C   -0.095117
     2  C   -0.002829
     3  N   -0.204055
     4  H    0.098069
     5  H    0.103163
     6  H    0.100769
 Sum of Mulliken charges =   0.00000

 Dipole moment (field-independent basis, Debye):
    X=              4.1053    Y=             -0.0072    Z=             -0.0009  Tot=              4.1053
 Quadrupole moment (field-independent basis, Debye-Ang):
   XX=            -21.1630   YY=            -17.6589   ZZ=            -17.7483
   XY=             -0.0193   XZ=              0.0504   YZ=              0.0041

 Normal termination of Gaussian 09 at Thu Aug 27 00:07:08 2020.
