 Gaussian 09, Revision D.01,
 Gaussian 09:  ES64L-G09RevD.01 24-Apr-2013

 --------------------
 #p B2PLYPD3/Def2QZVP
 --------------------

 ------------
 cyanomethane
 ------------
 Symbolic Z-matrix:
 Charge =  0 Multiplicity = 1

                         Standard orientation:
 ---------------------------------------------------------------------
 Center     Atomic      Atomic             Coordinates (Angstroms)
 Number     Number       Type             X           Y           Z
 ---------------------------------------------------------------------
      1          6           0       -1.183765   -0.007181   -0.001754
      2          6           0        0.278801    0.006966   -0.013930
      3          7           0        1.438139   -0.005544    0.007553
      4          1           0       -1.512949    0.920804   -0.437038
      5          1           0       -1.548810   -0.045563    1.016549
      6          1           0       -1.575434   -0.835146   -0.538282
 ---------------------------------------------------------------------

 SCF Done:  E(RB2PLYPD3) =  -132.534705595     A.U. after   11 cycles
 E2(B2PLYPD3) =    -0.1807068066D+00 E(B2PLYPD3) =    -0.13271541240203D+03

 The electronic state is 1-A.
 Alpha  occ. eigenvalues --  -14.84323 -10.66721 -10.66407  -1.03894  -0.89527
 Alpha  occ. eigenvalues --   -0.59830  -0.54660  -0.53910  -0.44782  -0.39056
 Alpha  occ. eigenvalues --   -0.38919
 Alpha virt. eigenvalues --    0.03820   0.07919   0.08185   0.10180   0.11254
 Alpha virt. eigenvalues --    0.11425   0.15381   0.15987   0.16627   0.20091
 Alpha virt. eigenvalues --    0.20146   0.25247   0.32728   0.34565   0.35164

 Mulliken charges:
               1
     1  C   -0.079044
     2  C   -0.001286
     3  N   -0.209063
     4  H    0.096481
     5  H    0.095003
     6  H    0.097909
 Sum of Mulliken charges =   0.00000

 Dipole moment (field-independent basis, Debye):
    X=             -4.1439    Y=              0.0147    Z=             -0.0038  Tot=              4.1440
 Quadrupole moment (field-independent basis, Debye-Ang):
   XX=            -20.9727   YY=            -17.7109   ZZ=            -17.7903
   XY=              0.0597   XZ=             -0.0603   YZ=              0.0169

 Normal termination of Gaussian 09 at Wed Aug 26 10:13:24 2020.
