 Gaussian 09, Revision D.01,
 Gaussian 09:  ES64L-G09RevD.01 24-Apr-2013

 --------------------
 #p B2PLYPD3/Def2QZVP
 --------------------

 ------------
 cyanomethane
 ------------
 Symbolic Z-matrix:
 Charge =  0 Multiplicity = 1

                         Standard orientation:
 ---------------------------------------------------------------------
 Center     Atomic      Atomic             Coordinates (Angstroms)
 Number     Number       Type             X           Y           Z
 ---------------------------------------------------------------------
      1          6           0        1.183678    0.008072   -0.008301
      2          6           0       -0.259105   -0.039031   -0.031382
      3          7           0       -1.423800    0.012799    0.010895
      4          1           0        1.405215    1.009885   -0.166394
      5          1           0        1.593395   -0.645484   -0.657811
      6          1           0        1.420551   -0.268235    0.986042
 ---------------------------------------------------------------------

 SCF Done:  E(RB2PLYPD3) =  -132.525474937     A.U. after   12 cycles
 E2(B2PLYPD3) =    -0.1809335042D+00 E(B2PLYPD3) =    -0.13270640844079D+03

 The electronic state is 1-A.
 Alpha  occ. eigenvalues --  -14.84219 -10.66280 -10.65432  -1.03587  -0.91054
 Alpha  occ. eigenvalues --   -0.59756  -0.56633  -0.55165  -0.44573  -0.38797
 Alpha  occ. eigenvalues --   -0.38494
 Alpha virt. eigenvalues --    0.03937   0.08464   0.08592   0.10223   0.11025
 Alpha virt. eigenvalues --    0.11475   0.15377   0.15448   0.16208   0.20122
 Alpha virt. eigenvalues --    0.20289   0.25616   0.33039   0.34524   0.35819

 Mulliken charges:
               1
     1  C   -0.083581
     2  C   -0.002074
     3  N   -0.217108
     4  H    0.105208
     5  H    0.099257
     6  H    0.098298
 Sum of Mulliken charges =   0.00000

 Dipole moment (field-independent basis, Debye):
    X=              4.1350    Y=             -0.0171    Z=              0.0128  Tot=              4.1351
 Quadrupole moment (field-independent basis, Debye-Ang):
   XX=            -21.2083   YY=            -17.5300   ZZ=            -17.6983
   XY=             -0.0659   XZ=              0.0055   YZ=              0.0205

 Normal termination of Gaussian 09 at Wed Aug 26 23:25:24 2020.
