 Gaussian 09, Revision D.01,
 Gaussian 09:  ES64L-G09RevD.01 24-Apr-2013

 --------------------
 #p B2PLYPD3/Def2QZVP
 --------------------

 ------------
 cyanomethane
 ------------
 Symbolic Z-matrix:
 Charge =  0 Multiplicity = 1

                         Standard orientation:
 ---------------------------------------------------------------------
 Center     Atomic      Atomic             Coordinates (Angstroms)
 Number     Number       Type             X           Y           Z
 ---------------------------------------------------------------------
      1          6           0       -1.168619    0.010155   -0.022299
      2          6           0        0.269009   -0.025409    0.004893
      3          7           0        1.427954    0.009721    0.000423
      4          1           0       -1.541904    0.007148    0.974568
      5          1           0       -1.557847   -0.848338   -0.437853
      6          1           0       -1.498263    0.864673   -0.435237
 ---------------------------------------------------------------------

 SCF Done:  E(RB2PLYPD3) =  -132.526970562     A.U. after   11 cycles
 E2(B2PLYPD3) =    -0.1802979867D+00 E(B2PLYPD3) =    -0.13270726854840D+03

 The electronic state is 1-A.
 Alpha  occ. eigenvalues --  -14.84273 -10.66265 -10.65171  -1.03977  -0.90934
 Alpha  occ. eigenvalues --   -0.60936  -0.56776  -0.53795  -0.44815  -0.39162
 Alpha  occ. eigenvalues --   -0.38759
 Alpha virt. eigenvalues --    0.03991   0.08178   0.08499   0.10165   0.11138
 Alpha virt. eigenvalues --    0.11648   0.15616   0.16048   0.16906   0.20067
 Alpha virt. eigenvalues --    0.20225   0.25743   0.33172   0.34654   0.36230

 Mulliken charges:
               1
     1  C   -0.057726
     2  C    0.001268
     3  N   -0.210886
     4  H    0.081033
     5  H    0.091082
     6  H    0.095228
 Sum of Mulliken charges =   0.00000

 Dipole moment (field-independent basis, Debye):
    X=             -4.1549    Y=             -0.0142    Z=              0.0388  Tot=              4.1551
 Quadrupole moment (field-independent basis, Debye-Ang):
   XX=            -20.7736   YY=            -17.5325   ZZ=            -17.8696
   XY=             -0.0045   XZ=             -0.1128   YZ=             -0.0218

 Normal termination of Gaussian 09 at Wed Aug 26 16:14:02 2020.
