 Gaussian 09, Revision D.01,
 Gaussian 09:  ES64L-G09RevD.01 24-Apr-2013

 --------------------
 #p B2PLYPD3/Def2QZVP
 --------------------

 ------------
 cyanomethane
 ------------
 Symbolic Z-matrix:
 Charge =  0 Multiplicity = 1

                         Standard orientation:
 ---------------------------------------------------------------------
 Center     Atomic      Atomic             Coordinates (Angstroms)
 Number     Number       Type             X           Y           Z
 ---------------------------------------------------------------------
      1          6           0        1.178625   -0.006086   -0.011672
      2          6           0       -0.264933   -0.030148    0.030398
      3          7           0       -1.432861    0.017798   -0.011621
      4          1           0        1.472268   -0.703263   -0.703251
      5          1           0        1.550448   -0.202717    0.965021
      6          1           0        1.525165    0.998792   -0.292778
 ---------------------------------------------------------------------

 SCF Done:  E(RB2PLYPD3) =  -132.530187555     A.U. after   12 cycles
 E2(B2PLYPD3) =    -0.1814830127D+00 E(B2PLYPD3) =    -0.13271167056741D+03

 The electronic state is 1-A.
 Alpha  occ. eigenvalues --  -14.84490 -10.66508 -10.66234  -1.03514  -0.90245
 Alpha  occ. eigenvalues --   -0.59774  -0.56105  -0.53867  -0.44750  -0.38752
 Alpha  occ. eigenvalues --   -0.38514
 Alpha virt. eigenvalues --    0.03790   0.07633   0.08374   0.10130   0.11080
 Alpha virt. eigenvalues --    0.11432   0.15463   0.15861   0.16251   0.20143
 Alpha virt. eigenvalues --    0.20217   0.25634   0.32875   0.34258   0.35509

 Mulliken charges:
               1
     1  C   -0.081091
     2  C   -0.000358
     3  N   -0.215263
     4  H    0.103803
     5  H    0.096816
     6  H    0.096093
 Sum of Mulliken charges =   0.00000

 Dipole moment (field-independent basis, Debye):
    X=              4.1391    Y=             -0.0172    Z=              0.0186  Tot=              4.1392
 Quadrupole moment (field-independent basis, Debye-Ang):
   XX=            -21.0959   YY=            -17.7172   ZZ=            -17.6987
   XY=              0.1368   XZ=              0.0039   YZ=              0.0707

 Normal termination of Gaussian 09 at Wed Aug 26 11:22:10 2020.
