 Gaussian 09, Revision D.01,
 Gaussian 09:  ES64L-G09RevD.01 24-Apr-2013

 --------------------
 #p B2PLYPD3/Def2QZVP
 --------------------

 ------------
 cyanomethane
 ------------
 Symbolic Z-matrix:
 Charge =  0 Multiplicity = 1

                         Standard orientation:
 ---------------------------------------------------------------------
 Center     Atomic      Atomic             Coordinates (Angstroms)
 Number     Number       Type             X           Y           Z
 ---------------------------------------------------------------------
      1          6           0        1.180055    0.002214   -0.012105
      2          6           0       -0.279307    0.024251    0.003293
      3          7           0       -1.439579   -0.015009   -0.000566
      4          1           0        1.529927    1.010919    0.017643
      5          1           0        1.573096   -0.533865   -0.840261
      6          1           0        1.569546   -0.530784    0.879454
 ---------------------------------------------------------------------

 SCF Done:  E(RB2PLYPD3) =  -132.533529310     A.U. after   11 cycles
 E2(B2PLYPD3) =    -0.1809537793D+00 E(B2PLYPD3) =    -0.13271448308974D+03

 The electronic state is 1-A.
 Alpha  occ. eigenvalues --  -14.84417 -10.66869 -10.66494  -1.03883  -0.89409
 Alpha  occ. eigenvalues --   -0.60103  -0.54957  -0.53048  -0.44848  -0.39075
 Alpha  occ. eigenvalues --   -0.38831
 Alpha virt. eigenvalues --    0.03763   0.07597   0.08139   0.10143   0.11175
 Alpha virt. eigenvalues --    0.11564   0.15397   0.16164   0.16677   0.20041
 Alpha virt. eigenvalues --    0.20188   0.25332   0.32682   0.34235   0.35313

 Mulliken charges:
               1
     1  C   -0.076390
     2  C    0.000306
     3  N   -0.209043
     4  H    0.098306
     5  H    0.096616
     6  H    0.090205
 Sum of Mulliken charges =   0.00000

 Dipole moment (field-independent basis, Debye):
    X=              4.1441    Y=              0.0055    Z=              0.0054  Tot=              4.1441
 Quadrupole moment (field-independent basis, Debye-Ang):
   XX=            -20.9139   YY=            -17.6751   ZZ=            -17.8966
   XY=             -0.1579   XZ=              0.0118   YZ=              0.0458

 Normal termination of Gaussian 09 at Thu Aug 27 00:02:35 2020.
