 Gaussian 09, Revision D.01,
 Gaussian 09:  ES64L-G09RevD.01 24-Apr-2013

 --------------------
 #p B2PLYPD3/Def2QZVP
 --------------------

 ------------
 cyanomethane
 ------------
 Symbolic Z-matrix:
 Charge =  0 Multiplicity = 1

                         Standard orientation:
 ---------------------------------------------------------------------
 Center     Atomic      Atomic             Coordinates (Angstroms)
 Number     Number       Type             X           Y           Z
 ---------------------------------------------------------------------
      1          6           0        1.181734    0.009382    0.001483
      2          6           0       -0.274624   -0.002073   -0.015712
      3          7           0       -1.437558   -0.001591    0.006442
      4          1           0        1.517913    1.019807   -0.023360
      5          1           0        1.570986   -0.558753   -0.847017
      6          1           0        1.531345   -0.493773    0.910658
 ---------------------------------------------------------------------

 SCF Done:  E(RB2PLYPD3) =  -132.534422691     A.U. after   11 cycles
 E2(B2PLYPD3) =    -0.1811407410D+00 E(B2PLYPD3) =    -0.13271556343156D+03

 The electronic state is 1-A.
 Alpha  occ. eigenvalues --  -14.84386 -10.67028 -10.66457  -1.03749  -0.89417
 Alpha  occ. eigenvalues --   -0.59599  -0.54853  -0.53540  -0.44771  -0.38916
 Alpha  occ. eigenvalues --   -0.38750
 Alpha virt. eigenvalues --    0.03766   0.07697   0.08021   0.10171   0.11227
 Alpha virt. eigenvalues --    0.11460   0.15356   0.16123   0.16267   0.20103
 Alpha virt. eigenvalues --    0.20167   0.25344   0.32640   0.34287   0.35025

 Mulliken charges:
               1
     1  C   -0.084954
     2  C   -0.000960
     3  N   -0.210797
     4  H    0.102441
     5  H    0.096776
     6  H    0.097494
 Sum of Mulliken charges =   0.00000

 Dipole moment (field-independent basis, Debye):
    X=              4.1398    Y=             -0.0061    Z=             -0.0038  Tot=              4.1398
 Quadrupole moment (field-independent basis, Debye-Ang):
   XX=            -21.0698   YY=            -17.6780   ZZ=            -17.8242
   XY=             -0.0624   XZ=              0.0178   YZ=             -0.0002

 Normal termination of Gaussian 09 at Wed Aug 26 10:12:48 2020.
