 Gaussian 09, Revision D.01,
 Gaussian 09:  ES64L-G09RevD.01 24-Apr-2013

 --------------------
 #p B2PLYPD3/Def2QZVP
 --------------------

 ------------
 cyanomethane
 ------------
 Symbolic Z-matrix:
 Charge =  0 Multiplicity = 1

                         Standard orientation:
 ---------------------------------------------------------------------
 Center     Atomic      Atomic             Coordinates (Angstroms)
 Number     Number       Type             X           Y           Z
 ---------------------------------------------------------------------
      1          6           0        1.163410    0.014035    0.021858
      2          6           0       -0.272459   -0.022081   -0.044966
      3          7           0       -1.448272    0.013998    0.019237
      4          1           0        1.588544   -0.533024   -0.833213
      5          1           0        1.547307   -0.495532    0.863618
      6          1           0        1.656352    0.978846   -0.026413
 ---------------------------------------------------------------------

 SCF Done:  E(RB2PLYPD3) =  -132.528443973     A.U. after   12 cycles
 E2(B2PLYPD3) =    -0.1827486277D+00 E(B2PLYPD3) =    -0.13271119260035D+03

 The electronic state is 1-A.
 Alpha  occ. eigenvalues --  -14.85091 -10.67150 -10.66662  -1.03404  -0.89689
 Alpha  occ. eigenvalues --   -0.61669  -0.54173  -0.52831  -0.45155  -0.38699
 Alpha  occ. eigenvalues --   -0.38410
 Alpha virt. eigenvalues --    0.03706   0.06902   0.07297   0.09980   0.11327
 Alpha virt. eigenvalues --    0.11494   0.15632   0.15952   0.17630   0.20145
 Alpha virt. eigenvalues --    0.20362   0.25921   0.32650   0.34288   0.35346

 Mulliken charges:
               1
     1  C   -0.057591
     2  C    0.010054
     3  N   -0.215280
     4  H    0.081315
     5  H    0.091442
     6  H    0.090060
 Sum of Mulliken charges =   0.00000

 Dipole moment (field-independent basis, Debye):
    X=              4.1758    Y=             -0.0419    Z=             -0.0310  Tot=              4.1761
 Quadrupole moment (field-independent basis, Debye-Ang):
   XX=            -20.5656   YY=            -17.9103   ZZ=            -17.9773
   XY=              0.0795   XZ=              0.0455   YZ=             -0.0611

 Normal termination of Gaussian 09 at Wed Aug 26 22:32:48 2020.
