 Gaussian 09, Revision D.01,
 Gaussian 09:  ES64L-G09RevD.01 24-Apr-2013

 --------------------
 #p B2PLYPD3/Def2QZVP
 --------------------

 ------------
 cyanomethane
 ------------
 Symbolic Z-matrix:
 Charge =  0 Multiplicity = 1

                         Standard orientation:
 ---------------------------------------------------------------------
 Center     Atomic      Atomic             Coordinates (Angstroms)
 Number     Number       Type             X           Y           Z
 ---------------------------------------------------------------------
      1          6           0        1.165666   -0.005060   -0.009355
      2          6           0       -0.275925    0.013852   -0.005127
      3          7           0       -1.431927   -0.006342    0.007793
      4          1           0        1.610834   -0.417320    0.931370
      5          1           0        1.560733    1.016350   -0.096622
      6          1           0        1.513482   -0.607385   -0.802406
 ---------------------------------------------------------------------

 SCF Done:  E(RB2PLYPD3) =  -132.533556903     A.U. after   11 cycles
 E2(B2PLYPD3) =    -0.1806873410D+00 E(B2PLYPD3) =    -0.13271424424356D+03

 The electronic state is 1-A.
 Alpha  occ. eigenvalues --  -14.84286 -10.66980 -10.66302  -1.04126  -0.89454
 Alpha  occ. eigenvalues --   -0.60344  -0.54698  -0.52843  -0.44878  -0.39081
 Alpha  occ. eigenvalues --   -0.38864
 Alpha virt. eigenvalues --    0.03735   0.07356   0.08053   0.10141   0.11400
 Alpha virt. eigenvalues --    0.11685   0.15537   0.16316   0.16681   0.20054
 Alpha virt. eigenvalues --    0.20158   0.25648   0.32790   0.34184   0.35094

 Mulliken charges:
               1
     1  C   -0.077055
     2  C    0.000669
     3  N   -0.206684
     4  H    0.090149
     5  H    0.094097
     6  H    0.098824
 Sum of Mulliken charges =   0.00000

 Dipole moment (field-independent basis, Debye):
    X=              4.1296    Y=              0.0036    Z=             -0.0135  Tot=              4.1297
 Quadrupole moment (field-independent basis, Debye-Ang):
   XX=            -20.8835   YY=            -17.7382   ZZ=            -17.8306
   XY=             -0.0409   XZ=              0.1139   YZ=              0.0627

 Normal termination of Gaussian 09 at Wed Aug 26 23:59:51 2020.
