 Gaussian 09, Revision D.01,
 Gaussian 09:  ES64L-G09RevD.01 24-Apr-2013

 --------------------
 #p B2PLYPD3/Def2QZVP
 --------------------

 ------------
 cyanomethane
 ------------
 Symbolic Z-matrix:
 Charge =  0 Multiplicity = 1

                         Standard orientation:
 ---------------------------------------------------------------------
 Center     Atomic      Atomic             Coordinates (Angstroms)
 Number     Number       Type             X           Y           Z
 ---------------------------------------------------------------------
      1          6           0       -1.159214    0.004539    0.004711
      2          6           0        0.269205   -0.040387   -0.011386
      3          7           0        1.432834    0.021282    0.004642
      4          1           0       -1.550737   -0.212713    0.986303
      5          1           0       -1.564332   -0.716872   -0.689466
      6          1           0       -1.574714    0.995700   -0.289283
 ---------------------------------------------------------------------

 SCF Done:  E(RB2PLYPD3) =  -132.532894564     A.U. after   12 cycles
 E2(B2PLYPD3) =    -0.1815325989D+00 E(B2PLYPD3) =    -0.13271442716245D+03

 The electronic state is 1-A.
 Alpha  occ. eigenvalues --  -14.84560 -10.66871 -10.66529  -1.03820  -0.89650
 Alpha  occ. eigenvalues --   -0.60741  -0.54251  -0.53291  -0.44958  -0.38765
 Alpha  occ. eigenvalues --   -0.38658
 Alpha virt. eigenvalues --    0.03681   0.07160   0.07741   0.10057   0.11395
 Alpha virt. eigenvalues --    0.11617   0.15645   0.16150   0.16824   0.20093
 Alpha virt. eigenvalues --    0.20204   0.25956   0.32982   0.34320   0.34825

 Mulliken charges:
               1
     1  C   -0.072937
     2  C    0.003384
     3  N   -0.210775
     4  H    0.094761
     5  H    0.093066
     6  H    0.092501
 Sum of Mulliken charges =   0.00000

 Dipole moment (field-independent basis, Debye):
    X=             -4.1369    Y=             -0.0322    Z=             -0.0038  Tot=              4.1370
 Quadrupole moment (field-independent basis, Debye-Ang):
   XX=            -20.8460   YY=            -17.8272   ZZ=            -17.8008
   XY=             -0.1202   XZ=             -0.0152   YZ=              0.0102

 Normal termination of Gaussian 09 at Wed Aug 26 15:07:13 2020.
