 Gaussian 09, Revision D.01,
 Gaussian 09:  ES64L-G09RevD.01 24-Apr-2013

 --------------------
 #p B2PLYPD3/Def2QZVP
 --------------------

 ------------
 cyanomethane
 ------------
 Symbolic Z-matrix:
 Charge =  0 Multiplicity = 1

                         Standard orientation:
 ---------------------------------------------------------------------
 Center     Atomic      Atomic             Coordinates (Angstroms)
 Number     Number       Type             X           Y           Z
 ---------------------------------------------------------------------
      1          6           0        1.171168   -0.005839   -0.004714
      2          6           0       -0.284074    0.006488    0.034800
      3          7           0       -1.424145    0.000173   -0.019645
      4          1           0        1.593466    1.000157   -0.266617
      5          1           0        1.538396   -0.728422   -0.724273
      6          1           0        1.514591   -0.276839    0.947891
 ---------------------------------------------------------------------

 SCF Done:  E(RB2PLYPD3) =  -132.534248481     A.U. after   11 cycles
 E2(B2PLYPD3) =    -0.1793234903D+00 E(B2PLYPD3) =    -0.13271357197159D+03

 The electronic state is 1-A.
 Alpha  occ. eigenvalues --  -14.83822 -10.66869 -10.65834  -1.04660  -0.89336
 Alpha  occ. eigenvalues --   -0.59741  -0.54514  -0.53375  -0.44754  -0.39421
 Alpha  occ. eigenvalues --   -0.39348
 Alpha virt. eigenvalues --    0.03739   0.07771   0.08621   0.10180   0.11526
 Alpha virt. eigenvalues --    0.11693   0.15508   0.15994   0.16939   0.19996
 Alpha virt. eigenvalues --    0.20068   0.25488   0.32898   0.34544   0.34937

 Mulliken charges:
               1
     1  C   -0.083332
     2  C   -0.003409
     3  N   -0.199304
     4  H    0.093133
     5  H    0.096371
     6  H    0.096542
 Sum of Mulliken charges =   0.00000

 Dipole moment (field-independent basis, Debye):
    X=              4.0999    Y=             -0.0177    Z=              0.0444  Tot=              4.1002
 Quadrupole moment (field-independent basis, Debye-Ang):
   XX=            -20.9503   YY=            -17.6736   ZZ=            -17.7347
   XY=              0.0124   XZ=             -0.1114   YZ=              0.0012

 Normal termination of Gaussian 09 at Wed Aug 26 13:27:45 2020.
