 Gaussian 09, Revision D.01,
 Gaussian 09:  ES64L-G09RevD.01 24-Apr-2013

 --------------------
 #p B2PLYPD3/Def2QZVP
 --------------------

 ------------
 cyanomethane
 ------------
 Symbolic Z-matrix:
 Charge =  0 Multiplicity = 1

                         Standard orientation:
 ---------------------------------------------------------------------
 Center     Atomic      Atomic             Coordinates (Angstroms)
 Number     Number       Type             X           Y           Z
 ---------------------------------------------------------------------
      1          6           0       -1.165818    0.008955    0.001416
      2          6           0        0.279634   -0.019717   -0.029236
      3          7           0        1.424796    0.005219    0.009698
      4          1           0       -1.540706    0.949744   -0.483781
      5          1           0       -1.479634   -0.006924    1.089078
      6          1           0       -1.636127   -0.914784   -0.506261
 ---------------------------------------------------------------------

 SCF Done:  E(RB2PLYPD3) =  -132.530677784     A.U. after   12 cycles
 E2(B2PLYPD3) =    -0.1804141179D+00 E(B2PLYPD3) =    -0.13271109190166D+03

 The electronic state is 1-A.
 Alpha  occ. eigenvalues --  -14.83938 -10.68370 -10.65966  -1.04484  -0.88425
 Alpha  occ. eigenvalues --   -0.59111  -0.53412  -0.52592  -0.44764  -0.39146
 Alpha  occ. eigenvalues --   -0.38990
 Alpha virt. eigenvalues --    0.03502   0.07236   0.07586   0.10166   0.11667
 Alpha virt. eigenvalues --    0.11859   0.15360   0.16082   0.16534   0.20015
 Alpha virt. eigenvalues --    0.20076   0.25588   0.32294   0.33690   0.34166

 Mulliken charges:
               1
     1  C   -0.104105
     2  C    0.000572
     3  N   -0.200776
     4  H    0.103901
     5  H    0.102402
     6  H    0.098005
 Sum of Mulliken charges =   0.00000

 Dipole moment (field-independent basis, Debye):
    X=             -4.0802    Y=             -0.0007    Z=              0.0055  Tot=              4.0802
 Quadrupole moment (field-independent basis, Debye-Ang):
   XX=            -21.1828   YY=            -17.7039   ZZ=            -17.7907
   XY=              0.0283   XZ=             -0.0078   YZ=             -0.0352

 Normal termination of Gaussian 09 at Wed Aug 26 15:50:05 2020.
