 Gaussian 09, Revision D.01,
 Gaussian 09:  ES64L-G09RevD.01 24-Apr-2013

 --------------------
 #p B2PLYPD3/Def2QZVP
 --------------------

 ------------
 cyanomethane
 ------------
 Symbolic Z-matrix:
 Charge =  0 Multiplicity = 1

                         Standard orientation:
 ---------------------------------------------------------------------
 Center     Atomic      Atomic             Coordinates (Angstroms)
 Number     Number       Type             X           Y           Z
 ---------------------------------------------------------------------
      1          6           0        1.191328    0.018841    0.005113
      2          6           0       -0.275299   -0.016912   -0.031934
      3          7           0       -1.441133    0.007569    0.015893
      4          1           0        1.539181    0.956327   -0.360344
      5          1           0        1.526367   -0.837570   -0.634472
      6          1           0        1.526208   -0.183314    1.044488
 ---------------------------------------------------------------------

 SCF Done:  E(RB2PLYPD3) =  -132.531789663     A.U. after   12 cycles
 E2(B2PLYPD3) =    -0.1817238379D+00 E(B2PLYPD3) =    -0.13271351350066D+03

 The electronic state is 1-A.
 Alpha  occ. eigenvalues --  -14.84464 -10.67601 -10.66572  -1.03540  -0.88998
 Alpha  occ. eigenvalues --   -0.59006  -0.54827  -0.53182  -0.44713  -0.38849
 Alpha  occ. eigenvalues --   -0.38569
 Alpha virt. eigenvalues --    0.03641   0.07546   0.07934   0.10116   0.11118
 Alpha virt. eigenvalues --    0.11401   0.15210   0.15559   0.16455   0.20112
 Alpha virt. eigenvalues --    0.20175   0.25207   0.32330   0.33707   0.34965

 Mulliken charges:
               1
     1  C   -0.097212
     2  C    0.000267
     3  N   -0.212592
     4  H    0.107653
     5  H    0.099243
     6  H    0.102640
 Sum of Mulliken charges =   0.00000

 Dipole moment (field-independent basis, Debye):
    X=              4.1306    Y=             -0.0183    Z=             -0.0158  Tot=              4.1307
 Quadrupole moment (field-independent basis, Debye-Ang):
   XX=            -21.2507   YY=            -17.6967   ZZ=            -17.8024
   XY=              0.0282   XZ=              0.0912   YZ=             -0.0535

 Normal termination of Gaussian 09 at Wed Aug 26 16:05:43 2020.
