 Gaussian 09, Revision D.01,
 Gaussian 09:  ES64L-G09RevD.01 24-Apr-2013

 --------------------
 #p B2PLYPD3/Def2QZVP
 --------------------

 ------------
 cyanomethane
 ------------
 Symbolic Z-matrix:
 Charge =  0 Multiplicity = 1

                         Standard orientation:
 ---------------------------------------------------------------------
 Center     Atomic      Atomic             Coordinates (Angstroms)
 Number     Number       Type             X           Y           Z
 ---------------------------------------------------------------------
      1          6           0       -1.174946   -0.011454    0.003788
      2          6           0        0.269239    0.030029   -0.018328
      3          7           0        1.430241   -0.014800    0.006955
      4          1           0       -1.522855    1.029044   -0.036422
      5          1           0       -1.501366   -0.472727    0.919400
      6          1           0       -1.553225   -0.564159   -0.844422
 ---------------------------------------------------------------------

 SCF Done:  E(RB2PLYPD3) =  -132.534280114     A.U. after   11 cycles
 E2(B2PLYPD3) =    -0.1810659062D+00 E(B2PLYPD3) =    -0.13271534601998D+03

 The electronic state is 1-A.
 Alpha  occ. eigenvalues --  -14.84301 -10.66902 -10.66319  -1.03802  -0.89640
 Alpha  occ. eigenvalues --   -0.59618  -0.54489  -0.54186  -0.44745  -0.38822
 Alpha  occ. eigenvalues --   -0.38728
 Alpha virt. eigenvalues --    0.03772   0.07789   0.07914   0.10113   0.11377
 Alpha virt. eigenvalues --    0.11441   0.15459   0.15792   0.16436   0.20125
 Alpha virt. eigenvalues --    0.20158   0.25623   0.32784   0.34404   0.34841

 Mulliken charges:
               1
     1  C   -0.088244
     2  C   -0.000434
     3  N   -0.211084
     4  H    0.098026
     5  H    0.101705
     6  H    0.100032
 Sum of Mulliken charges =   0.00000

 Dipole moment (field-independent basis, Debye):
    X=             -4.1221    Y=              0.0168    Z=             -0.0039  Tot=              4.1221
 Quadrupole moment (field-independent basis, Debye-Ang):
   XX=            -21.1406   YY=            -17.7040   ZZ=            -17.7245
   XY=              0.0915   XZ=             -0.0097   YZ=              0.0018

 Normal termination of Gaussian 09 at Wed Aug 26 13:41:02 2020.
