 Gaussian 09, Revision D.01,
 Gaussian 09:  ES64L-G09RevD.01 24-Apr-2013

 --------------------
 #p B2PLYPD3/Def2QZVP
 --------------------

 ------------
 cyanomethane
 ------------
 Symbolic Z-matrix:
 Charge =  0 Multiplicity = 1

                         Standard orientation:
 ---------------------------------------------------------------------
 Center     Atomic      Atomic             Coordinates (Angstroms)
 Number     Number       Type             X           Y           Z
 ---------------------------------------------------------------------
      1          6           0        1.183816   -0.001317   -0.007288
      2          6           0       -0.279088   -0.002884    0.010169
      3          7           0       -1.435214    0.003065   -0.002333
      4          1           0        1.568012   -0.099398    1.015814
      5          1           0        1.543792    0.955757   -0.423461
      6          1           0        1.506321   -0.852615   -0.593309
 ---------------------------------------------------------------------

 SCF Done:  E(RB2PLYPD3) =  -132.535020659     A.U. after   11 cycles
 E2(B2PLYPD3) =    -0.1806582210D+00 E(B2PLYPD3) =    -0.13271567888050D+03

 The electronic state is 1-A.
 Alpha  occ. eigenvalues --  -14.84181 -10.67374 -10.66263  -1.03995  -0.89071
 Alpha  occ. eigenvalues --   -0.59216  -0.54435  -0.53502  -0.44719  -0.39040
 Alpha  occ. eigenvalues --   -0.38946
 Alpha virt. eigenvalues --    0.03722   0.07791   0.08062   0.10193   0.11348
 Alpha virt. eigenvalues --    0.11480   0.15273   0.16076   0.16295   0.20078
 Alpha virt. eigenvalues --    0.20123   0.25223   0.32586   0.34294   0.34713

 Mulliken charges:
               1
     1  C   -0.091691
     2  C   -0.002246
     3  N   -0.207255
     4  H    0.097415
     5  H    0.100875
     6  H    0.102901
 Sum of Mulliken charges =   0.00000

 Dipole moment (field-independent basis, Debye):
    X=              4.1253    Y=             -0.0084    Z=              0.0129  Tot=              4.1253
 Quadrupole moment (field-independent basis, Debye-Ang):
   XX=            -21.1332   YY=            -17.6566   ZZ=            -17.8077
   XY=              0.0331   XZ=              0.0532   YZ=              0.0206

 Normal termination of Gaussian 09 at Wed Aug 26 23:55:21 2020.
