 Gaussian 09, Revision D.01,
 Gaussian 09:  ES64L-G09RevD.01 24-Apr-2013

 --------------------
 #p B2PLYPD3/Def2QZVP
 --------------------

 ------------
 cyanomethane
 ------------
 Symbolic Z-matrix:
 Charge =  0 Multiplicity = 1

                         Standard orientation:
 ---------------------------------------------------------------------
 Center     Atomic      Atomic             Coordinates (Angstroms)
 Number     Number       Type             X           Y           Z
 ---------------------------------------------------------------------
      1          6           0        1.181265    0.005144   -0.007143
      2          6           0       -0.285316   -0.046537   -0.014284
      3          7           0       -1.410685    0.030483    0.011972
      4          1           0        1.552531   -0.005332    0.971757
      5          1           0        1.547748    0.918480   -0.453740
      6          1           0        1.398820   -0.878176   -0.473265
 ---------------------------------------------------------------------

 SCF Done:  E(RB2PLYPD3) =  -132.527660443     A.U. after   11 cycles
 E2(B2PLYPD3) =    -0.1779869358D+00 E(B2PLYPD3) =    -0.13270564737827D+03

 The electronic state is 1-A.
 Alpha  occ. eigenvalues --  -14.83272 -10.65895 -10.65254  -1.05075  -0.90134
 Alpha  occ. eigenvalues --   -0.59426  -0.56009  -0.53724  -0.44521  -0.39780
 Alpha  occ. eigenvalues --   -0.39626
 Alpha virt. eigenvalues --    0.03882   0.08443   0.09488   0.10271   0.11439
 Alpha virt. eigenvalues --    0.11787   0.15195   0.15770   0.17063   0.19896
 Alpha virt. eigenvalues --    0.20104   0.25340   0.33330   0.34763   0.35617

 Mulliken charges:
               1
     1  C   -0.088013
     2  C   -0.009899
     3  N   -0.193925
     4  H    0.090963
     5  H    0.098324
     6  H    0.102551
 Sum of Mulliken charges =   0.00000

 Dipole moment (field-independent basis, Debye):
    X=              4.0668    Y=             -0.0529    Z=              0.0168  Tot=              4.0672
 Quadrupole moment (field-independent basis, Debye-Ang):
   XX=            -21.0942   YY=            -17.3518   ZZ=            -17.7560
   XY=              0.2851   XZ=              0.2251   YZ=              0.0381

 Normal termination of Gaussian 09 at Wed Aug 26 23:07:30 2020.
