 Gaussian 09, Revision D.01,
 Gaussian 09:  ES64L-G09RevD.01 24-Apr-2013

 --------------------
 #p B2PLYPD3/Def2QZVP
 --------------------

 ------------
 cyanomethane
 ------------
 Symbolic Z-matrix:
 Charge =  0 Multiplicity = 1

                         Standard orientation:
 ---------------------------------------------------------------------
 Center     Atomic      Atomic             Coordinates (Angstroms)
 Number     Number       Type             X           Y           Z
 ---------------------------------------------------------------------
      1          6           0        1.186996    0.004543   -0.000522
      2          6           0       -0.286526   -0.017171   -0.004138
      3          7           0       -1.434148    0.006805    0.004786
      4          1           0        1.580838    0.003898    1.002590
      5          1           0        1.507256    0.911017   -0.499804
      6          1           0        1.548119   -0.886788   -0.508330
 ---------------------------------------------------------------------

 SCF Done:  E(RB2PLYPD3) =  -132.535788007     A.U. after   11 cycles
 E2(B2PLYPD3) =    -0.1798051301D+00 E(B2PLYPD3) =    -0.13271559313738D+03

 The electronic state is 1-A.
 Alpha  occ. eigenvalues --  -14.83981 -10.67081 -10.66077  -1.04322  -0.89087
 Alpha  occ. eigenvalues --   -0.59324  -0.54392  -0.53693  -0.44703  -0.39303
 Alpha  occ. eigenvalues --   -0.39265
 Alpha virt. eigenvalues --    0.03786   0.08138   0.08319   0.10228   0.11385
 Alpha virt. eigenvalues --    0.11493   0.15277   0.16174   0.16466   0.20025
 Alpha virt. eigenvalues --    0.20085   0.25056   0.32680   0.34710   0.34791

 Mulliken charges:
               1
     1  C   -0.086417
     2  C   -0.004231
     3  N   -0.202866
     4  H    0.095853
     5  H    0.099919
     6  H    0.097741
 Sum of Mulliken charges =   0.00000

 Dipole moment (field-independent basis, Debye):
    X=              4.1238    Y=             -0.0081    Z=              0.0037  Tot=              4.1238
 Quadrupole moment (field-independent basis, Debye-Ang):
   XX=            -21.0323   YY=            -17.6391   ZZ=            -17.7973
   XY=              0.0104   XZ=              0.0992   YZ=             -0.0071

 Normal termination of Gaussian 09 at Thu Aug 27 00:02:29 2020.
