 Gaussian 09, Revision D.01,
 Gaussian 09:  ES64L-G09RevD.01 24-Apr-2013

 --------------------
 #p B2PLYPD3/Def2QZVP
 --------------------

 ------------
 cyanomethane
 ------------
 Symbolic Z-matrix:
 Charge =  0 Multiplicity = 1

                         Standard orientation:
 ---------------------------------------------------------------------
 Center     Atomic      Atomic             Coordinates (Angstroms)
 Number     Number       Type             X           Y           Z
 ---------------------------------------------------------------------
      1          6           0       -1.174096    0.004860   -0.000499
      2          6           0        0.284502   -0.027903    0.013763
      3          7           0        1.433322    0.012002   -0.013961
      4          1           0       -1.564324    1.018929   -0.298327
      5          1           0       -1.482393   -0.212230    1.009938
      6          1           0       -1.648971   -0.752456   -0.693470
 ---------------------------------------------------------------------

 SCF Done:  E(RB2PLYPD3) =  -132.532402596     A.U. after   12 cycles
 E2(B2PLYPD3) =    -0.1804522159D+00 E(B2PLYPD3) =    -0.13271285481219D+03

 The electronic state is 1-A.
 Alpha  occ. eigenvalues --  -14.84124 -10.67780 -10.66196  -1.04344  -0.88691
 Alpha  occ. eigenvalues --   -0.59535  -0.53887  -0.52651  -0.44825  -0.39160
 Alpha  occ. eigenvalues --   -0.39124
 Alpha virt. eigenvalues --    0.03583   0.07224   0.08144   0.10171   0.11498
 Alpha virt. eigenvalues --    0.11657   0.15365   0.15889   0.17032   0.20024
 Alpha virt. eigenvalues --    0.20112   0.25401   0.32492   0.34154   0.34466

 Mulliken charges:
               1
     1  C   -0.090883
     2  C    0.000054
     3  N   -0.202671
     4  H    0.097876
     5  H    0.100345
     6  H    0.095279
 Sum of Mulliken charges =   0.00000

 Dipole moment (field-independent basis, Debye):
    X=             -4.1101    Y=             -0.0160    Z=              0.0401  Tot=              4.1103
 Quadrupole moment (field-independent basis, Debye-Ang):
   XX=            -20.9916   YY=            -17.7808   ZZ=            -17.7911
   XY=             -0.0355   XZ=              0.1532   YZ=             -0.0206

 Normal termination of Gaussian 09 at Wed Aug 26 11:50:41 2020.
