 Gaussian 09, Revision D.01,
 Gaussian 09:  ES64L-G09RevD.01 24-Apr-2013

 --------------------
 #p B2PLYPD3/Def2QZVP
 --------------------

 ------------
 cyanomethane
 ------------
 Symbolic Z-matrix:
 Charge =  0 Multiplicity = 1

                         Standard orientation:
 ---------------------------------------------------------------------
 Center     Atomic      Atomic             Coordinates (Angstroms)
 Number     Number       Type             X           Y           Z
 ---------------------------------------------------------------------
      1          6           0        1.177201    0.006483   -0.001117
      2          6           0       -0.284784    0.011929   -0.020871
      3          7           0       -1.436091   -0.006762    0.012635
      4          1           0        1.584310   -0.363734    0.957292
      5          1           0        1.565920    0.976016   -0.161598
      6          1           0        1.547903   -0.675417   -0.752212
 ---------------------------------------------------------------------

 SCF Done:  E(RB2PLYPD3) =  -132.534741052     A.U. after   11 cycles
 E2(B2PLYPD3) =    -0.1801786542D+00 E(B2PLYPD3) =    -0.13271491970622D+03

 The electronic state is 1-A.
 Alpha  occ. eigenvalues --  -14.84199 -10.66867 -10.66272  -1.04256  -0.89277
 Alpha  occ. eigenvalues --   -0.60118  -0.54642  -0.53066  -0.44848  -0.39309
 Alpha  occ. eigenvalues --   -0.39099
 Alpha virt. eigenvalues --    0.03760   0.07734   0.08300   0.10186   0.11299
 Alpha virt. eigenvalues --    0.11616   0.15447   0.16350   0.16735   0.20017
 Alpha virt. eigenvalues --    0.20121   0.25298   0.32796   0.34390   0.35238

 Mulliken charges:
               1
     1  C   -0.074638
     2  C   -0.000811
     3  N   -0.204294
     4  H    0.090323
     5  H    0.096145
     6  H    0.093274
 Sum of Mulliken charges =   0.00000

 Dipole moment (field-independent basis, Debye):
    X=              4.1339    Y=              0.0015    Z=             -0.0175  Tot=              4.1339
 Quadrupole moment (field-independent basis, Debye-Ang):
   XX=            -20.8433   YY=            -17.7084   ZZ=            -17.8475
   XY=             -0.0570   XZ=              0.1031   YZ=              0.0115

 Normal termination of Gaussian 09 at Wed Aug 26 23:32:52 2020.
