 Gaussian 09, Revision D.01,
 Gaussian 09:  ES64L-G09RevD.01 24-Apr-2013

 --------------------
 #p B2PLYPD3/Def2QZVP
 --------------------

 ------------
 cyanomethane
 ------------
 Symbolic Z-matrix:
 Charge =  0 Multiplicity = 1

                         Standard orientation:
 ---------------------------------------------------------------------
 Center     Atomic      Atomic             Coordinates (Angstroms)
 Number     Number       Type             X           Y           Z
 ---------------------------------------------------------------------
      1          6           0       -1.179098   -0.011448   -0.000901
      2          6           0        0.279022    0.025238   -0.005854
      3          7           0        1.439190   -0.012818    0.001805
      4          1           0       -1.548956    1.004536   -0.095815
      5          1           0       -1.544922   -0.406232    0.920582
      6          1           0       -1.579997   -0.591319   -0.796873
 ---------------------------------------------------------------------

 SCF Done:  E(RB2PLYPD3) =  -132.534399732     A.U. after   11 cycles
 E2(B2PLYPD3) =    -0.1808261247D+00 E(B2PLYPD3) =    -0.13271522585655D+03

 The electronic state is 1-A.
 Alpha  occ. eigenvalues --  -14.84420 -10.66613 -10.66488  -1.03897  -0.89579
 Alpha  occ. eigenvalues --   -0.60263  -0.54339  -0.53958  -0.44860  -0.39038
 Alpha  occ. eigenvalues --   -0.38928
 Alpha virt. eigenvalues --    0.03825   0.07885   0.07994   0.10148   0.11340
 Alpha virt. eigenvalues --    0.11387   0.15460   0.16081   0.16799   0.20097
 Alpha virt. eigenvalues --    0.20141   0.25378   0.32763   0.34666   0.35191

 Mulliken charges:
               1
     1  C   -0.072589
     2  C    0.000593
     3  N   -0.209202
     4  H    0.091903
     5  H    0.094462
     6  H    0.094834
 Sum of Mulliken charges =   0.00000

 Dipole moment (field-independent basis, Debye):
    X=             -4.1473    Y=              0.0180    Z=              0.0031  Tot=              4.1474
 Quadrupole moment (field-independent basis, Debye-Ang):
   XX=            -20.8654   YY=            -17.7761   ZZ=            -17.7864
   XY=              0.0807   XZ=             -0.0001   YZ=              0.0097

 Normal termination of Gaussian 09 at Wed Aug 26 23:56:51 2020.
