 Gaussian 09, Revision D.01,
 Gaussian 09:  ES64L-G09RevD.01 24-Apr-2013

 --------------------
 #p B2PLYPD3/Def2QZVP
 --------------------

 ------------
 cyanomethane
 ------------
 Symbolic Z-matrix:
 Charge =  0 Multiplicity = 1

                         Standard orientation:
 ---------------------------------------------------------------------
 Center     Atomic      Atomic             Coordinates (Angstroms)
 Number     Number       Type             X           Y           Z
 ---------------------------------------------------------------------
      1          6           0       -1.150038   -0.000527    0.008039
      2          6           0        0.273775   -0.040674   -0.020205
      3          7           0        1.436211    0.028733    0.007477
      4          1           0       -1.532585   -0.404017    0.940032
      5          1           0       -1.565525   -0.610158   -0.807078
      6          1           0       -1.697792    1.060255   -0.112299
 ---------------------------------------------------------------------

 SCF Done:  E(RB2PLYPD3) =  -132.524238300     A.U. after   12 cycles
 E2(B2PLYPD3) =    -0.1822145240D+00 E(B2PLYPD3) =    -0.13270645282373D+03

 The electronic state is 1-A.
 Alpha  occ. eigenvalues --  -14.84714 -10.67857 -10.66673  -1.03960  -0.89024
 Alpha  occ. eigenvalues --   -0.60805  -0.53879  -0.51540  -0.45112  -0.38799
 Alpha  occ. eigenvalues --   -0.38526
 Alpha virt. eigenvalues --    0.03220   0.06252   0.07558   0.09987   0.11472
 Alpha virt. eigenvalues --    0.11828   0.15655   0.16004   0.17406   0.20050
 Alpha virt. eigenvalues --    0.20338   0.26069   0.32226   0.33488   0.34626

 Mulliken charges:
               1
     1  C   -0.078205
     2  C    0.006769
     3  N   -0.207963
     4  H    0.097090
     5  H    0.093263
     6  H    0.089046
 Sum of Mulliken charges =   0.00000

 Dipole moment (field-independent basis, Debye):
    X=             -4.1227    Y=             -0.0815    Z=             -0.0018  Tot=              4.1235
 Quadrupole moment (field-independent basis, Debye-Ang):
   XX=            -20.7410   YY=            -17.9374   ZZ=            -17.9059
   XY=             -0.1917   XZ=             -0.0195   YZ=             -0.0025

 Normal termination of Gaussian 09 at Wed Aug 26 18:30:42 2020.
