 Gaussian 09, Revision D.01,
 Gaussian 09:  ES64L-G09RevD.01 24-Apr-2013

 --------------------
 #p B2PLYPD3/Def2QZVP
 --------------------

 ------------
 cyanomethane
 ------------
 Symbolic Z-matrix:
 Charge =  0 Multiplicity = 1

                         Standard orientation:
 ---------------------------------------------------------------------
 Center     Atomic      Atomic             Coordinates (Angstroms)
 Number     Number       Type             X           Y           Z
 ---------------------------------------------------------------------
      1          6           0       -1.184248    0.003578    0.025572
      2          6           0        0.286199   -0.019334   -0.080320
      3          7           0        1.437602    0.006658    0.034156
      4          1           0       -1.481622   -0.057373    0.991607
      5          1           0       -1.639572   -0.818026   -0.504474
      6          1           0       -1.553730    0.923325   -0.397736
 ---------------------------------------------------------------------

 SCF Done:  E(RB2PLYPD3) =  -132.530259721     A.U. after   12 cycles
 E2(B2PLYPD3) =    -0.1804654128D+00 E(B2PLYPD3) =    -0.13271072513372D+03

 The electronic state is 1-A.
 Alpha  occ. eigenvalues --  -14.84401 -10.66456 -10.66227  -1.04070  -0.89639
 Alpha  occ. eigenvalues --   -0.60240  -0.54823  -0.53817  -0.44887  -0.39229
 Alpha  occ. eigenvalues --   -0.39150
 Alpha virt. eigenvalues --    0.03803   0.07920   0.08218   0.10179   0.11206
 Alpha virt. eigenvalues --    0.11441   0.15435   0.16262   0.16707   0.20011
 Alpha virt. eigenvalues --    0.20069   0.25542   0.32651   0.34842   0.35597

 Mulliken charges:
               1
     1  C   -0.068939
     2  C    0.002633
     3  N   -0.207377
     4  H    0.096745
     5  H    0.086643
     6  H    0.090295
 Sum of Mulliken charges =   0.00000

 Dipole moment (field-independent basis, Debye):
    X=             -4.1227    Y=             -0.0076    Z=             -0.0268  Tot=              4.1228
 Quadrupole moment (field-independent basis, Debye-Ang):
   XX=            -20.7869   YY=            -17.7453   ZZ=            -17.7961
   XY=              0.0132   XZ=             -0.1378   YZ=             -0.0280

 Normal termination of Gaussian 09 at Wed Aug 26 23:55:17 2020.
