 Gaussian 09, Revision D.01,
 Gaussian 09:  ES64L-G09RevD.01 24-Apr-2013

 --------------------
 #p B2PLYPD3/Def2QZVP
 --------------------

 ------------
 cyanomethane
 ------------
 Symbolic Z-matrix:
 Charge =  0 Multiplicity = 1

                         Standard orientation:
 ---------------------------------------------------------------------
 Center     Atomic      Atomic             Coordinates (Angstroms)
 Number     Number       Type             X           Y           Z
 ---------------------------------------------------------------------
      1          6           0        1.176392    0.004450   -0.007493
      2          6           0       -0.283815    0.005014   -0.014059
      3          7           0       -1.438251   -0.004120    0.012009
      4          1           0        1.624915   -0.290286    0.976872
      5          1           0        1.545073    0.980957   -0.226489
      6          1           0        1.542307   -0.718608   -0.705138
 ---------------------------------------------------------------------

 SCF Done:  E(RB2PLYPD3) =  -132.533760463     A.U. after   12 cycles
 E2(B2PLYPD3) =    -0.1805078428D+00 E(B2PLYPD3) =    -0.13271426830531D+03

 The electronic state is 1-A.
 Alpha  occ. eigenvalues --  -14.84296 -10.67009 -10.66374  -1.04158  -0.89219
 Alpha  occ. eigenvalues --   -0.60159  -0.54812  -0.52654  -0.44876  -0.39245
 Alpha  occ. eigenvalues --   -0.38999
 Alpha virt. eigenvalues --    0.03726   0.07493   0.08253   0.10181   0.11267
 Alpha virt. eigenvalues --    0.11638   0.15427   0.16363   0.16754   0.20017
 Alpha virt. eigenvalues --    0.20151   0.25311   0.32665   0.34281   0.35240

 Mulliken charges:
               1
     1  C   -0.075060
     2  C    0.000056
     3  N   -0.205477
     4  H    0.088080
     5  H    0.096831
     6  H    0.095569
 Sum of Mulliken charges =   0.00000

 Dipole moment (field-independent basis, Debye):
    X=              4.1384    Y=             -0.0002    Z=             -0.0180  Tot=              4.1385
 Quadrupole moment (field-independent basis, Debye-Ang):
   XX=            -20.8349   YY=            -17.7016   ZZ=            -17.9017
   XY=             -0.0575   XZ=              0.1369   YZ=              0.0294

 Normal termination of Gaussian 09 at Thu Aug 27 00:14:08 2020.
