 Gaussian 09, Revision D.01,
 Gaussian 09:  ES64L-G09RevD.01 24-Apr-2013

 --------------------
 #p B2PLYPD3/Def2QZVP
 --------------------

 ------------
 cyanomethane
 ------------
 Symbolic Z-matrix:
 Charge =  0 Multiplicity = 1

                         Standard orientation:
 ---------------------------------------------------------------------
 Center     Atomic      Atomic             Coordinates (Angstroms)
 Number     Number       Type             X           Y           Z
 ---------------------------------------------------------------------
      1          6           0        1.182002   -0.006396    0.003796
      2          6           0       -0.281018    0.007997   -0.016738
      3          7           0       -1.433580   -0.004361    0.009870
      4          1           0        1.563117    0.018587    1.016787
      5          1           0        1.523355    0.909076   -0.513185
      6          1           0        1.542680   -0.906741   -0.495043
 ---------------------------------------------------------------------

 SCF Done:  E(RB2PLYPD3) =  -132.535198588     A.U. after   11 cycles
 E2(B2PLYPD3) =    -0.1803706662D+00 E(B2PLYPD3) =    -0.13271556925450D+03

 The electronic state is 1-A.
 Alpha  occ. eigenvalues --  -14.84112 -10.67299 -10.66187  -1.04141  -0.89067
 Alpha  occ. eigenvalues --   -0.59397  -0.54209  -0.53585  -0.44733  -0.39137
 Alpha  occ. eigenvalues --   -0.39037
 Alpha virt. eigenvalues --    0.03738   0.07883   0.08062   0.10175   0.11389
 Alpha virt. eigenvalues --    0.11520   0.15335   0.15992   0.16525   0.20055
 Alpha virt. eigenvalues --    0.20112   0.25252   0.32647   0.34321   0.34765

 Mulliken charges:
               1
     1  C   -0.089715
     2  C   -0.002243
     3  N   -0.205457
     4  H    0.098436
     5  H    0.098240
     6  H    0.100739
 Sum of Mulliken charges =   0.00000

 Dipole moment (field-independent basis, Debye):
    X=              4.1197    Y=              0.0097    Z=             -0.0017  Tot=              4.1197
 Quadrupole moment (field-independent basis, Debye-Ang):
   XX=            -21.0908   YY=            -17.6590   ZZ=            -17.8018
   XY=             -0.0296   XZ=              0.1117   YZ=              0.0176

 Normal termination of Gaussian 09 at Wed Aug 26 10:16:35 2020.
