 Gaussian 09, Revision D.01,
 Gaussian 09:  ES64L-G09RevD.01 24-Apr-2013

 --------------------
 #p B2PLYPD3/Def2QZVP
 --------------------

 ------------
 cyanomethane
 ------------
 Symbolic Z-matrix:
 Charge =  0 Multiplicity = 1

                         Standard orientation:
 ---------------------------------------------------------------------
 Center     Atomic      Atomic             Coordinates (Angstroms)
 Number     Number       Type             X           Y           Z
 ---------------------------------------------------------------------
      1          6           0       -1.183327   -0.030791   -0.022418
      2          6           0        0.281496    0.065129    0.011998
      3          7           0        1.424548   -0.031939   -0.009034
      4          1           0       -1.450371   -0.112356    0.984261
      5          1           0       -1.571990   -0.799043   -0.519239
      6          1           0       -1.538493    0.928945   -0.339263
 ---------------------------------------------------------------------

 SCF Done:  E(RB2PLYPD3) =  -132.524820956     A.U. after   12 cycles
 E2(B2PLYPD3) =    -0.1794930188D+00 E(B2PLYPD3) =    -0.13270431397525D+03

 The electronic state is 1-A.
 Alpha  occ. eigenvalues --  -14.83949 -10.65985 -10.65557  -1.04400  -0.90378
 Alpha  occ. eigenvalues --   -0.60465  -0.55630  -0.54149  -0.44723  -0.39495
 Alpha  occ. eigenvalues --   -0.39133
 Alpha virt. eigenvalues --    0.03918   0.08287   0.08986   0.09982   0.11335
 Alpha virt. eigenvalues --    0.11592   0.15282   0.15588   0.17480   0.20026
 Alpha virt. eigenvalues --    0.20187   0.25574   0.33084   0.34605   0.35893

 Mulliken charges:
               1
     1  C   -0.074048
     2  C    0.000044
     3  N   -0.204426
     4  H    0.089711
     5  H    0.097605
     6  H    0.091113
 Sum of Mulliken charges =   0.00000

 Dipole moment (field-independent basis, Debye):
    X=             -4.1045    Y=              0.0483    Z=              0.0638  Tot=              4.1053
 Quadrupole moment (field-independent basis, Debye-Ang):
   XX=            -20.9208   YY=            -17.5168   ZZ=            -17.7892
   XY=              0.1845   XZ=              0.0133   YZ=              0.0545

 Normal termination of Gaussian 09 at Wed Aug 26 22:50:18 2020.
