 Gaussian 09, Revision D.01,
 Gaussian 09:  ES64L-G09RevD.01 24-Apr-2013

 --------------------
 #p B2PLYPD3/Def2QZVP
 --------------------

 ------------
 cyanomethane
 ------------
 Symbolic Z-matrix:
 Charge =  0 Multiplicity = 1

                         Standard orientation:
 ---------------------------------------------------------------------
 Center     Atomic      Atomic             Coordinates (Angstroms)
 Number     Number       Type             X           Y           Z
 ---------------------------------------------------------------------
      1          6           0       -1.163868    0.008370   -0.003789
      2          6           0        0.273172   -0.005017    0.025827
      3          7           0        1.435112    0.002042   -0.013657
      4          1           0       -1.558629   -0.375764    0.934337
      5          1           0       -1.569619   -0.654359   -0.799395
      6          1           0       -1.573359    0.995713   -0.171573
 ---------------------------------------------------------------------

 SCF Done:  E(RB2PLYPD3) =  -132.533816111     A.U. after   11 cycles
 E2(B2PLYPD3) =    -0.1812998226D+00 E(B2PLYPD3) =    -0.13271511593390D+03

 The electronic state is 1-A.
 Alpha  occ. eigenvalues --  -14.84492 -10.67051 -10.66504  -1.03900  -0.89431
 Alpha  occ. eigenvalues --   -0.60564  -0.54091  -0.53220  -0.44936  -0.38883
 Alpha  occ. eigenvalues --   -0.38738
 Alpha virt. eigenvalues --    0.03713   0.07320   0.07684   0.10095   0.11418
 Alpha virt. eigenvalues --    0.11596   0.15574   0.16192   0.16820   0.20096
 Alpha virt. eigenvalues --    0.20171   0.25756   0.32845   0.34256   0.34875

 Mulliken charges:
               1
     1  C   -0.074897
     2  C    0.002582
     3  N   -0.209391
     4  H    0.093201
     5  H    0.092294
     6  H    0.096212
 Sum of Mulliken charges =   0.00000

 Dipole moment (field-independent basis, Debye):
    X=             -4.1389    Y=             -0.0086    Z=              0.0217  Tot=              4.1390
 Quadrupole moment (field-independent basis, Debye-Ang):
   XX=            -20.8573   YY=            -17.7872   ZZ=            -17.8466
   XY=              0.0008   XZ=              0.0783   YZ=             -0.0243

 Normal termination of Gaussian 09 at Thu Aug 27 00:08:52 2020.
