 Gaussian 09, Revision D.01,
 Gaussian 09:  ES64L-G09RevD.01 24-Apr-2013

 --------------------
 #p B2PLYPD3/Def2QZVP
 --------------------

 ------------
 cyanomethane
 ------------
 Symbolic Z-matrix:
 Charge =  0 Multiplicity = 1

                         Standard orientation:
 ---------------------------------------------------------------------
 Center     Atomic      Atomic             Coordinates (Angstroms)
 Number     Number       Type             X           Y           Z
 ---------------------------------------------------------------------
      1          6           0        1.192628   -0.021909    0.005783
      2          6           0       -0.283424    0.038820   -0.062862
      3          7           0       -1.440335   -0.024924    0.034317
      4          1           0        1.570640    0.033044    0.990157
      5          1           0        1.450985    0.935541   -0.440450
      6          1           0        1.605502   -0.895582   -0.447452
 ---------------------------------------------------------------------

 SCF Done:  E(RB2PLYPD3) =  -132.527714109     A.U. after   12 cycles
 E2(B2PLYPD3) =    -0.1813105395D+00 E(B2PLYPD3) =    -0.13270902464891D+03

 The electronic state is 1-A.
 Alpha  occ. eigenvalues --  -14.84486 -10.66780 -10.66582  -1.03796  -0.89369
 Alpha  occ. eigenvalues --   -0.60057  -0.55172  -0.52827  -0.44816  -0.39149
 Alpha  occ. eigenvalues --   -0.38724
 Alpha virt. eigenvalues --    0.03685   0.07527   0.08380   0.09894   0.11006
 Alpha virt. eigenvalues --    0.11576   0.15133   0.15646   0.17362   0.19989
 Alpha virt. eigenvalues --    0.20245   0.25371   0.32644   0.34089   0.35506

 Mulliken charges:
               1
     1  C   -0.082129
     2  C    0.003912
     3  N   -0.209874
     4  H    0.092294
     5  H    0.094858
     6  H    0.100938
 Sum of Mulliken charges =   0.00000

 Dipole moment (field-independent basis, Debye):
    X=              4.1196    Y=              0.0540    Z=             -0.0034  Tot=              4.1200
 Quadrupole moment (field-independent basis, Debye-Ang):
   XX=            -20.9907   YY=            -17.5437   ZZ=            -18.0015
   XY=             -0.2068   XZ=              0.3271   YZ=              0.0551

 Normal termination of Gaussian 09 at Wed Aug 26 16:29:12 2020.
