 Gaussian 09, Revision D.01,
 Gaussian 09:  ES64L-G09RevD.01 24-Apr-2013

 --------------------
 #p B2PLYPD3/Def2QZVP
 --------------------

 ------------
 cyanomethane
 ------------
 Symbolic Z-matrix:
 Charge =  0 Multiplicity = 1

                         Standard orientation:
 ---------------------------------------------------------------------
 Center     Atomic      Atomic             Coordinates (Angstroms)
 Number     Number       Type             X           Y           Z
 ---------------------------------------------------------------------
      1          6           0       -1.172596    0.025556    0.000895
      2          6           0        0.271295    0.018125    0.062722
      3          7           0        1.455395   -0.019933   -0.025173
      4          1           0       -1.472613    0.986091   -0.284111
      5          1           0       -1.729005   -0.369529    0.886937
      6          1           0       -1.578344   -0.739120   -0.808310
 ---------------------------------------------------------------------

 SCF Done:  E(RB2PLYPD3) =  -132.519513368     A.U. after   12 cycles
 E2(B2PLYPD3) =    -0.1841845515D+00 E(B2PLYPD3) =    -0.13270369791955D+03

 The electronic state is 1-A.
 Alpha  occ. eigenvalues --  -14.85337 -10.67884 -10.67446  -1.02981  -0.88980
 Alpha  occ. eigenvalues --   -0.60686  -0.55276  -0.50784  -0.45124  -0.38541
 Alpha  occ. eigenvalues --   -0.37898
 Alpha virt. eigenvalues --    0.03191   0.06089   0.07332   0.10086   0.10865
 Alpha virt. eigenvalues --    0.11689   0.15293   0.16229   0.16919   0.20068
 Alpha virt. eigenvalues --    0.20332   0.25704   0.32038   0.32566   0.35518

 Mulliken charges:
               1
     1  C   -0.078301
     2  C    0.010264
     3  N   -0.218117
     4  H    0.105923
     5  H    0.093420
     6  H    0.086812
 Sum of Mulliken charges =   0.00000

 Dipole moment (field-independent basis, Debye):
    X=             -4.1717    Y=              0.0058    Z=              0.0166  Tot=              4.1717
 Quadrupole moment (field-independent basis, Debye-Ang):
   XX=            -20.7873   YY=            -17.8059   ZZ=            -18.1832
   XY=              0.3080   XZ=              0.0421   YZ=             -0.1340

 Normal termination of Gaussian 09 at Wed Aug 26 21:50:35 2020.
