 Gaussian 09, Revision D.01,
 Gaussian 09:  ES64L-G09RevD.01 24-Apr-2013

 --------------------
 #p B2PLYPD3/Def2QZVP
 --------------------

 ------------
 cyanomethane
 ------------
 Symbolic Z-matrix:
 Charge =  0 Multiplicity = 1

                         Standard orientation:
 ---------------------------------------------------------------------
 Center     Atomic      Atomic             Coordinates (Angstroms)
 Number     Number       Type             X           Y           Z
 ---------------------------------------------------------------------
      1          6           0       -1.183770    0.001864   -0.000081
      2          6           0        0.290835    0.023863   -0.007725
      3          7           0        1.433914   -0.006907    0.006793
      4          1           0       -1.584496   -0.195413    1.023121
      5          1           0       -1.477455   -0.883804   -0.644998
      6          1           0       -1.617840    0.973204   -0.378836
 ---------------------------------------------------------------------

 SCF Done:  E(RB2PLYPD3) =  -132.531854115     A.U. after   12 cycles
 E2(B2PLYPD3) =    -0.1800786068D+00 E(B2PLYPD3) =    -0.13271193272170D+03

 The electronic state is 1-A.
 Alpha  occ. eigenvalues --  -14.83900 -10.68398 -10.66031  -1.04519  -0.88066
 Alpha  occ. eigenvalues --   -0.58880  -0.53382  -0.52589  -0.44718  -0.39383
 Alpha  occ. eigenvalues --   -0.39198
 Alpha virt. eigenvalues --    0.03532   0.07634   0.07829   0.10226   0.11493
 Alpha virt. eigenvalues --    0.11750   0.15153   0.16040   0.16680   0.19968
 Alpha virt. eigenvalues --    0.20077   0.25044   0.32255   0.33645   0.34394

 Mulliken charges:
               1
     1  C   -0.102562
     2  C   -0.001746
     3  N   -0.199097
     4  H    0.099468
     5  H    0.101897
     6  H    0.102040
 Sum of Mulliken charges =   0.00000

 Dipole moment (field-independent basis, Debye):
    X=             -4.0999    Y=             -0.0075    Z=              0.0063  Tot=              4.0999
 Quadrupole moment (field-independent basis, Debye-Ang):
   XX=            -21.1451   YY=            -17.6401   ZZ=            -17.8773
   XY=             -0.0210   XZ=             -0.1289   YZ=             -0.0084

 Normal termination of Gaussian 09 at Wed Aug 26 14:14:18 2020.
