 Gaussian 09, Revision D.01,
 Gaussian 09:  ES64L-G09RevD.01 24-Apr-2013

 --------------------
 #p B2PLYPD3/Def2QZVP
 --------------------

 ------------
 cyanomethane
 ------------
 Symbolic Z-matrix:
 Charge =  0 Multiplicity = 1

                         Standard orientation:
 ---------------------------------------------------------------------
 Center     Atomic      Atomic             Coordinates (Angstroms)
 Number     Number       Type             X           Y           Z
 ---------------------------------------------------------------------
      1          6           0        1.173649   -0.013461    0.000445
      2          6           0       -0.276863    0.004416   -0.014284
      3          7           0       -1.440946    0.000302    0.008100
      4          1           0        1.582760    1.025514   -0.109735
      5          1           0        1.552119   -0.592289   -0.780151
      6          1           0        1.571031   -0.381068    0.916221
 ---------------------------------------------------------------------

 SCF Done:  E(RB2PLYPD3) =  -132.532220676     A.U. after   11 cycles
 E2(B2PLYPD3) =    -0.1812114839D+00 E(B2PLYPD3) =    -0.13271343216017D+03

 The electronic state is 1-A.
 Alpha  occ. eigenvalues --  -14.84561 -10.66670 -10.66608  -1.03807  -0.89635
 Alpha  occ. eigenvalues --   -0.60675  -0.54793  -0.53123  -0.44932  -0.38996
 Alpha  occ. eigenvalues --   -0.38772
 Alpha virt. eigenvalues --    0.03778   0.07444   0.08014   0.10141   0.11258
 Alpha virt. eigenvalues --    0.11516   0.15509   0.16382   0.16671   0.20100
 Alpha virt. eigenvalues --    0.20170   0.25481   0.32632   0.34313   0.35389

 Mulliken charges:
               1
     1  C   -0.068733
     2  C    0.002423
     3  N   -0.210446
     4  H    0.088387
     5  H    0.095411
     6  H    0.092959
 Sum of Mulliken charges =   0.00000

 Dipole moment (field-independent basis, Debye):
    X=              4.1539    Y=             -0.0113    Z=             -0.0054  Tot=              4.1539
 Quadrupole moment (field-independent basis, Debye-Ang):
   XX=            -20.7978   YY=            -17.8119   ZZ=            -17.8248
   XY=              0.0019   XZ=              0.0689   YZ=              0.0346

 Normal termination of Gaussian 09 at Wed Aug 26 09:37:14 2020.
