 Gaussian 09, Revision D.01,
 Gaussian 09:  ES64L-G09RevD.01 24-Apr-2013

 --------------------
 #p B2PLYPD3/Def2QZVP
 --------------------

 ------------
 cyanomethane
 ------------
 Symbolic Z-matrix:
 Charge =  0 Multiplicity = 1

                         Standard orientation:
 ---------------------------------------------------------------------
 Center     Atomic      Atomic             Coordinates (Angstroms)
 Number     Number       Type             X           Y           Z
 ---------------------------------------------------------------------
      1          6           0       -1.166521    0.005665    0.009348
      2          6           0        0.280692   -0.001099   -0.018668
      3          7           0        1.430315    0.000665    0.009679
      4          1           0       -1.577704   -0.034478    1.010630
      5          1           0       -1.550858   -0.884956   -0.531314
      6          1           0       -1.568664    0.887376   -0.491146
 ---------------------------------------------------------------------

 SCF Done:  E(RB2PLYPD3) =  -132.535257471     A.U. after   11 cycles
 E2(B2PLYPD3) =    -0.1801889613D+00 E(B2PLYPD3) =    -0.13271544643250D+03

 The electronic state is 1-A.
 Alpha  occ. eigenvalues --  -14.84127 -10.67134 -10.66156  -1.04368  -0.89192
 Alpha  occ. eigenvalues --   -0.60248  -0.53869  -0.53289  -0.44861  -0.39218
 Alpha  occ. eigenvalues --   -0.39078
 Alpha virt. eigenvalues --    0.03744   0.07722   0.07860   0.10143   0.11543
 Alpha virt. eigenvalues --    0.11660   0.15531   0.16225   0.16885   0.20057
 Alpha virt. eigenvalues --    0.20088   0.25577   0.32853   0.34276   0.34927

 Mulliken charges:
               1
     1  C   -0.078696
     2  C    0.000056
     3  N   -0.203276
     4  H    0.095609
     5  H    0.091749
     6  H    0.094559
 Sum of Mulliken charges =   0.00000

 Dipole moment (field-independent basis, Debye):
    X=             -4.1196    Y=             -0.0048    Z=             -0.0142  Tot=              4.1196
 Quadrupole moment (field-independent basis, Debye-Ang):
   XX=            -20.8797   YY=            -17.7749   ZZ=            -17.7775
   XY=             -0.0049   XZ=             -0.0679   YZ=             -0.0213

 Normal termination of Gaussian 09 at Thu Aug 27 00:13:02 2020.
