 Gaussian 09, Revision D.01,
 Gaussian 09:  ES64L-G09RevD.01 24-Apr-2013

 --------------------
 #p B2PLYPD3/Def2QZVP
 --------------------

 ------------
 cyanomethane
 ------------
 Symbolic Z-matrix:
 Charge =  0 Multiplicity = 1

                         Standard orientation:
 ---------------------------------------------------------------------
 Center     Atomic      Atomic             Coordinates (Angstroms)
 Number     Number       Type             X           Y           Z
 ---------------------------------------------------------------------
      1          6           0        1.169437    0.008475    0.004400
      2          6           0       -0.272141    0.004404   -0.013768
      3          7           0       -1.434041   -0.005019    0.003383
      4          1           0        1.533094    1.013060   -0.104668
      5          1           0        1.603395   -0.631991   -0.787230
      6          1           0        1.518022   -0.423209    0.924431
 ---------------------------------------------------------------------

 SCF Done:  E(RB2PLYPD3) =  -132.534072557     A.U. after   11 cycles
 E2(B2PLYPD3) =    -0.1810865612D+00 E(B2PLYPD3) =    -0.13271515911798D+03

 The electronic state is 1-A.
 Alpha  occ. eigenvalues --  -14.84400 -10.66847 -10.66426  -1.03867  -0.89620
 Alpha  occ. eigenvalues --   -0.60245  -0.54825  -0.53250  -0.44852  -0.38924
 Alpha  occ. eigenvalues --   -0.38725
 Alpha virt. eigenvalues --    0.03780   0.07493   0.07932   0.10145   0.11301
 Alpha virt. eigenvalues --    0.11610   0.15496   0.16224   0.16536   0.20084
 Alpha virt. eigenvalues --    0.20187   0.25630   0.32766   0.34418   0.35015

 Mulliken charges:
               1
     1  C   -0.077438
     2  C    0.000692
     3  N   -0.210063
     4  H    0.099316
     5  H    0.091572
     6  H    0.095921
 Sum of Mulliken charges =   0.00000

 Dipole moment (field-independent basis, Debye):
    X=              4.1408    Y=             -0.0093    Z=              0.0098  Tot=              4.1408
 Quadrupole moment (field-independent basis, Debye-Ang):
   XX=            -20.9393   YY=            -17.6644   ZZ=            -17.8852
   XY=             -0.1018   XZ=             -0.0070   YZ=             -0.0342

 Normal termination of Gaussian 09 at Thu Aug 27 00:09:24 2020.
