 Gaussian 09, Revision D.01,
 Gaussian 09:  ES64L-G09RevD.01 24-Apr-2013

 --------------------
 #p B2PLYPD3/Def2QZVP
 --------------------

 ------------
 cyanomethane
 ------------
 Symbolic Z-matrix:
 Charge =  0 Multiplicity = 1

                         Standard orientation:
 ---------------------------------------------------------------------
 Center     Atomic      Atomic             Coordinates (Angstroms)
 Number     Number       Type             X           Y           Z
 ---------------------------------------------------------------------
      1          6           0       -1.170784    0.012425    0.008694
      2          6           0        0.278401    0.006614   -0.013446
      3          7           0        1.426712   -0.008030    0.006623
      4          1           0       -1.501253    1.022314   -0.045483
      5          1           0       -1.570116   -0.504534    0.879380
      6          1           0       -1.561318   -0.575801   -0.851741
 ---------------------------------------------------------------------

 SCF Done:  E(RB2PLYPD3) =  -132.534594044     A.U. after   11 cycles
 E2(B2PLYPD3) =    -0.1799689333D+00 E(B2PLYPD3) =    -0.13271456297719D+03

 The electronic state is 1-A.
 Alpha  occ. eigenvalues --  -14.83987 -10.66983 -10.66007  -1.04361  -0.89394
 Alpha  occ. eigenvalues --   -0.59798  -0.55101  -0.52872  -0.44756  -0.39294
 Alpha  occ. eigenvalues --   -0.38991
 Alpha virt. eigenvalues --    0.03768   0.07699   0.08287   0.10173   0.11369
 Alpha virt. eigenvalues --    0.11782   0.15440   0.16165   0.16624   0.20004
 Alpha virt. eigenvalues --    0.20143   0.25507   0.32851   0.34111   0.35207

 Mulliken charges:
               1
     1  C   -0.083706
     2  C   -0.002324
     3  N   -0.203540
     4  H    0.102231
     5  H    0.095624
     6  H    0.091715
 Sum of Mulliken charges =   0.00000

 Dipole moment (field-independent basis, Debye):
    X=             -4.1137    Y=             -0.0077    Z=             -0.0101  Tot=              4.1137
 Quadrupole moment (field-independent basis, Debye-Ang):
   XX=            -21.0078   YY=            -17.5723   ZZ=            -17.8675
   XY=              0.1546   XZ=             -0.0430   YZ=             -0.0284

 Normal termination of Gaussian 09 at Wed Aug 26 13:45:26 2020.
