 Gaussian 09, Revision D.01,
 Gaussian 09:  ES64L-G09RevD.01 24-Apr-2013

 --------------------
 #p B2PLYPD3/Def2QZVP
 --------------------

 ------------
 cyanomethane
 ------------
 Symbolic Z-matrix:
 Charge =  0 Multiplicity = 1

                         Standard orientation:
 ---------------------------------------------------------------------
 Center     Atomic      Atomic             Coordinates (Angstroms)
 Number     Number       Type             X           Y           Z
 ---------------------------------------------------------------------
      1          6           0       -1.181518   -0.018866    0.030295
      2          6           0        0.290707   -0.013552   -0.048771
      3          7           0        1.449202    0.012441    0.022115
      4          1           0       -1.590596   -0.104450    0.968833
      5          1           0       -1.568593   -0.765174   -0.624643
      6          1           0       -1.640363    0.977040   -0.388140
 ---------------------------------------------------------------------

 SCF Done:  E(RB2PLYPD3) =  -132.525652284     A.U. after   12 cycles
 E2(B2PLYPD3) =    -0.1813149704D+00 E(B2PLYPD3) =    -0.13270696725440D+03

 The electronic state is 1-A.
 Alpha  occ. eigenvalues --  -14.84657 -10.67235 -10.66792  -1.04000  -0.88937
 Alpha  occ. eigenvalues --   -0.60769  -0.54919  -0.51498  -0.45041  -0.39329
 Alpha  occ. eigenvalues --   -0.38838
 Alpha virt. eigenvalues --    0.03563   0.07058   0.08022   0.10052   0.11182
 Alpha virt. eigenvalues --    0.11643   0.15393   0.16140   0.17427   0.20004
 Alpha virt. eigenvalues --    0.20207   0.25271   0.31942   0.33636   0.35701

 Mulliken charges:
               1
     1  C   -0.070085
     2  C    0.006659
     3  N   -0.207061
     4  H    0.098438
     5  H    0.092493
     6  H    0.079556
 Sum of Mulliken charges =   0.00000

 Dipole moment (field-independent basis, Debye):
    X=             -4.1382    Y=             -0.0316    Z=             -0.0279  Tot=              4.1384
 Quadrupole moment (field-independent basis, Debye-Ang):
   XX=            -20.6921   YY=            -17.9748   ZZ=            -17.8253
   XY=             -0.1064   XZ=             -0.1083   YZ=              0.0673

 Normal termination of Gaussian 09 at Wed Aug 26 22:41:22 2020.
