 Gaussian 09, Revision D.01,
 Gaussian 09:  ES64L-G09RevD.01 24-Apr-2013

 --------------------
 #p B2PLYPD3/Def2QZVP
 --------------------

 ------------
 cyanomethane
 ------------
 Symbolic Z-matrix:
 Charge =  0 Multiplicity = 1

                         Standard orientation:
 ---------------------------------------------------------------------
 Center     Atomic      Atomic             Coordinates (Angstroms)
 Number     Number       Type             X           Y           Z
 ---------------------------------------------------------------------
      1          6           0       -1.173945    0.001896   -0.008629
      2          6           0        0.276922    0.012368   -0.001614
      3          7           0        1.429457   -0.006413    0.003003
      4          1           0       -1.558326   -0.069606    1.012734
      5          1           0       -1.528866   -0.880844   -0.533564
      6          1           0       -1.536869    0.909762   -0.438732
 ---------------------------------------------------------------------

 SCF Done:  E(RB2PLYPD3) =  -132.535475661     A.U. after   11 cycles
 E2(B2PLYPD3) =    -0.1802126670D+00 E(B2PLYPD3) =    -0.13271568832778D+03

 The electronic state is 1-A.
 Alpha  occ. eigenvalues --  -14.84093 -10.66848 -10.66125  -1.04184  -0.89502
 Alpha  occ. eigenvalues --   -0.59784  -0.54890  -0.53427  -0.44756  -0.39168
 Alpha  occ. eigenvalues --   -0.38968
 Alpha virt. eigenvalues --    0.03798   0.07855   0.08196   0.10178   0.11350
 Alpha virt. eigenvalues --    0.11643   0.15445   0.16235   0.16423   0.20041
 Alpha virt. eigenvalues --    0.20143   0.25460   0.32885   0.34334   0.35107

 Mulliken charges:
               1
     1  C   -0.082330
     2  C   -0.002235
     3  N   -0.205818
     4  H    0.092828
     5  H    0.098035
     6  H    0.099520
 Sum of Mulliken charges =   0.00000

 Dipole moment (field-independent basis, Debye):
    X=             -4.1236    Y=              0.0042    Z=              0.0124  Tot=              4.1236
 Quadrupole moment (field-independent basis, Debye-Ang):
   XX=            -21.0131   YY=            -17.6118   ZZ=            -17.8299
   XY=              0.0434   XZ=             -0.0821   YZ=             -0.0126

 Normal termination of Gaussian 09 at Thu Aug 27 00:01:40 2020.
