 Gaussian 09, Revision D.01,
 Gaussian 09:  ES64L-G09RevD.01 24-Apr-2013

 --------------------
 #p B2PLYPD3/Def2QZVP
 --------------------

 ------------
 cyanomethane
 ------------
 Symbolic Z-matrix:
 Charge =  0 Multiplicity = 1

                         Standard orientation:
 ---------------------------------------------------------------------
 Center     Atomic      Atomic             Coordinates (Angstroms)
 Number     Number       Type             X           Y           Z
 ---------------------------------------------------------------------
      1          6           0        1.184833   -0.005404   -0.027281
      2          6           0       -0.277585    0.026834    0.004010
      3          7           0       -1.443186   -0.015056   -0.000288
      4          1           0        1.532833    1.026899   -0.021224
      5          1           0        1.577311   -0.587299   -0.767855
      6          1           0        1.548669   -0.462786    0.930724
 ---------------------------------------------------------------------

 SCF Done:  E(RB2PLYPD3) =  -132.529178469     A.U. after   12 cycles
 E2(B2PLYPD3) =    -0.1814655362D+00 E(B2PLYPD3) =    -0.13271064400499D+03

 The electronic state is 1-A.
 Alpha  occ. eigenvalues --  -14.84557 -10.66872 -10.66668  -1.03655  -0.89496
 Alpha  occ. eigenvalues --   -0.60352  -0.55336  -0.52676  -0.44848  -0.39026
 Alpha  occ. eigenvalues --   -0.38599
 Alpha virt. eigenvalues --    0.03743   0.07561   0.08026   0.10079   0.11085
 Alpha virt. eigenvalues --    0.11562   0.15327   0.15829   0.16960   0.20064
 Alpha virt. eigenvalues --    0.20230   0.25275   0.32500   0.33645   0.35583

 Mulliken charges:
               1
     1  C   -0.078050
     2  C    0.002628
     3  N   -0.211970
     4  H    0.098252
     5  H    0.101209
     6  H    0.087931
 Sum of Mulliken charges =   0.00000

 Dipole moment (field-independent basis, Debye):
    X=              4.1508    Y=              0.0026    Z=              0.0208  Tot=              4.1508
 Quadrupole moment (field-independent basis, Debye-Ang):
   XX=            -20.9554   YY=            -17.6646   ZZ=            -17.9286
   XY=             -0.1542   XZ=              0.0412   YZ=              0.0955

 Normal termination of Gaussian 09 at Wed Aug 26 16:04:28 2020.
