 Gaussian 09, Revision D.01,
 Gaussian 09:  ES64L-G09RevD.01 24-Apr-2013

 --------------------
 #p B2PLYPD3/Def2QZVP
 --------------------

 ------------
 cyanomethane
 ------------
 Symbolic Z-matrix:
 Charge =  0 Multiplicity = 1

                         Standard orientation:
 ---------------------------------------------------------------------
 Center     Atomic      Atomic             Coordinates (Angstroms)
 Number     Number       Type             X           Y           Z
 ---------------------------------------------------------------------
      1          6           0        1.170407   -0.005869   -0.006753
      2          6           0       -0.272931    0.030707   -0.045401
      3          7           0       -1.418568   -0.020682    0.041057
      4          1           0        1.762158   -0.238056    0.942477
      5          1           0        1.380679    1.029202   -0.269054
      6          1           0        1.402285   -0.795403   -0.647904
 ---------------------------------------------------------------------

 SCF Done:  E(RB2PLYPD3) =  -132.518466794     A.U. after   13 cycles
 E2(B2PLYPD3) =    -0.1807356073D+00 E(B2PLYPD3) =    -0.13269920240121D+03

 The electronic state is 1-A.
 Alpha  occ. eigenvalues --  -14.83969 -10.67018 -10.66003  -1.04354  -0.89800
 Alpha  occ. eigenvalues --   -0.59811  -0.56685  -0.51159  -0.44706  -0.39170
 Alpha  occ. eigenvalues --   -0.38576
 Alpha virt. eigenvalues --    0.03497   0.06630   0.09021   0.10021   0.11390
 Alpha virt. eigenvalues --    0.11923   0.14997   0.15531   0.17499   0.20034
 Alpha virt. eigenvalues --    0.20369   0.25774   0.32707   0.33300   0.35387

 Mulliken charges:
               1
     1  C   -0.102570
     2  C    0.003687
     3  N   -0.205641
     4  H    0.091389
     5  H    0.105834
     6  H    0.107300
 Sum of Mulliken charges =   0.00000

 Dipole moment (field-independent basis, Debye):
    X=              4.0749    Y=              0.0149    Z=             -0.0505  Tot=              4.0753
 Quadrupole moment (field-independent basis, Debye-Ang):
   XX=            -21.1133   YY=            -17.3762   ZZ=            -18.0799
   XY=             -0.2511   XZ=              0.5358   YZ=              0.0898

 Normal termination of Gaussian 09 at Wed Aug 26 20:40:07 2020.
