 Gaussian 09, Revision D.01,
 Gaussian 09:  ES64L-G09RevD.01 24-Apr-2013

 --------------------
 #p B2PLYPD3/Def2QZVP
 --------------------

 ------------
 cyanomethane
 ------------
 Symbolic Z-matrix:
 Charge =  0 Multiplicity = 1

                         Standard orientation:
 ---------------------------------------------------------------------
 Center     Atomic      Atomic             Coordinates (Angstroms)
 Number     Number       Type             X           Y           Z
 ---------------------------------------------------------------------
      1          6           0        1.186303    0.004874   -0.009732
      2          6           0       -0.272444   -0.026191   -0.009895
      3          7           0       -1.442892    0.019427    0.004505
      4          1           0        1.483447   -0.851117   -0.561099
      5          1           0        1.508991   -0.100905    1.043676
      6          1           0        1.624654    0.943932   -0.396354
 ---------------------------------------------------------------------

 SCF Done:  E(RB2PLYPD3) =  -132.530919396     A.U. after   12 cycles
 E2(B2PLYPD3) =    -0.1820547519D+00 E(B2PLYPD3) =    -0.13271297414750D+03

 The electronic state is 1-A.
 Alpha  occ. eigenvalues --  -14.84622 -10.67288 -10.66727  -1.03422  -0.89326
 Alpha  occ. eigenvalues --   -0.59476  -0.54914  -0.53231  -0.44789  -0.38712
 Alpha  occ. eigenvalues --   -0.38513
 Alpha virt. eigenvalues --    0.03659   0.07189   0.08135   0.10093   0.11100
 Alpha virt. eigenvalues --    0.11435   0.15275   0.15506   0.16790   0.20125
 Alpha virt. eigenvalues --    0.20248   0.25331   0.32474   0.33980   0.34971

 Mulliken charges:
               1
     1  C   -0.089843
     2  C    0.001275
     3  N   -0.214483
     4  H    0.104105
     5  H    0.097865
     6  H    0.101080
 Sum of Mulliken charges =   0.00000

 Dipole moment (field-independent basis, Debye):
    X=              4.1476    Y=             -0.0348    Z=              0.0120  Tot=              4.1478
 Quadrupole moment (field-independent basis, Debye-Ang):
   XX=            -21.1170   YY=            -17.7084   ZZ=            -17.8600
   XY=              0.1899   XZ=              0.0414   YZ=              0.0372

 Normal termination of Gaussian 09 at Wed Aug 26 15:38:11 2020.
