 Gaussian 09, Revision D.01,
 Gaussian 09:  ES64L-G09RevD.01 24-Apr-2013

 --------------------
 #p B2PLYPD3/Def2QZVP
 --------------------

 ------------
 cyanomethane
 ------------
 Symbolic Z-matrix:
 Charge =  0 Multiplicity = 1

                         Standard orientation:
 ---------------------------------------------------------------------
 Center     Atomic      Atomic             Coordinates (Angstroms)
 Number     Number       Type             X           Y           Z
 ---------------------------------------------------------------------
      1          6           0       -1.173840    0.027435   -0.006873
      2          6           0        0.276460    0.034840   -0.004488
      3          7           0        1.449647   -0.029908    0.003564
      4          1           0       -1.478153    1.026936    0.034786
      5          1           0       -1.649674   -0.612361    0.836957
      6          1           0       -1.635421   -0.578870   -0.828531
 ---------------------------------------------------------------------

 SCF Done:  E(RB2PLYPD3) =  -132.521441231     A.U. after   12 cycles
 E2(B2PLYPD3) =    -0.1829511424D+00 E(B2PLYPD3) =    -0.13270439237333D+03

 The electronic state is 1-A.
 Alpha  occ. eigenvalues --  -14.84930 -10.67691 -10.67018  -1.03424  -0.89049
 Alpha  occ. eigenvalues --   -0.60561  -0.55908  -0.50414  -0.45021  -0.38880
 Alpha  occ. eigenvalues --   -0.38109
 Alpha virt. eigenvalues --    0.03404   0.06221   0.07861   0.09992   0.10767
 Alpha virt. eigenvalues --    0.11999   0.15181   0.16563   0.16833   0.19896
 Alpha virt. eigenvalues --    0.20427   0.25496   0.32202   0.33112   0.35378

 Mulliken charges:
               1
     1  C   -0.073146
     2  C    0.004617
     3  N   -0.213353
     4  H    0.106449
     5  H    0.084688
     6  H    0.090745
 Sum of Mulliken charges =   0.00000

 Dipole moment (field-independent basis, Debye):
    X=             -4.1678    Y=             -0.0211    Z=             -0.0096  Tot=              4.1678
 Quadrupole moment (field-independent basis, Debye-Ang):
   XX=            -20.8102   YY=            -17.5180   ZZ=            -18.3536
   XY=              0.4716   XZ=             -0.0217   YZ=              0.0510

 Normal termination of Gaussian 09 at Wed Aug 26 18:40:57 2020.
