 Gaussian 09, Revision D.01,
 Gaussian 09:  ES64L-G09RevD.01 24-Apr-2013

 --------------------
 #p B2PLYPD3/Def2QZVP
 --------------------

 ------------
 cyanomethane
 ------------
 Symbolic Z-matrix:
 Charge =  0 Multiplicity = 1

                         Standard orientation:
 ---------------------------------------------------------------------
 Center     Atomic      Atomic             Coordinates (Angstroms)
 Number     Number       Type             X           Y           Z
 ---------------------------------------------------------------------
      1          6           0        1.174007    0.010322    0.000425
      2          6           0       -0.279474   -0.022937    0.004190
      3          7           0       -1.429521    0.011734   -0.003173
      4          1           0        1.559299    1.010164   -0.211212
      5          1           0        1.548875   -0.692566   -0.762073
      6          1           0        1.531275   -0.324047    0.967810
 ---------------------------------------------------------------------

 SCF Done:  E(RB2PLYPD3) =  -132.535608242     A.U. after   12 cycles
 E2(B2PLYPD3) =    -0.1801753114D+00 E(B2PLYPD3) =    -0.13271578355309D+03

 The electronic state is 1-A.
 Alpha  occ. eigenvalues --  -14.84059 -10.67176 -10.66096  -1.04273  -0.89195
 Alpha  occ. eigenvalues --   -0.59630  -0.54097  -0.53650  -0.44765  -0.39166
 Alpha  occ. eigenvalues --   -0.39069
 Alpha virt. eigenvalues --    0.03740   0.07793   0.08093   0.10161   0.11500
 Alpha virt. eigenvalues --    0.11570   0.15442   0.15981   0.16693   0.20072
 Alpha virt. eigenvalues --    0.20084   0.25459   0.32812   0.34364   0.34777

 Mulliken charges:
               1
     1  C   -0.086707
     2  C   -0.001850
     3  N   -0.204243
     4  H    0.099511
     5  H    0.095787
     6  H    0.097502
 Sum of Mulliken charges =   0.00000

 Dipole moment (field-independent basis, Debye):
    X=              4.1140    Y=             -0.0247    Z=              0.0098  Tot=              4.1141
 Quadrupole moment (field-independent basis, Debye-Ang):
   XX=            -21.0340   YY=            -17.6952   ZZ=            -17.7645
   XY=              0.0588   XZ=             -0.0222   YZ=             -0.0170

 Normal termination of Gaussian 09 at Thu Aug 27 00:05:29 2020.
