 Gaussian 09, Revision D.01,
 Gaussian 09:  ES64L-G09RevD.01 24-Apr-2013

 --------------------
 #p B2PLYPD3/Def2QZVP
 --------------------

 ------------
 cyanomethane
 ------------
 Symbolic Z-matrix:
 Charge =  0 Multiplicity = 1

                         Standard orientation:
 ---------------------------------------------------------------------
 Center     Atomic      Atomic             Coordinates (Angstroms)
 Number     Number       Type             X           Y           Z
 ---------------------------------------------------------------------
      1          6           0        1.170517    0.002604    0.002029
      2          6           0       -0.270944   -0.002797   -0.019781
      3          7           0       -1.433719    0.002193    0.007665
      4          1           0        1.567714    1.001011   -0.232718
      5          1           0        1.560903   -0.730421   -0.704148
      6          1           0        1.509978   -0.284778    0.989725
 ---------------------------------------------------------------------

 SCF Done:  E(RB2PLYPD3) =  -132.534576475     A.U. after   12 cycles
 E2(B2PLYPD3) =    -0.1812282862D+00 E(B2PLYPD3) =    -0.13271580476149D+03

 The electronic state is 1-A.
 Alpha  occ. eigenvalues --  -14.84404 -10.67042 -10.66431  -1.03809  -0.89501
 Alpha  occ. eigenvalues --   -0.60005  -0.54083  -0.53906  -0.44830  -0.38812
 Alpha  occ. eigenvalues --   -0.38736
 Alpha virt. eigenvalues --    0.03752   0.07592   0.07733   0.10136   0.11379
 Alpha virt. eigenvalues --    0.11518   0.15492   0.16100   0.16467   0.20117
 Alpha virt. eigenvalues --    0.20165   0.25632   0.32755   0.34499   0.34662

 Mulliken charges:
               1
     1  C   -0.082674
     2  C    0.000630
     3  N   -0.210574
     4  H    0.098062
     5  H    0.096757
     6  H    0.097800
 Sum of Mulliken charges =   0.00000

 Dipole moment (field-independent basis, Debye):
    X=              4.1355    Y=             -0.0147    Z=              0.0041  Tot=              4.1355
 Quadrupole moment (field-independent basis, Debye-Ang):
   XX=            -21.0156   YY=            -17.7085   ZZ=            -17.8224
   XY=              0.0007   XZ=              0.0327   YZ=             -0.0022

 Normal termination of Gaussian 09 at Wed Aug 26 09:42:51 2020.
