 Gaussian 09, Revision D.01,
 Gaussian 09:  ES64L-G09RevD.01 24-Apr-2013

 --------------------
 #p B2PLYPD3/Def2QZVP
 --------------------

 ------------
 cyanomethane
 ------------
 Symbolic Z-matrix:
 Charge =  0 Multiplicity = 1

                         Standard orientation:
 ---------------------------------------------------------------------
 Center     Atomic      Atomic             Coordinates (Angstroms)
 Number     Number       Type             X           Y           Z
 ---------------------------------------------------------------------
      1          6           0        1.199198   -0.014462    0.023623
      2          6           0       -0.295271   -0.046872   -0.021112
      3          7           0       -1.440698    0.014430    0.011353
      4          1           0        1.569335    0.246509    0.943584
      5          1           0        1.414305    0.966971   -0.637696
      6          1           0        1.677681   -0.946488   -0.400424
 ---------------------------------------------------------------------

 SCF Done:  E(RB2PLYPD3) =  -132.520638839     A.U. after   12 cycles
 E2(B2PLYPD3) =    -0.1805560314D+00 E(B2PLYPD3) =    -0.13270119487045D+03

 The electronic state is 1-A.
 Alpha  occ. eigenvalues --  -14.84012 -10.68416 -10.66284  -1.04330  -0.88114
 Alpha  occ. eigenvalues --   -0.59468  -0.54375  -0.51281  -0.44691  -0.39584
 Alpha  occ. eigenvalues --   -0.38826
 Alpha virt. eigenvalues --    0.03374   0.07562   0.08001   0.10185   0.11134
 Alpha virt. eigenvalues --    0.11935   0.14903   0.15578   0.17281   0.19925
 Alpha virt. eigenvalues --    0.20172   0.24699   0.31220   0.32380   0.35351

 Mulliken charges:
               1
     1  C   -0.107589
     2  C    0.003628
     3  N   -0.202228
     4  H    0.106283
     5  H    0.093558
     6  H    0.106347
 Sum of Mulliken charges =   0.00000

 Dipole moment (field-independent basis, Debye):
    X=              4.1123    Y=              0.0129    Z=              0.0254  Tot=              4.1124
 Quadrupole moment (field-independent basis, Debye-Ang):
   XX=            -21.1584   YY=            -17.5574   ZZ=            -18.0164
   XY=             -0.0369   XZ=              0.2009   YZ=              0.1282

 Normal termination of Gaussian 09 at Wed Aug 26 16:38:57 2020.
