 Gaussian 09, Revision D.01,
 Gaussian 09:  ES64L-G09RevD.01 24-Apr-2013

 --------------------
 #p B2PLYPD3/Def2QZVP
 --------------------

 ------------
 cyanomethane
 ------------
 Symbolic Z-matrix:
 Charge =  0 Multiplicity = 1

                         Standard orientation:
 ---------------------------------------------------------------------
 Center     Atomic      Atomic             Coordinates (Angstroms)
 Number     Number       Type             X           Y           Z
 ---------------------------------------------------------------------
      1          6           0       -1.164842   -0.005861    0.010018
      2          6           0        0.285868    0.036441    0.004790
      3          7           0        1.424137   -0.013059   -0.000406
      4          1           0       -1.603138   -0.123260    0.997561
      5          1           0       -1.479263   -0.903501   -0.617471
      6          1           0       -1.612711    0.934700   -0.466095
 ---------------------------------------------------------------------

 SCF Done:  E(RB2PLYPD3) =  -132.531902273     A.U. after   12 cycles
 E2(B2PLYPD3) =    -0.1797025092D+00 E(B2PLYPD3) =    -0.13271160478206D+03

 The electronic state is 1-A.
 Alpha  occ. eigenvalues --  -14.83813 -10.68009 -10.65857  -1.04786  -0.88492
 Alpha  occ. eigenvalues --   -0.59695  -0.53234  -0.52675  -0.44799  -0.39423
 Alpha  occ. eigenvalues --   -0.39217
 Alpha virt. eigenvalues --    0.03563   0.07493   0.07798   0.10179   0.11688
 Alpha virt. eigenvalues --    0.11911   0.15403   0.16226   0.16852   0.19983
 Alpha virt. eigenvalues --    0.20037   0.25542   0.32515   0.33620   0.34584

 Mulliken charges:
               1
     1  C   -0.095620
     2  C   -0.000001
     3  N   -0.196936
     4  H    0.099924
     5  H    0.098049
     6  H    0.094585
 Sum of Mulliken charges =   0.00000

 Dipole moment (field-independent basis, Debye):
    X=             -4.0828    Y=              0.0040    Z=              0.0092  Tot=              4.0828
 Quadrupole moment (field-independent basis, Debye-Ang):
   XX=            -21.0142   YY=            -17.7261   ZZ=            -17.7926
   XY=              0.0200   XZ=             -0.0697   YZ=             -0.0044

 Normal termination of Gaussian 09 at Wed Aug 26 11:12:10 2020.
