 Gaussian 09, Revision D.01,
 Gaussian 09:  ES64L-G09RevD.01 24-Apr-2013

 --------------------
 #p B2PLYPD3/Def2QZVP
 --------------------

 ------------
 cyanomethane
 ------------
 Symbolic Z-matrix:
 Charge =  0 Multiplicity = 1

                         Standard orientation:
 ---------------------------------------------------------------------
 Center     Atomic      Atomic             Coordinates (Angstroms)
 Number     Number       Type             X           Y           Z
 ---------------------------------------------------------------------
      1          6           0        1.178092    0.029655    0.004760
      2          6           0       -0.280846    0.008747   -0.021795
      3          7           0       -1.445167   -0.010423    0.007636
      4          1           0        1.546442    1.003454   -0.018768
      5          1           0        1.633125   -0.613313   -0.862114
      6          1           0        1.553129   -0.547591    0.929636
 ---------------------------------------------------------------------

 SCF Done:  E(RB2PLYPD3) =  -132.525571539     A.U. after   12 cycles
 E2(B2PLYPD3) =    -0.1819574634D+00 E(B2PLYPD3) =    -0.13270752900287D+03

 The electronic state is 1-A.
 Alpha  occ. eigenvalues --  -14.84603 -10.68137 -10.66715  -1.03768  -0.88587
 Alpha  occ. eigenvalues --   -0.59852  -0.54884  -0.51190  -0.44923  -0.39067
 Alpha  occ. eigenvalues --   -0.38465
 Alpha virt. eigenvalues --    0.03445   0.06593   0.07860   0.10134   0.11056
 Alpha virt. eigenvalues --    0.11802   0.15277   0.16122   0.16781   0.20002
 Alpha virt. eigenvalues --    0.20212   0.25305   0.31936   0.32907   0.35056

 Mulliken charges:
               1
     1  C   -0.088966
     2  C    0.003771
     3  N   -0.209137
     4  H    0.108677
     5  H    0.090834
     6  H    0.094822
 Sum of Mulliken charges =   0.00000

 Dipole moment (field-independent basis, Debye):
    X=              4.1339    Y=             -0.0021    Z=              0.0029  Tot=              4.1339
 Quadrupole moment (field-independent basis, Debye-Ang):
   XX=            -21.0009   YY=            -17.6768   ZZ=            -18.0527
   XY=             -0.1543   XZ=              0.0157   YZ=             -0.0248

 Normal termination of Gaussian 09 at Wed Aug 26 11:41:34 2020.
