 Gaussian 09, Revision D.01,
 Gaussian 09:  ES64L-G09RevD.01 24-Apr-2013

 --------------------
 #p B2PLYPD3/Def2QZVP
 --------------------

 ------------
 cyanomethane
 ------------
 Symbolic Z-matrix:
 Charge =  0 Multiplicity = 1

                         Standard orientation:
 ---------------------------------------------------------------------
 Center     Atomic      Atomic             Coordinates (Angstroms)
 Number     Number       Type             X           Y           Z
 ---------------------------------------------------------------------
      1          6           0       -1.159261    0.018692    0.001550
      2          6           0        0.272077   -0.044929   -0.013732
      3          7           0        1.438818    0.026359    0.000752
      4          1           0       -1.604899   -0.682208   -0.745330
      5          1           0       -1.665626    1.006116   -0.167315
      6          1           0       -1.478100   -0.351000    0.980475
 ---------------------------------------------------------------------

 SCF Done:  E(RB2PLYPD3) =  -132.528986038     A.U. after   13 cycles
 E2(B2PLYPD3) =    -0.1822881619D+00 E(B2PLYPD3) =    -0.13271127419975D+03

 The electronic state is 1-A.
 Alpha  occ. eigenvalues --  -14.84750 -10.67525 -10.66776  -1.03725  -0.89176
 Alpha  occ. eigenvalues --   -0.60750  -0.53469  -0.52761  -0.45044  -0.38657
 Alpha  occ. eigenvalues --   -0.38555
 Alpha virt. eigenvalues --    0.03540   0.06601   0.07519   0.09979   0.11516
 Alpha virt. eigenvalues --    0.11590   0.15508   0.15780   0.17493   0.20141
 Alpha virt. eigenvalues --    0.20326   0.25989   0.32642   0.34138   0.34360

 Mulliken charges:
               1
     1  C   -0.078172
     2  C    0.007225
     3  N   -0.211399
     4  H    0.090339
     5  H    0.096672
     6  H    0.095334
 Sum of Mulliken charges =   0.00000

 Dipole moment (field-independent basis, Debye):
    X=             -4.1413    Y=             -0.0560    Z=              0.0192  Tot=              4.1417
 Quadrupole moment (field-independent basis, Debye-Ang):
   XX=            -20.7938   YY=            -17.8650   ZZ=            -17.9260
   XY=             -0.1713   XZ=              0.0598   YZ=             -0.0274

 Normal termination of Gaussian 09 at Wed Aug 26 22:51:51 2020.
