 Gaussian 09, Revision D.01,
 Gaussian 09:  ES64L-G09RevD.01 24-Apr-2013

 --------------------
 #p B2PLYPD3/Def2QZVP
 --------------------

 ------------
 cyanomethane
 ------------
 Symbolic Z-matrix:
 Charge =  0 Multiplicity = 1

                         Standard orientation:
 ---------------------------------------------------------------------
 Center     Atomic      Atomic             Coordinates (Angstroms)
 Number     Number       Type             X           Y           Z
 ---------------------------------------------------------------------
      1          6           0       -1.177655   -0.008200   -0.003155
      2          6           0        0.282628    0.018448    0.002398
      3          7           0        1.434201   -0.008527   -0.002659
      4          1           0       -1.568500   -0.796937   -0.679371
      5          1           0       -1.567795    0.995883   -0.335085
      6          1           0       -1.532949   -0.200740    1.037612
 ---------------------------------------------------------------------

 SCF Done:  E(RB2PLYPD3) =  -132.533632831     A.U. after   12 cycles
 E2(B2PLYPD3) =    -0.1806274391D+00 E(B2PLYPD3) =    -0.13271426026994D+03

 The electronic state is 1-A.
 Alpha  occ. eigenvalues --  -14.84130 -10.68010 -10.66208  -1.04215  -0.88531
 Alpha  occ. eigenvalues --   -0.59231  -0.53455  -0.53125  -0.44776  -0.39107
 Alpha  occ. eigenvalues --   -0.39020
 Alpha virt. eigenvalues --    0.03599   0.07571   0.07698   0.10166   0.11526
 Alpha virt. eigenvalues --    0.11577   0.15315   0.16038   0.16568   0.20061
 Alpha virt. eigenvalues --    0.20078   0.25308   0.32454   0.33958   0.34373

 Mulliken charges:
               1
     1  C   -0.096462
     2  C   -0.000501
     3  N   -0.203813
     4  H    0.102024
     5  H    0.098503
     6  H    0.100249
 Sum of Mulliken charges =   0.00000

 Dipole moment (field-independent basis, Debye):
    X=             -4.1089    Y=              0.0103    Z=              0.0091  Tot=              4.1090
 Quadrupole moment (field-independent basis, Debye-Ang):
   XX=            -21.1190   YY=            -17.7599   ZZ=            -17.7708
   XY=              0.0454   XZ=              0.0322   YZ=              0.0168

 Normal termination of Gaussian 09 at Wed Aug 26 18:45:48 2020.
