 Gaussian 09, Revision D.01,
 Gaussian 09:  ES64L-G09RevD.01 24-Apr-2013

 --------------------
 #p B2PLYPD3/Def2QZVP
 --------------------

 ------------
 cyanomethane
 ------------
 Symbolic Z-matrix:
 Charge =  0 Multiplicity = 1

                         Standard orientation:
 ---------------------------------------------------------------------
 Center     Atomic      Atomic             Coordinates (Angstroms)
 Number     Number       Type             X           Y           Z
 ---------------------------------------------------------------------
      1          6           0       -1.159193    0.015451   -0.009830
      2          6           0        0.261030   -0.016237    0.073945
      3          7           0        1.426261    0.016447   -0.042513
      4          1           0       -1.406763   -0.421153    0.807954
      5          1           0       -1.513379   -0.640740   -0.756746
      6          1           0       -1.674704    0.951483   -0.138306
 ---------------------------------------------------------------------

 SCF Done:  E(RB2PLYPD3) =  -132.511842399     A.U. after   12 cycles
 E2(B2PLYPD3) =    -0.1817731776D+00 E(B2PLYPD3) =    -0.13269361557628D+03

 The electronic state is 1-A.
 Alpha  occ. eigenvalues --  -14.84681 -10.66615 -10.64864  -1.03675  -0.91579
 Alpha  occ. eigenvalues --   -0.61374  -0.56257  -0.54121  -0.44963  -0.38742
 Alpha  occ. eigenvalues --   -0.38465
 Alpha virt. eigenvalues --    0.03665   0.07083   0.08945   0.09850   0.11249
 Alpha virt. eigenvalues --    0.11607   0.15048   0.15912   0.18040   0.20109
 Alpha virt. eigenvalues --    0.20545   0.26344   0.33419   0.35059   0.35574

 Mulliken charges:
               1
     1  C   -0.076860
     2  C    0.010728
     3  N   -0.215733
     4  H    0.101899
     5  H    0.085657
     6  H    0.094310
 Sum of Mulliken charges =   0.00000

 Dipole moment (field-independent basis, Debye):
    X=             -4.1465    Y=             -0.0855    Z=              0.0820  Tot=              4.1482
 Quadrupole moment (field-independent basis, Debye-Ang):
   XX=            -20.6639   YY=            -17.6147   ZZ=            -17.8805
   XY=             -0.0905   XZ=              0.2484   YZ=             -0.0540

 Normal termination of Gaussian 09 at Wed Aug 26 23:27:02 2020.
