 Gaussian 09, Revision D.01,
 Gaussian 09:  ES64L-G09RevD.01 24-Apr-2013

 --------------------
 #p B2PLYPD3/Def2QZVP
 --------------------

 ------------
 cyanomethane
 ------------
 Symbolic Z-matrix:
 Charge =  0 Multiplicity = 1

                         Standard orientation:
 ---------------------------------------------------------------------
 Center     Atomic      Atomic             Coordinates (Angstroms)
 Number     Number       Type             X           Y           Z
 ---------------------------------------------------------------------
      1          6           0       -1.187154    0.002771    0.005854
      2          6           0        0.276736    0.010675   -0.010283
      3          7           0        1.436588   -0.006954    0.004882
      4          1           0       -1.517499    0.892821   -0.490162
      5          1           0       -1.532884   -0.038185    1.021019
      6          1           0       -1.543221   -0.886632   -0.538458
 ---------------------------------------------------------------------

 SCF Done:  E(RB2PLYPD3) =  -132.534654508     A.U. after   11 cycles
 E2(B2PLYPD3) =    -0.1808304836D+00 E(B2PLYPD3) =    -0.13271548499118D+03

 The electronic state is 1-A.
 Alpha  occ. eigenvalues --  -14.84265 -10.67024 -10.66347  -1.03827  -0.89379
 Alpha  occ. eigenvalues --   -0.59252  -0.54795  -0.53880  -0.44705  -0.38971
 Alpha  occ. eigenvalues --   -0.38868
 Alpha virt. eigenvalues --    0.03775   0.07865   0.08216   0.10182   0.11246
 Alpha virt. eigenvalues --    0.11399   0.15304   0.15949   0.16272   0.20103
 Alpha virt. eigenvalues --    0.20146   0.25197   0.32624   0.34402   0.34956

 Mulliken charges:
               1
     1  C   -0.088797
     2  C   -0.002587
     3  N   -0.209652
     4  H    0.101405
     5  H    0.101453
     6  H    0.098178
 Sum of Mulliken charges =   0.00000

 Dipole moment (field-independent basis, Debye):
    X=             -4.1334    Y=              0.0092    Z=             -0.0063  Tot=              4.1334
 Quadrupole moment (field-independent basis, Debye-Ang):
   XX=            -21.1361   YY=            -17.7247   ZZ=            -17.7164
   XY=              0.0593   XZ=             -0.0277   YZ=             -0.0271

 Normal termination of Gaussian 09 at Thu Aug 27 00:13:57 2020.
