 Gaussian 09, Revision D.01,
 Gaussian 09:  ES64L-G09RevD.01 24-Apr-2013

 --------------------
 #p B2PLYPD3/Def2QZVP
 --------------------

 ------------
 cyanomethane
 ------------
 Symbolic Z-matrix:
 Charge =  0 Multiplicity = 1

                         Standard orientation:
 ---------------------------------------------------------------------
 Center     Atomic      Atomic             Coordinates (Angstroms)
 Number     Number       Type             X           Y           Z
 ---------------------------------------------------------------------
      1          6           0        1.153137    0.014684   -0.005609
      2          6           0       -0.270895    0.034330    0.019384
      3          7           0       -1.430024   -0.026138   -0.010360
      4          1           0        1.493753    1.077556   -0.061214
      5          1           0        1.625714   -0.647658   -0.827094
      6          1           0        1.597250   -0.541016    0.878175
 ---------------------------------------------------------------------

 SCF Done:  E(RB2PLYPD3) =  -132.524601803     A.U. after   12 cycles
 E2(B2PLYPD3) =    -0.1819815445D+00 E(B2PLYPD3) =    -0.13270658334729D+03

 The electronic state is 1-A.
 Alpha  occ. eigenvalues --  -14.84452 -10.68157 -10.66416  -1.04004  -0.88872
 Alpha  occ. eigenvalues --   -0.60357  -0.54453  -0.51062  -0.44954  -0.38882
 Alpha  occ. eigenvalues --   -0.38322
 Alpha virt. eigenvalues --    0.03401   0.06366   0.07402   0.09995   0.11286
 Alpha virt. eigenvalues --    0.12141   0.15307   0.16364   0.16884   0.19916
 Alpha virt. eigenvalues --    0.20330   0.25968   0.32621   0.33167   0.34385

 Mulliken charges:
               1
     1  C   -0.087403
     2  C    0.004882
     3  N   -0.207522
     4  H    0.104681
     5  H    0.092926
     6  H    0.092436
 Sum of Mulliken charges =   0.00000

 Dipole moment (field-independent basis, Debye):
    X=              4.1134    Y=             -0.0178    Z=              0.0288  Tot=              4.1135
 Quadrupole moment (field-independent basis, Debye-Ang):
   XX=            -20.9811   YY=            -17.4785   ZZ=            -18.2254
   XY=             -0.4024   XZ=             -0.0386   YZ=             -0.0295

 Normal termination of Gaussian 09 at Wed Aug 26 21:13:07 2020.
