 Gaussian 09, Revision D.01,
 Gaussian 09:  ES64L-G09RevD.01 24-Apr-2013

 --------------------
 #p B2PLYPD3/Def2QZVP
 --------------------

 ------------
 cyanomethane
 ------------
 Symbolic Z-matrix:
 Charge =  0 Multiplicity = 1

                         Standard orientation:
 ---------------------------------------------------------------------
 Center     Atomic      Atomic             Coordinates (Angstroms)
 Number     Number       Type             X           Y           Z
 ---------------------------------------------------------------------
      1          6           0        1.207491    0.006160    0.008447
      2          6           0       -0.282909    0.023630   -0.035006
      3          7           0       -1.439964   -0.006194    0.029600
      4          1           0        1.643044   -0.403299    0.886185
      5          1           0        1.567756    0.981055   -0.178702
      6          1           0        1.321457   -0.713133   -0.755327
 ---------------------------------------------------------------------

 SCF Done:  E(RB2PLYPD3) =  -132.524803268     A.U. after   13 cycles
 E2(B2PLYPD3) =    -0.1808772858D+00 E(B2PLYPD3) =    -0.13270568055366D+03

 The electronic state is 1-A.
 Alpha  occ. eigenvalues --  -14.84218 -10.66601 -10.66427  -1.03822  -0.89739
 Alpha  occ. eigenvalues --   -0.59531  -0.56001  -0.53085  -0.44595  -0.39202
 Alpha  occ. eigenvalues --   -0.38755
 Alpha virt. eigenvalues --    0.03799   0.07734   0.09109   0.10161   0.10947
 Alpha virt. eigenvalues --    0.11519   0.14772   0.15293   0.17249   0.20091
 Alpha virt. eigenvalues --    0.20236   0.24795   0.32446   0.34273   0.35677

 Mulliken charges:
               1
     1  C   -0.094154
     2  C   -0.001463
     3  N   -0.209926
     4  H    0.096227
     5  H    0.104565
     6  H    0.104752
 Sum of Mulliken charges =   0.00000

 Dipole moment (field-independent basis, Debye):
    X=              4.1359    Y=             -0.0313    Z=             -0.0431  Tot=              4.1362
 Quadrupole moment (field-independent basis, Debye-Ang):
   XX=            -21.1273   YY=            -17.5093   ZZ=            -17.9269
   XY=              0.0069   XZ=              0.3785   YZ=              0.0183

 Normal termination of Gaussian 09 at Wed Aug 26 21:30:30 2020.
