 Gaussian 09, Revision D.01,
 Gaussian 09:  ES64L-G09RevD.01 24-Apr-2013

 --------------------
 #p B2PLYPD3/Def2QZVP
 --------------------

 ------------
 cyanomethane
 ------------
 Symbolic Z-matrix:
 Charge =  0 Multiplicity = 1

                         Standard orientation:
 ---------------------------------------------------------------------
 Center     Atomic      Atomic             Coordinates (Angstroms)
 Number     Number       Type             X           Y           Z
 ---------------------------------------------------------------------
      1          6           0       -1.167477    0.009272   -0.000691
      2          6           0        0.288961   -0.022850   -0.028194
      3          7           0        1.426928    0.005688    0.010426
      4          1           0       -1.524919    0.984104   -0.298064
      5          1           0       -1.521373   -0.176935    1.009308
      6          1           0       -1.671108   -0.765513   -0.610918
 ---------------------------------------------------------------------

 SCF Done:  E(RB2PLYPD3) =  -132.535015978     A.U. after   12 cycles
 E2(B2PLYPD3) =    -0.1792482181D+00 E(B2PLYPD3) =    -0.13271426419604D+03

 The electronic state is 1-A.
 Alpha  occ. eigenvalues --  -14.83843 -10.67071 -10.65900  -1.04813  -0.89048
 Alpha  occ. eigenvalues --   -0.60176  -0.54082  -0.52898  -0.44831  -0.39565
 Alpha  occ. eigenvalues --   -0.39391
 Alpha virt. eigenvalues --    0.03760   0.07841   0.08215   0.10231   0.11583
 Alpha virt. eigenvalues --    0.11801   0.15470   0.16442   0.16985   0.19970
 Alpha virt. eigenvalues --    0.20047   0.25454   0.32781   0.34532   0.35057

 Mulliken charges:
               1
     1  C   -0.077326
     2  C   -0.001243
     3  N   -0.197393
     4  H    0.095582
     5  H    0.091290
     6  H    0.089089
 Sum of Mulliken charges =   0.00000

 Dipole moment (field-independent basis, Debye):
    X=             -4.1097    Y=             -0.0081    Z=              0.0127  Tot=              4.1097
 Quadrupole moment (field-independent basis, Debye-Ang):
   XX=            -20.7937   YY=            -17.6756   ZZ=            -17.8567
   XY=              0.0574   XZ=             -0.0578   YZ=             -0.0325

 Normal termination of Gaussian 09 at Wed Aug 26 16:07:21 2020.
