 Gaussian 09, Revision D.01,
 Gaussian 09:  ES64L-G09RevD.01 24-Apr-2013

 --------------------
 #p B2PLYPD3/Def2QZVP
 --------------------

 ------------
 cyanomethane
 ------------
 Symbolic Z-matrix:
 Charge =  0 Multiplicity = 1

                         Standard orientation:
 ---------------------------------------------------------------------
 Center     Atomic      Atomic             Coordinates (Angstroms)
 Number     Number       Type             X           Y           Z
 ---------------------------------------------------------------------
      1          6           0       -1.177026   -0.001565   -0.015408
      2          6           0        0.266156   -0.038850    0.016270
      3          7           0        1.435315    0.019526   -0.005426
      4          1           0       -1.547551    0.035628    1.006255
      5          1           0       -1.526341   -0.864573   -0.488220
      6          1           0       -1.508092    0.934754   -0.485222
 ---------------------------------------------------------------------

 SCF Done:  E(RB2PLYPD3) =  -132.531611485     A.U. after   12 cycles
 E2(B2PLYPD3) =    -0.1817690769D+00 E(B2PLYPD3) =    -0.13271338056193D+03

 The electronic state is 1-A.
 Alpha  occ. eigenvalues --  -14.84557 -10.66683 -10.66575  -1.03476  -0.89879
 Alpha  occ. eigenvalues --   -0.59821  -0.55628  -0.53463  -0.44788  -0.38731
 Alpha  occ. eigenvalues --   -0.38442
 Alpha virt. eigenvalues --    0.03729   0.07448   0.08115   0.10117   0.11057
 Alpha virt. eigenvalues --    0.11522   0.15377   0.15874   0.16406   0.20106
 Alpha virt. eigenvalues --    0.20244   0.25649   0.32804   0.34071   0.35251

 Mulliken charges:
               1
     1  C   -0.082487
     2  C    0.000777
     3  N   -0.215099
     4  H    0.093677
     5  H    0.102949
     6  H    0.100181
 Sum of Mulliken charges =   0.00000

 Dipole moment (field-independent basis, Debye):
    X=             -4.1423    Y=             -0.0157    Z=              0.0301  Tot=              4.1424
 Quadrupole moment (field-independent basis, Debye-Ang):
   XX=            -21.0912   YY=            -17.6090   ZZ=            -17.8768
   XY=             -0.1068   XZ=             -0.0566   YZ=              0.0500

 Normal termination of Gaussian 09 at Wed Aug 26 14:54:13 2020.
