 Gaussian 09, Revision D.01,
 Gaussian 09:  ES64L-G09RevD.01 24-Apr-2013

 --------------------
 #p B2PLYPD3/Def2QZVP
 --------------------

 ------------
 cyanomethane
 ------------
 Symbolic Z-matrix:
 Charge =  0 Multiplicity = 1

                         Standard orientation:
 ---------------------------------------------------------------------
 Center     Atomic      Atomic             Coordinates (Angstroms)
 Number     Number       Type             X           Y           Z
 ---------------------------------------------------------------------
      1          6           0       -1.197137    0.017339   -0.046821
      2          6           0        0.271547   -0.069222    0.013263
      3          7           0        1.451299    0.031777    0.000667
      4          1           0       -1.580436    0.061002    0.969363
      5          1           0       -1.543846   -0.834040   -0.363854
      6          1           0       -1.481277    0.861900   -0.408830
 ---------------------------------------------------------------------

 SCF Done:  E(RB2PLYPD3) =  -132.503904678     A.U. after   13 cycles
 E2(B2PLYPD3) =    -0.1825548695D+00 E(B2PLYPD3) =    -0.13268645954779D+03

 The electronic state is 1-A.
 Alpha  occ. eigenvalues --  -14.85062 -10.67155 -10.64850  -1.03001  -0.91273
 Alpha  occ. eigenvalues --   -0.60817  -0.59173  -0.52630  -0.44893  -0.38871
 Alpha  occ. eigenvalues --   -0.38206
 Alpha virt. eigenvalues --    0.03810   0.07476   0.08482   0.10108   0.10684
 Alpha virt. eigenvalues --    0.11524   0.15168   0.15837   0.17232   0.20038
 Alpha virt. eigenvalues --    0.20371   0.25366   0.32344   0.34041   0.36824

 Mulliken charges:
               1
     1  C   -0.056461
     2  C    0.008310
     3  N   -0.220891
     4  H    0.071292
     5  H    0.097239
     6  H    0.100511
 Sum of Mulliken charges =   0.00000

 Dipole moment (field-independent basis, Debye):
    X=             -4.1951    Y=             -0.0327    Z=              0.0680  Tot=              4.1958
 Quadrupole moment (field-independent basis, Debye-Ang):
   XX=            -20.7228   YY=            -17.4861   ZZ=            -18.0980
   XY=             -0.1091   XZ=             -0.2332   YZ=             -0.0123

 Normal termination of Gaussian 09 at Wed Aug 26 20:14:43 2020.
