 Gaussian 09, Revision D.01,
 Gaussian 09:  ES64L-G09RevD.01 24-Apr-2013

 --------------------
 #p B2PLYPD3/Def2QZVP
 --------------------

 ------------
 cyanomethane
 ------------
 Symbolic Z-matrix:
 Charge =  0 Multiplicity = 1

                         Standard orientation:
 ---------------------------------------------------------------------
 Center     Atomic      Atomic             Coordinates (Angstroms)
 Number     Number       Type             X           Y           Z
 ---------------------------------------------------------------------
      1          6           0       -1.168221    0.001994   -0.003084
      2          6           0        0.285185    0.013199    0.030704
      3          7           0        1.428995   -0.006535   -0.023357
      4          1           0       -1.646956   -0.625649   -0.782850
      5          1           0       -1.590762    0.989560   -0.124188
      6          1           0       -1.467033   -0.409324    0.904811
 ---------------------------------------------------------------------

 SCF Done:  E(RB2PLYPD3) =  -132.531882042     A.U. after   12 cycles
 E2(B2PLYPD3) =    -0.1796911065D+00 E(B2PLYPD3) =    -0.13271157314816D+03

 The electronic state is 1-A.
 Alpha  occ. eigenvalues --  -14.84030 -10.66602 -10.66067  -1.04578  -0.89538
 Alpha  occ. eigenvalues --   -0.60430  -0.54825  -0.52807  -0.44869  -0.39426
 Alpha  occ. eigenvalues --   -0.39244
 Alpha virt. eigenvalues --    0.03736   0.07519   0.08673   0.10151   0.11437
 Alpha virt. eigenvalues --    0.11725   0.15548   0.15957   0.17462   0.19988
 Alpha virt. eigenvalues --    0.20186   0.25543   0.32957   0.34582   0.35200

 Mulliken charges:
               1
     1  C   -0.073593
     2  C    0.000231
     3  N   -0.201039
     4  H    0.087597
     5  H    0.092227
     6  H    0.094578
 Sum of Mulliken charges =   0.00000

 Dipole moment (field-independent basis, Debye):
    X=             -4.1198    Y=             -0.0041    Z=              0.0578  Tot=              4.1202
 Quadrupole moment (field-independent basis, Debye-Ang):
   XX=            -20.7451   YY=            -17.7182   ZZ=            -17.8238
   XY=              0.0601   XZ=              0.2128   YZ=             -0.0637

 Normal termination of Gaussian 09 at Wed Aug 26 13:30:15 2020.
