 Gaussian 09, Revision D.01,
 Gaussian 09:  ES64L-G09RevD.01 24-Apr-2013

 --------------------
 #p B2PLYPD3/Def2QZVP
 --------------------

 ------------
 cyanomethane
 ------------
 Symbolic Z-matrix:
 Charge =  0 Multiplicity = 1

                         Standard orientation:
 ---------------------------------------------------------------------
 Center     Atomic      Atomic             Coordinates (Angstroms)
 Number     Number       Type             X           Y           Z
 ---------------------------------------------------------------------
      1          6           0       -1.175388   -0.003424    0.003071
      2          6           0        0.279285    0.001029    0.016935
      3          7           0        1.440414    0.002201   -0.008909
      4          1           0       -1.565243   -0.269024    0.978553
      5          1           0       -1.542992   -0.742865   -0.747451
      6          1           0       -1.598048    1.010850   -0.288773
 ---------------------------------------------------------------------

 SCF Done:  E(RB2PLYPD3) =  -132.532788675     A.U. after   12 cycles
 E2(B2PLYPD3) =    -0.1813996413D+00 E(B2PLYPD3) =    -0.13271418831601D+03

 The electronic state is 1-A.
 Alpha  occ. eigenvalues --  -14.84460 -10.67795 -10.66541  -1.03887  -0.88766
 Alpha  occ. eigenvalues --   -0.59785  -0.53810  -0.52790  -0.44882  -0.38933
 Alpha  occ. eigenvalues --   -0.38798
 Alpha virt. eigenvalues --    0.03597   0.07181   0.07713   0.10150   0.11361
 Alpha virt. eigenvalues --    0.11560   0.15371   0.16261   0.16514   0.20081
 Alpha virt. eigenvalues --    0.20137   0.25397   0.32426   0.33953   0.34560

 Mulliken charges:
               1
     1  C   -0.087506
     2  C    0.001756
     3  N   -0.208121
     4  H    0.099959
     5  H    0.098209
     6  H    0.095703
 Sum of Mulliken charges =   0.00000

 Dipole moment (field-independent basis, Debye):
    X=             -4.1320    Y=             -0.0127    Z=              0.0145  Tot=              4.1321
 Quadrupole moment (field-independent basis, Debye-Ang):
   XX=            -20.9953   YY=            -17.8316   ZZ=            -17.8131
   XY=             -0.0329   XZ=              0.0401   YZ=             -0.0043

 Normal termination of Gaussian 09 at Wed Aug 26 10:17:23 2020.
