 Gaussian 09, Revision D.01,
 Gaussian 09:  ES64L-G09RevD.01 24-Apr-2013

 --------------------
 #p B2PLYPD3/Def2QZVP
 --------------------

 ------------
 cyanomethane
 ------------
 Symbolic Z-matrix:
 Charge =  0 Multiplicity = 1

                         Standard orientation:
 ---------------------------------------------------------------------
 Center     Atomic      Atomic             Coordinates (Angstroms)
 Number     Number       Type             X           Y           Z
 ---------------------------------------------------------------------
      1          6           0        1.163381   -0.010942   -0.031493
      2          6           0       -0.293121   -0.068488    0.013547
      3          7           0       -1.418639    0.045861   -0.009460
      4          1           0        1.694091    1.070010   -0.202892
      5          1           0        1.553834   -0.703767   -0.614545
      6          1           0        1.460989   -0.210689    0.991336
 ---------------------------------------------------------------------

 SCF Done:  E(RB2PLYPD3) =  -132.514382067     A.U. after   12 cycles
 E2(B2PLYPD3) =    -0.1791173514D+00 E(B2PLYPD3) =    -0.13269349941883D+03

 The electronic state is 1-A.
 Alpha  occ. eigenvalues --  -14.83695 -10.67032 -10.65692  -1.05183  -0.89348
 Alpha  occ. eigenvalues --   -0.60283  -0.55497  -0.51096  -0.44864  -0.40002
 Alpha  occ. eigenvalues --   -0.39164
 Alpha virt. eigenvalues --    0.03054   0.07164   0.09342   0.10115   0.11309
 Alpha virt. eigenvalues --    0.12103   0.15370   0.15670   0.18142   0.19933
 Alpha virt. eigenvalues --    0.20371   0.25761   0.31745   0.33553   0.35469

 Mulliken charges:
               1
     1  C   -0.087814
     2  C    0.000837
     3  N   -0.192074
     4  H    0.089531
     5  H    0.102093
     6  H    0.087426
 Sum of Mulliken charges =   0.00000

 Dipole moment (field-independent basis, Debye):
    X=              4.0649    Y=             -0.1195    Z=              0.0960  Tot=              4.0678
 Quadrupole moment (field-independent basis, Debye-Ang):
   XX=            -20.7756   YY=            -17.6204   ZZ=            -17.8805
   XY=              0.3128   XZ=              0.0323   YZ=              0.1608

 Normal termination of Gaussian 09 at Wed Aug 26 22:13:58 2020.
