 Gaussian 09, Revision D.01,
 Gaussian 09:  ES64L-G09RevD.01 24-Apr-2013

 --------------------
 #p B2PLYPD3/Def2QZVP
 --------------------

 ------------
 cyanomethane
 ------------
 Symbolic Z-matrix:
 Charge =  0 Multiplicity = 1

                         Standard orientation:
 ---------------------------------------------------------------------
 Center     Atomic      Atomic             Coordinates (Angstroms)
 Number     Number       Type             X           Y           Z
 ---------------------------------------------------------------------
      1          6           0        1.191055   -0.003659    0.012377
      2          6           0       -0.278243    0.025057   -0.001335
      3          7           0       -1.439903   -0.013901   -0.004662
      4          1           0        1.531755    0.989167   -0.237696
      5          1           0        1.587050   -0.711925   -0.738504
      6          1           0        1.483642   -0.308321    0.942589
 ---------------------------------------------------------------------

 SCF Done:  E(RB2PLYPD3) =  -132.531229469     A.U. after   12 cycles
 E2(B2PLYPD3) =    -0.1809091458D+00 E(B2PLYPD3) =    -0.13271213861434D+03

 The electronic state is 1-A.
 Alpha  occ. eigenvalues --  -14.84363 -10.66666 -10.66452  -1.03751  -0.89644
 Alpha  occ. eigenvalues --   -0.59451  -0.55611  -0.53516  -0.44731  -0.39028
 Alpha  occ. eigenvalues --   -0.38837
 Alpha virt. eigenvalues --    0.03791   0.07747   0.08525   0.10183   0.11112
 Alpha virt. eigenvalues --    0.11377   0.15305   0.15899   0.16422   0.20091
 Alpha virt. eigenvalues --    0.20166   0.25120   0.32537   0.34352   0.35398

 Mulliken charges:
               1
     1  C   -0.083622
     2  C   -0.002251
     3  N   -0.210690
     4  H    0.098900
     5  H    0.094285
     6  H    0.103379
 Sum of Mulliken charges =   0.00000

 Dipole moment (field-independent basis, Debye):
    X=              4.1427    Y=              0.0132    Z=              0.0131  Tot=              4.1428
 Quadrupole moment (field-independent basis, Debye-Ang):
   XX=            -21.0556   YY=            -17.7049   ZZ=            -17.7577
   XY=             -0.1109   XZ=             -0.0855   YZ=             -0.0612

 Normal termination of Gaussian 09 at Wed Aug 26 12:11:29 2020.
