 Gaussian 09, Revision D.01,
 Gaussian 09:  ES64L-G09RevD.01 24-Apr-2013

 --------------------
 #p B2PLYPD3/Def2QZVP
 --------------------

 ------------
 cyanomethane
 ------------
 Symbolic Z-matrix:
 Charge =  0 Multiplicity = 1

                         Standard orientation:
 ---------------------------------------------------------------------
 Center     Atomic      Atomic             Coordinates (Angstroms)
 Number     Number       Type             X           Y           Z
 ---------------------------------------------------------------------
      1          6           0        1.175013   -0.019486   -0.001048
      2          6           0       -0.291499   -0.029376    0.009221
      3          7           0       -1.447725    0.036346   -0.007290
      4          1           0        1.846583    1.022421   -0.378958
      5          1           0        1.443691   -0.847084   -0.623292
      6          1           0        1.542717   -0.136589    1.004240
 ---------------------------------------------------------------------

 SCF Done:  E(RB2PLYPD3) =  -132.509239431     A.U. after   13 cycles
 E2(B2PLYPD3) =    -0.1821339820D+00 E(B2PLYPD3) =    -0.13269137341332D+03

 The electronic state is 1-A.
 Alpha  occ. eigenvalues --  -14.84608 -10.68740 -10.66725  -1.04167  -0.88296
 Alpha  occ. eigenvalues --   -0.59483  -0.54892  -0.49711  -0.45037  -0.39253
 Alpha  occ. eigenvalues --   -0.38620
 Alpha virt. eigenvalues --    0.02380   0.06032   0.08355   0.10159   0.11163
 Alpha virt. eigenvalues --    0.11852   0.15162   0.15754   0.17631   0.19965
 Alpha virt. eigenvalues --    0.20508   0.25260   0.29691   0.33282   0.34962

 Mulliken charges:
               1
     1  C   -0.097774
     2  C    0.005468
     3  N   -0.203382
     4  H    0.088366
     5  H    0.106658
     6  H    0.100664
 Sum of Mulliken charges =   0.00000

 Dipole moment (field-independent basis, Debye):
    X=              4.1057    Y=             -0.1263    Z=              0.0730  Tot=              4.1083
 Quadrupole moment (field-independent basis, Debye-Ang):
   XX=            -20.8297   YY=            -17.9120   ZZ=            -18.0040
   XY=              0.3667   XZ=              0.0691   YZ=              0.1640

 Normal termination of Gaussian 09 at Wed Aug 26 21:03:10 2020.
