 Gaussian 09, Revision D.01,
 Gaussian 09:  ES64L-G09RevD.01 24-Apr-2013

 --------------------
 #p B2PLYPD3/Def2QZVP
 --------------------

 ------------
 cyanomethane
 ------------
 Symbolic Z-matrix:
 Charge =  0 Multiplicity = 1

                         Standard orientation:
 ---------------------------------------------------------------------
 Center     Atomic      Atomic             Coordinates (Angstroms)
 Number     Number       Type             X           Y           Z
 ---------------------------------------------------------------------
      1          6           0        1.192363    0.001391   -0.009703
      2          6           0       -0.273744   -0.025908   -0.018807
      3          7           0       -1.441820    0.020104    0.012934
      4          1           0        1.443792   -0.711576   -0.719204
      5          1           0        1.529771   -0.305042    1.004901
      6          1           0        1.607460    1.022991   -0.205177
 ---------------------------------------------------------------------

 SCF Done:  E(RB2PLYPD3) =  -132.528620631     A.U. after   12 cycles
 E2(B2PLYPD3) =    -0.1818866637D+00 E(B2PLYPD3) =    -0.13271050729466D+03

 The electronic state is 1-A.
 Alpha  occ. eigenvalues --  -14.84526 -10.67313 -10.66629  -1.03459  -0.89349
 Alpha  occ. eigenvalues --   -0.58974  -0.55509  -0.53019  -0.44715  -0.38765
 Alpha  occ. eigenvalues --   -0.38560
 Alpha virt. eigenvalues --    0.03613   0.07169   0.08494   0.10113   0.10999
 Alpha virt. eigenvalues --    0.11434   0.15148   0.15476   0.16618   0.20100
 Alpha virt. eigenvalues --    0.20242   0.25182   0.32374   0.33870   0.35051

 Mulliken charges:
               1
     1  C   -0.095220
     2  C   -0.000452
     3  N   -0.213892
     4  H    0.108507
     5  H    0.099046
     6  H    0.102010
 Sum of Mulliken charges =   0.00000

 Dipole moment (field-independent basis, Debye):
    X=              4.1373    Y=             -0.0371    Z=             -0.0043  Tot=              4.1375
 Quadrupole moment (field-independent basis, Debye-Ang):
   XX=            -21.2116   YY=            -17.6925   ZZ=            -17.8097
   XY=              0.1994   XZ=              0.1412   YZ=              0.0728

 Normal termination of Gaussian 09 at Wed Aug 26 12:11:44 2020.
