 Gaussian 09, Revision D.01,
 Gaussian 09:  ES64L-G09RevD.01 24-Apr-2013

 --------------------
 #p B2PLYPD3/Def2QZVP
 --------------------

 ------------
 cyanomethane
 ------------
 Symbolic Z-matrix:
 Charge =  0 Multiplicity = 1

                         Standard orientation:
 ---------------------------------------------------------------------
 Center     Atomic      Atomic             Coordinates (Angstroms)
 Number     Number       Type             X           Y           Z
 ---------------------------------------------------------------------
      1          6           0        1.206690   -0.014070    0.003759
      2          6           0       -0.280716   -0.025992   -0.038784
      3          7           0       -1.447722    0.030762    0.020465
      4          1           0        1.349139   -0.937498   -0.510586
      5          1           0        1.532305   -0.008782    1.071043
      6          1           0        1.696770    0.971317   -0.493562
 ---------------------------------------------------------------------

 SCF Done:  E(RB2PLYPD3) =  -132.516371548     A.U. after   12 cycles
 E2(B2PLYPD3) =    -0.1828050747D+00 E(B2PLYPD3) =    -0.13269917662264D+03

 The electronic state is 1-A.
 Alpha  occ. eigenvalues --  -14.84555 -10.68739 -10.66744  -1.03399  -0.88372
 Alpha  occ. eigenvalues --   -0.58198  -0.54820  -0.51574  -0.44629  -0.38656
 Alpha  occ. eigenvalues --   -0.38518
 Alpha virt. eigenvalues --    0.03182   0.06418   0.08550   0.10059   0.10917
 Alpha virt. eigenvalues --    0.11481   0.14556   0.15308   0.16708   0.20039
 Alpha virt. eigenvalues --    0.20256   0.24817   0.31121   0.33314   0.34524

 Mulliken charges:
               1
     1  C   -0.114388
     2  C    0.001147
     3  N   -0.212857
     4  H    0.117204
     5  H    0.107980
     6  H    0.100914
 Sum of Mulliken charges =   0.00000

 Dipole moment (field-independent basis, Debye):
    X=              4.1097    Y=             -0.0476    Z=              0.0100  Tot=              4.1100
 Quadrupole moment (field-independent basis, Debye-Ang):
   XX=            -21.4470   YY=            -17.6717   ZZ=            -17.9079
   XY=              0.4460   XZ=              0.2126   YZ=              0.1061

 Normal termination of Gaussian 09 at Wed Aug 26 20:12:50 2020.
