 Gaussian 09, Revision D.01,
 Gaussian 09:  ES64L-G09RevD.01 24-Apr-2013

 --------------------
 #p B2PLYPD3/Def2QZVP
 --------------------

 ------------
 cyanomethane
 ------------
 Symbolic Z-matrix:
 Charge =  0 Multiplicity = 1

                         Standard orientation:
 ---------------------------------------------------------------------
 Center     Atomic      Atomic             Coordinates (Angstroms)
 Number     Number       Type             X           Y           Z
 ---------------------------------------------------------------------
      1          6           0       -1.179717    0.001332    0.017044
      2          6           0        0.256370    0.006746    0.066110
      3          7           0        1.427678   -0.006594   -0.049411
      4          1           0       -1.322672   -0.351656    0.939197
      5          1           0       -1.645574   -0.741548   -0.827698
      6          1           0       -1.485421    1.090899   -0.264549
 ---------------------------------------------------------------------

 SCF Done:  E(RB2PLYPD3) =  -132.502618342     A.U. after   13 cycles
 E2(B2PLYPD3) =    -0.1835648784D+00 E(B2PLYPD3) =    -0.13268618322030D+03

 The electronic state is 1-A.
 Alpha  occ. eigenvalues --  -14.84627 -10.68046 -10.66622  -1.03275  -0.89890
 Alpha  occ. eigenvalues --   -0.57882  -0.56839  -0.51381  -0.44667  -0.38360
 Alpha  occ. eigenvalues --   -0.37900
 Alpha virt. eigenvalues --    0.02897   0.05755   0.08907   0.09949   0.10855
 Alpha virt. eigenvalues --    0.11684   0.14663   0.15281   0.16626   0.20132
 Alpha virt. eigenvalues --    0.20320   0.25653   0.31535   0.32308   0.34730

 Mulliken charges:
               1
     1  C   -0.120923
     2  C    0.004989
     3  N   -0.218096
     4  H    0.122323
     5  H    0.098839
     6  H    0.112867
 Sum of Mulliken charges =   0.00000

 Dipole moment (field-independent basis, Debye):
    X=             -4.0547    Y=              0.0111    Z=              0.0582  Tot=              4.0551
 Quadrupole moment (field-independent basis, Debye-Ang):
   XX=            -21.6242   YY=            -17.6529   ZZ=            -17.7575
   XY=              0.0985   XZ=              0.4999   YZ=             -0.1650

 Normal termination of Gaussian 09 at Wed Aug 26 21:21:47 2020.
