 Gaussian 09, Revision D.01,
 Gaussian 09:  ES64L-G09RevD.01 24-Apr-2013

 --------------------
 #p B2PLYPD3/Def2QZVP
 --------------------

 ------------
 cyanomethane
 ------------
 Symbolic Z-matrix:
 Charge =  0 Multiplicity = 1

                         Standard orientation:
 ---------------------------------------------------------------------
 Center     Atomic      Atomic             Coordinates (Angstroms)
 Number     Number       Type             X           Y           Z
 ---------------------------------------------------------------------
      1          6           0       -1.174184    0.010840   -0.000845
      2          6           0        0.270599   -0.046643    0.006879
      3          7           0        1.447654    0.023114   -0.003530
      4          1           0       -1.570316    0.003126    1.010643
      5          1           0       -1.571533   -0.853524   -0.525236
      6          1           0       -1.570221    0.903415   -0.496902
 ---------------------------------------------------------------------

 SCF Done:  E(RB2PLYPD3) =  -132.531516835     A.U. after   12 cycles
 E2(B2PLYPD3) =    -0.1827512381D+00 E(B2PLYPD3) =    -0.13271426807356D+03

 The electronic state is 1-A.
 Alpha  occ. eigenvalues --  -14.84994 -10.67088 -10.67029  -1.03249  -0.89408
 Alpha  occ. eigenvalues --   -0.60567  -0.53941  -0.53554  -0.45005  -0.38506
 Alpha  occ. eigenvalues --   -0.38478
 Alpha virt. eigenvalues --    0.03658   0.07015   0.07483   0.10049   0.11187
 Alpha virt. eigenvalues --    0.11388   0.15497   0.16039   0.16770   0.20150
 Alpha virt. eigenvalues --    0.20237   0.25694   0.32601   0.34560   0.34649

 Mulliken charges:
               1
     1  C   -0.072867
     2  C    0.004999
     3  N   -0.216089
     4  H    0.094678
     5  H    0.093593
     6  H    0.095686
 Sum of Mulliken charges =   0.00000

 Dipole moment (field-independent basis, Debye):
    X=             -4.1627    Y=             -0.0279    Z=              0.0043  Tot=              4.1628
 Quadrupole moment (field-independent basis, Debye-Ang):
   XX=            -20.8572   YY=            -17.8747   ZZ=            -17.8719
   XY=             -0.1180   XZ=              0.0189   YZ=              0.0065

 Normal termination of Gaussian 09 at Wed Aug 26 14:13:28 2020.
