 Gaussian 09, Revision D.01,
 Gaussian 09:  ES64L-G09RevD.01 24-Apr-2013

 --------------------
 #p B2PLYPD3/Def2QZVP
 --------------------

 ------------
 cyanomethane
 ------------
 Symbolic Z-matrix:
 Charge =  0 Multiplicity = 1

                         Standard orientation:
 ---------------------------------------------------------------------
 Center     Atomic      Atomic             Coordinates (Angstroms)
 Number     Number       Type             X           Y           Z
 ---------------------------------------------------------------------
      1          6           0       -1.175777    0.009353    0.009575
      2          6           0        0.270513    0.003828   -0.014717
      3          7           0        1.432185   -0.004374    0.006632
      4          1           0       -1.544109   -0.666732   -0.786751
      5          1           0       -1.512369    0.986715   -0.177400
      6          1           0       -1.537232   -0.368453    0.948574
 ---------------------------------------------------------------------

 SCF Done:  E(RB2PLYPD3) =  -132.533729796     A.U. after   11 cycles
 E2(B2PLYPD3) =    -0.1809404479D+00 E(B2PLYPD3) =    -0.13271467024424D+03

 The electronic state is 1-A.
 Alpha  occ. eigenvalues --  -14.84313 -10.66693 -10.66342  -1.03815  -0.89781
 Alpha  occ. eigenvalues --   -0.59801  -0.55251  -0.53644  -0.44760  -0.38927
 Alpha  occ. eigenvalues --   -0.38712
 Alpha virt. eigenvalues --    0.03808   0.07695   0.08172   0.10147   0.11256
 Alpha virt. eigenvalues --    0.11524   0.15461   0.15974   0.16391   0.20114
 Alpha virt. eigenvalues --    0.20175   0.25530   0.32767   0.34264   0.35235

 Mulliken charges:
               1
     1  C   -0.082914
     2  C   -0.001007
     3  N   -0.210910
     4  H    0.094225
     5  H    0.101327
     6  H    0.099279
 Sum of Mulliken charges =   0.00000

 Dipole moment (field-independent basis, Debye):
    X=             -4.1338    Y=              0.0026    Z=             -0.0105  Tot=              4.1338
 Quadrupole moment (field-independent basis, Debye-Ang):
   XX=            -21.0685   YY=            -17.6908   ZZ=            -17.7545
   XY=              0.0590   XZ=             -0.0285   YZ=             -0.0450

 Normal termination of Gaussian 09 at Wed Aug 26 10:14:29 2020.
