 Gaussian 09, Revision D.01,
 Gaussian 09:  ES64L-G09RevD.01 24-Apr-2013

 --------------------
 #p B2PLYPD3/Def2QZVP
 --------------------

 ------------
 cyanomethane
 ------------
 Symbolic Z-matrix:
 Charge =  0 Multiplicity = 1

                         Standard orientation:
 ---------------------------------------------------------------------
 Center     Atomic      Atomic             Coordinates (Angstroms)
 Number     Number       Type             X           Y           Z
 ---------------------------------------------------------------------
      1          6           0       -1.166334   -0.007096   -0.016257
      2          6           0        0.271198    0.023305   -0.007906
      3          7           0        1.436119   -0.014615    0.004048
      4          1           0       -1.521527    1.074734   -0.051756
      5          1           0       -1.554550   -0.452602    0.974984
      6          1           0       -1.605933   -0.617083   -0.806586
 ---------------------------------------------------------------------

 SCF Done:  E(RB2PLYPD3) =  -132.528682416     A.U. after   12 cycles
 E2(B2PLYPD3) =    -0.1820571769D+00 E(B2PLYPD3) =    -0.13271073959310D+03

 The electronic state is 1-A.
 Alpha  occ. eigenvalues --  -14.84532 -10.68115 -10.66576  -1.03751  -0.88806
 Alpha  occ. eigenvalues --   -0.59969  -0.53843  -0.52276  -0.44896  -0.38764
 Alpha  occ. eigenvalues --   -0.38441
 Alpha virt. eigenvalues --    0.03506   0.06873   0.07298   0.10047   0.11380
 Alpha virt. eigenvalues --    0.11738   0.15381   0.15866   0.16834   0.20082
 Alpha virt. eigenvalues --    0.20218   0.25696   0.32381   0.33151   0.34610

 Mulliken charges:
               1
     1  C   -0.094485
     2  C    0.004921
     3  N   -0.210390
     4  H    0.100266
     5  H    0.095279
     6  H    0.104409
 Sum of Mulliken charges =   0.00000

 Dipole moment (field-independent basis, Debye):
    X=             -4.1209    Y=              0.0062    Z=              0.0063  Tot=              4.1209
 Quadrupole moment (field-independent basis, Debye-Ang):
   XX=            -21.0956   YY=            -17.7192   ZZ=            -17.9324
   XY=              0.1707   XZ=             -0.0273   YZ=              0.0662

 Normal termination of Gaussian 09 at Wed Aug 26 12:45:45 2020.
