 Gaussian 09, Revision D.01,
 Gaussian 09:  ES64L-G09RevD.01 24-Apr-2013

 --------------------
 #p B2PLYPD3/Def2QZVP
 --------------------

 ------------
 cyanomethane
 ------------
 Symbolic Z-matrix:
 Charge =  0 Multiplicity = 1

                         Standard orientation:
 ---------------------------------------------------------------------
 Center     Atomic      Atomic             Coordinates (Angstroms)
 Number     Number       Type             X           Y           Z
 ---------------------------------------------------------------------
      1          6           0       -1.180099   -0.010876    0.018339
      2          6           0        0.282689    0.031942    0.001380
      3          7           0        1.419938   -0.012973   -0.005142
      4          1           0       -1.477881   -0.223919    0.988258
      5          1           0       -1.515343   -0.838242   -0.708264
      6          1           0       -1.561882    1.026577   -0.362313
 ---------------------------------------------------------------------

 SCF Done:  E(RB2PLYPD3) =  -132.527507503     A.U. after   12 cycles
 E2(B2PLYPD3) =    -0.1795033734D+00 E(B2PLYPD3) =    -0.13270701087623D+03

 The electronic state is 1-A.
 Alpha  occ. eigenvalues --  -14.83580 -10.68015 -10.65619  -1.04678  -0.88694
 Alpha  occ. eigenvalues --   -0.58570  -0.54595  -0.52515  -0.44569  -0.39471
 Alpha  occ. eigenvalues --   -0.39134
 Alpha virt. eigenvalues --    0.03518   0.07432   0.08550   0.10173   0.11553
 Alpha virt. eigenvalues --    0.11864   0.15253   0.15938   0.16157   0.19997
 Alpha virt. eigenvalues --    0.20054   0.25250   0.31992   0.33176   0.34829

 Mulliken charges:
               1
     1  C   -0.112117
     2  C   -0.004234
     3  N   -0.197989
     4  H    0.111137
     5  H    0.102489
     6  H    0.100714
 Sum of Mulliken charges =   0.00000

 Dipole moment (field-independent basis, Debye):
    X=             -4.0572    Y=              0.0028    Z=              0.0224  Tot=              4.0573
 Quadrupole moment (field-independent basis, Debye-Ang):
   XX=            -21.3926   YY=            -17.6005   ZZ=            -17.6687
   XY=              0.0700   XZ=              0.0403   YZ=             -0.0346

 Normal termination of Gaussian 09 at Wed Aug 26 15:00:50 2020.
