 Gaussian 09, Revision D.01,
 Gaussian 09:  ES64L-G09RevD.01 24-Apr-2013

 --------------------
 #p B2PLYPD3/Def2QZVP
 --------------------

 ------------
 cyanomethane
 ------------
 Symbolic Z-matrix:
 Charge =  0 Multiplicity = 1

                         Standard orientation:
 ---------------------------------------------------------------------
 Center     Atomic      Atomic             Coordinates (Angstroms)
 Number     Number       Type             X           Y           Z
 ---------------------------------------------------------------------
      1          6           0        1.166656    0.003699   -0.004546
      2          6           0       -0.300622    0.056064   -0.006367
      3          7           0       -1.444717   -0.022652    0.002581
      4          1           0        1.593693   -0.674037   -0.835397
      5          1           0        1.573938   -0.520484    0.949441
      6          1           0        1.749179    0.994505   -0.066633
 ---------------------------------------------------------------------

 SCF Done:  E(RB2PLYPD3) =  -132.523743816     A.U. after   12 cycles
 E2(B2PLYPD3) =    -0.1811048198D+00 E(B2PLYPD3) =    -0.13270484863601D+03

 The electronic state is 1-A.
 Alpha  occ. eigenvalues --  -14.84382 -10.69103 -10.66563  -1.04675  -0.87359
 Alpha  occ. eigenvalues --   -0.60156  -0.51977  -0.51144  -0.45112  -0.39432
 Alpha  occ. eigenvalues --   -0.39134
 Alpha virt. eigenvalues --    0.03284   0.06848   0.06926   0.10159   0.11541
 Alpha virt. eigenvalues --    0.11967   0.15316   0.16643   0.17424   0.19972
 Alpha virt. eigenvalues --    0.20080   0.25264   0.31884   0.33169   0.34223

 Mulliken charges:
               1
     1  C   -0.086991
     2  C    0.008850
     3  N   -0.197426
     4  H    0.092028
     5  H    0.089993
     6  H    0.093546
 Sum of Mulliken charges =   0.00000

 Dipole moment (field-independent basis, Debye):
    X=              4.1078    Y=             -0.0032    Z=              0.0061  Tot=              4.1078
 Quadrupole moment (field-independent basis, Debye-Ang):
   XX=            -20.6548   YY=            -17.8871   ZZ=            -18.0992
   XY=             -0.1072   XZ=              0.0218   YZ=              0.0119

 Normal termination of Gaussian 09 at Wed Aug 26 23:37:03 2020.
