 Gaussian 09, Revision D.01,
 Gaussian 09:  ES64L-G09RevD.01 24-Apr-2013

 --------------------
 #p B2PLYPD3/Def2QZVP
 --------------------

 ------------
 cyanomethane
 ------------
 Symbolic Z-matrix:
 Charge =  0 Multiplicity = 1

                         Standard orientation:
 ---------------------------------------------------------------------
 Center     Atomic      Atomic             Coordinates (Angstroms)
 Number     Number       Type             X           Y           Z
 ---------------------------------------------------------------------
      1          6           0        1.175931   -0.021306    0.003746
      2          6           0       -0.275898    0.007974   -0.068364
      3          7           0       -1.454401    0.000165    0.032372
      4          1           0        1.630166    0.970619   -0.109838
      5          1           0        1.614429   -0.602746   -0.601315
      6          1           0        1.536014   -0.289038    0.872262
 ---------------------------------------------------------------------

 SCF Done:  E(RB2PLYPD3) =  -132.502355981     A.U. after   11 cycles
 E2(B2PLYPD3) =    -0.1824579804D+00 E(B2PLYPD3) =    -0.13268481396169D+03

 The electronic state is 1-A.
 Alpha  occ. eigenvalues --  -14.85304 -10.67413 -10.64477  -1.03264  -0.91442
 Alpha  occ. eigenvalues --   -0.63072  -0.56178  -0.53339  -0.45225  -0.38889
 Alpha  occ. eigenvalues --   -0.38559
 Alpha virt. eigenvalues --    0.03812   0.07163   0.08108   0.10138   0.10998
 Alpha virt. eigenvalues --    0.11580   0.15666   0.16833   0.17078   0.20143
 Alpha virt. eigenvalues --    0.20304   0.25606   0.32582   0.34850   0.36289

 Mulliken charges:
               1
     1  C   -0.036934
     2  C    0.020698
     3  N   -0.218379
     4  H    0.073761
     5  H    0.083957
     6  H    0.076897
 Sum of Mulliken charges =   0.00000

 Dipole moment (field-independent basis, Debye):
    X=              4.1961    Y=             -0.0321    Z=              0.0072  Tot=              4.1962
 Quadrupole moment (field-independent basis, Debye-Ang):
   XX=            -20.2593   YY=            -17.7996   ZZ=            -18.0046
   XY=             -0.0302   XZ=              0.2279   YZ=              0.0629

 Normal termination of Gaussian 09 at Wed Aug 26 23:29:23 2020.
