 Gaussian 09, Revision D.01,
 Gaussian 09:  ES64L-G09RevD.01 24-Apr-2013

 --------------------
 #p B2PLYPD3/Def2QZVP
 --------------------

 ------------
 cyanomethane
 ------------
 Symbolic Z-matrix:
 Charge =  0 Multiplicity = 1

                         Standard orientation:
 ---------------------------------------------------------------------
 Center     Atomic      Atomic             Coordinates (Angstroms)
 Number     Number       Type             X           Y           Z
 ---------------------------------------------------------------------
      1          6           0        1.173966    0.006348   -0.022040
      2          6           0       -0.278146    0.040937    0.013600
      3          7           0       -1.440101   -0.026177   -0.005992
      4          1           0        1.513443    0.983389    0.091140
      5          1           0        1.609479   -0.487771   -0.852698
      6          1           0        1.582864   -0.596086    0.854149
 ---------------------------------------------------------------------

 SCF Done:  E(RB2PLYPD3) =  -132.528845778     A.U. after   12 cycles
 E2(B2PLYPD3) =    -0.1813822836D+00 E(B2PLYPD3) =    -0.13271022806162D+03

 The electronic state is 1-A.
 Alpha  occ. eigenvalues --  -14.84579 -10.66783 -10.66632  -1.03834  -0.89546
 Alpha  occ. eigenvalues --   -0.60650  -0.55471  -0.52187  -0.44948  -0.39081
 Alpha  occ. eigenvalues --   -0.38649
 Alpha virt. eigenvalues --    0.03655   0.07120   0.08239   0.10033   0.11096
 Alpha virt. eigenvalues --    0.11723   0.15456   0.16042   0.17153   0.20003
 Alpha virt. eigenvalues --    0.20277   0.25546   0.32586   0.33845   0.35648

 Mulliken charges:
               1
     1  C   -0.071438
     2  C    0.003609
     3  N   -0.209919
     4  H    0.098048
     5  H    0.095540
     6  H    0.084161
 Sum of Mulliken charges =   0.00000

 Dipole moment (field-independent basis, Debye):
    X=              4.1428    Y=              0.0224    Z=              0.0130  Tot=              4.1429
 Quadrupole moment (field-independent basis, Debye-Ang):
   XX=            -20.8060   YY=            -17.6976   ZZ=            -17.9621
   XY=             -0.2495   XZ=             -0.0288   YZ=              0.0828

 Normal termination of Gaussian 09 at Wed Aug 26 16:22:14 2020.
