 Gaussian 09, Revision D.01,
 Gaussian 09:  ES64L-G09RevD.01 24-Apr-2013

 --------------------
 #p B2PLYPD3/Def2QZVP
 --------------------

 ------------
 cyanomethane
 ------------
 Symbolic Z-matrix:
 Charge =  0 Multiplicity = 1

                         Standard orientation:
 ---------------------------------------------------------------------
 Center     Atomic      Atomic             Coordinates (Angstroms)
 Number     Number       Type             X           Y           Z
 ---------------------------------------------------------------------
      1          6           0        1.165337   -0.001576    0.022344
      2          6           0       -0.264784    0.015641   -0.027602
      3          7           0       -1.436991   -0.008768    0.009404
      4          1           0        1.544786    1.043203   -0.106080
      5          1           0        1.586224   -0.621179   -0.828899
      6          1           0        1.524609   -0.445048    0.900695
 ---------------------------------------------------------------------

 SCF Done:  E(RB2PLYPD3) =  -132.529548244     A.U. after   11 cycles
 E2(B2PLYPD3) =    -0.1823037806D+00 E(B2PLYPD3) =    -0.13271185202408D+03

 The electronic state is 1-A.
 Alpha  occ. eigenvalues --  -14.84712 -10.67230 -10.66716  -1.03477  -0.89553
 Alpha  occ. eigenvalues --   -0.60455  -0.54655  -0.52846  -0.44916  -0.38615
 Alpha  occ. eigenvalues --   -0.38338
 Alpha virt. eigenvalues --    0.03681   0.07011   0.07433   0.10043   0.11300
 Alpha virt. eigenvalues --    0.11577   0.15491   0.16050   0.16559   0.20135
 Alpha virt. eigenvalues --    0.20231   0.25867   0.32447   0.33690   0.35092

 Mulliken charges:
               1
     1  C   -0.082556
     2  C    0.004250
     3  N   -0.214682
     4  H    0.098574
     5  H    0.091423
     6  H    0.102991
 Sum of Mulliken charges =   0.00000

 Dipole moment (field-independent basis, Debye):
    X=              4.1397    Y=             -0.0071    Z=             -0.0057  Tot=              4.1397
 Quadrupole moment (field-independent basis, Debye-Ang):
   XX=            -21.0182   YY=            -17.7224   ZZ=            -17.9015
   XY=             -0.1063   XZ=              0.0102   YZ=             -0.0733

 Normal termination of Gaussian 09 at Wed Aug 26 10:36:39 2020.
