 Gaussian 09, Revision D.01,
 Gaussian 09:  ES64L-G09RevD.01 24-Apr-2013

 --------------------
 #p B2PLYPD3/Def2QZVP
 --------------------

 ------------
 cyanomethane
 ------------
 Symbolic Z-matrix:
 Charge =  0 Multiplicity = 1

                         Standard orientation:
 ---------------------------------------------------------------------
 Center     Atomic      Atomic             Coordinates (Angstroms)
 Number     Number       Type             X           Y           Z
 ---------------------------------------------------------------------
      1          6           0        1.178514   -0.008518   -0.004274
      2          6           0       -0.281154   -0.020848    0.002972
      3          7           0       -1.428250    0.012261   -0.002960
      4          1           0        1.550061    1.006432   -0.248915
      5          1           0        1.551953   -0.685849   -0.690890
      6          1           0        1.511577   -0.230214    0.968331
 ---------------------------------------------------------------------

 SCF Done:  E(RB2PLYPD3) =  -132.533450976     A.U. after   11 cycles
 E2(B2PLYPD3) =    -0.1795609456D+00 E(B2PLYPD3) =    -0.13271301192163D+03

 The electronic state is 1-A.
 Alpha  occ. eigenvalues --  -14.83953 -10.66347 -10.65991  -1.04371  -0.89788
 Alpha  occ. eigenvalues --   -0.59846  -0.55425  -0.53595  -0.44725  -0.39397
 Alpha  occ. eigenvalues --   -0.39151
 Alpha virt. eigenvalues --    0.03836   0.08075   0.08719   0.10214   0.11299
 Alpha virt. eigenvalues --    0.11619   0.15470   0.16126   0.16605   0.20027
 Alpha virt. eigenvalues --    0.20111   0.25315   0.32938   0.34400   0.35575

 Mulliken charges:
               1
     1  C   -0.077552
     2  C   -0.003802
     3  N   -0.203491
     4  H    0.091722
     5  H    0.097716
     6  H    0.095408
 Sum of Mulliken charges =   0.00000

 Dipole moment (field-independent basis, Debye):
    X=              4.1225    Y=             -0.0196    Z=              0.0172  Tot=              4.1226
 Quadrupole moment (field-independent basis, Debye-Ang):
   XX=            -20.9492   YY=            -17.6914   ZZ=            -17.6895
   XY=              0.0764   XZ=             -0.0193   YZ=              0.0466

 Normal termination of Gaussian 09 at Thu Aug 27 00:12:14 2020.
