 Gaussian 09, Revision D.01,
 Gaussian 09:  ES64L-G09RevD.01 24-Apr-2013

 --------------------
 #p B2PLYPD3/Def2QZVP
 --------------------

 ------------
 cyanomethane
 ------------
 Symbolic Z-matrix:
 Charge =  0 Multiplicity = 1

                         Standard orientation:
 ---------------------------------------------------------------------
 Center     Atomic      Atomic             Coordinates (Angstroms)
 Number     Number       Type             X           Y           Z
 ---------------------------------------------------------------------
      1          6           0       -1.170486   -0.005635    0.001767
      2          6           0        0.282121    0.024307    0.004559
      3          7           0        1.431547   -0.012785   -0.003264
      4          1           0       -1.555310   -0.114848    0.994508
      5          1           0       -1.575435   -0.821322   -0.596983
      6          1           0       -1.559896    0.913630   -0.412634
 ---------------------------------------------------------------------

 SCF Done:  E(RB2PLYPD3) =  -132.535621164     A.U. after   11 cycles
 E2(B2PLYPD3) =    -0.1800042535D+00 E(B2PLYPD3) =    -0.13271562541719D+03

 The electronic state is 1-A.
 Alpha  occ. eigenvalues --  -14.84130 -10.66746 -10.66167  -1.04352  -0.89419
 Alpha  occ. eigenvalues --   -0.60298  -0.54143  -0.53612  -0.44852  -0.39241
 Alpha  occ. eigenvalues --   -0.39181
 Alpha virt. eigenvalues --    0.03796   0.07830   0.08172   0.10165   0.11476
 Alpha virt. eigenvalues --    0.11582   0.15529   0.16301   0.16823   0.20043
 Alpha virt. eigenvalues --    0.20096   0.25492   0.32944   0.34713   0.34965

 Mulliken charges:
               1
     1  C   -0.073438
     2  C   -0.000701
     3  N   -0.203594
     4  H    0.093578
     5  H    0.092319
     6  H    0.091836
 Sum of Mulliken charges =   0.00000

 Dipole moment (field-independent basis, Debye):
    X=             -4.1270    Y=              0.0204    Z=              0.0061  Tot=              4.1270
 Quadrupole moment (field-independent basis, Debye-Ang):
   XX=            -20.8315   YY=            -17.7728   ZZ=            -17.7566
   XY=              0.0790   XZ=              0.0282   YZ=             -0.0101

 Normal termination of Gaussian 09 at Thu Aug 27 00:04:24 2020.
