 Gaussian 09, Revision D.01,
 Gaussian 09:  ES64L-G09RevD.01 24-Apr-2013

 --------------------
 #p B2PLYPD3/Def2QZVP
 --------------------

 ------------
 cyanomethane
 ------------
 Symbolic Z-matrix:
 Charge =  0 Multiplicity = 1

                         Standard orientation:
 ---------------------------------------------------------------------
 Center     Atomic      Atomic             Coordinates (Angstroms)
 Number     Number       Type             X           Y           Z
 ---------------------------------------------------------------------
      1          6           0       -1.200354   -0.000295   -0.014711
      2          6           0        0.275923    0.047181   -0.032044
      3          7           0        1.437336   -0.028852    0.012856
      4          1           0       -1.466007    0.985494   -0.185350
      5          1           0       -1.455363   -0.303677    1.050104
      6          1           0       -1.593399   -0.761166   -0.674223
 ---------------------------------------------------------------------

 SCF Done:  E(RB2PLYPD3) =  -132.527196345     A.U. after   12 cycles
 E2(B2PLYPD3) =    -0.1814884753D+00 E(B2PLYPD3) =    -0.13270868482009D+03

 The electronic state is 1-A.
 Alpha  occ. eigenvalues --  -14.84320 -10.67272 -10.66439  -1.03578  -0.89334
 Alpha  occ. eigenvalues --   -0.58617  -0.56103  -0.52887  -0.44599  -0.38963
 Alpha  occ. eigenvalues --   -0.38538
 Alpha virt. eigenvalues --    0.03570   0.07515   0.08748   0.10082   0.10853
 Alpha virt. eigenvalues --    0.11528   0.15116   0.15247   0.16535   0.20034
 Alpha virt. eigenvalues --    0.20240   0.25056   0.32462   0.33229   0.35677

 Mulliken charges:
               1
     1  C   -0.100911
     2  C   -0.001639
     3  N   -0.212642
     4  H    0.109476
     5  H    0.099025
     6  H    0.106690
 Sum of Mulliken charges =   0.00000

 Dipole moment (field-independent basis, Debye):
    X=             -4.1206    Y=              0.0279    Z=              0.0051  Tot=              4.1207
 Quadrupole moment (field-independent basis, Debye-Ang):
   XX=            -21.3374   YY=            -17.5636   ZZ=            -17.8354
   XY=              0.2507   XZ=             -0.0312   YZ=              0.0351

 Normal termination of Gaussian 09 at Wed Aug 26 23:27:46 2020.
