 Gaussian 09, Revision D.01,
 Gaussian 09:  ES64L-G09RevD.01 24-Apr-2013

 --------------------
 #p B2PLYPD3/Def2QZVP
 --------------------

 ------------
 cyanomethane
 ------------
 Symbolic Z-matrix:
 Charge =  0 Multiplicity = 1

                         Standard orientation:
 ---------------------------------------------------------------------
 Center     Atomic      Atomic             Coordinates (Angstroms)
 Number     Number       Type             X           Y           Z
 ---------------------------------------------------------------------
      1          6           0        1.181030    0.001886   -0.006380
      2          6           0       -0.279195   -0.009871   -0.003965
      3          7           0       -1.437003    0.007703    0.001789
      4          1           0        1.528829   -0.814257   -0.622181
      5          1           0        1.531011   -0.154105    1.033014
      6          1           0        1.588169    0.962352   -0.361283
 ---------------------------------------------------------------------

 SCF Done:  E(RB2PLYPD3) =  -132.534675922     A.U. after   12 cycles
 E2(B2PLYPD3) =    -0.1808552290D+00 E(B2PLYPD3) =    -0.13271553115104D+03

 The electronic state is 1-A.
 Alpha  occ. eigenvalues --  -14.84277 -10.67396 -10.66360  -1.03961  -0.89048
 Alpha  occ. eigenvalues --   -0.59493  -0.54258  -0.53363  -0.44778  -0.39029
 Alpha  occ. eigenvalues --   -0.38892
 Alpha virt. eigenvalues --    0.03706   0.07609   0.08012   0.10172   0.11331
 Alpha virt. eigenvalues --    0.11513   0.15342   0.15958   0.16584   0.20079
 Alpha virt. eigenvalues --    0.20136   0.25283   0.32589   0.34173   0.34806

 Mulliken charges:
               1
     1  C   -0.088548
     2  C   -0.000904
     3  N   -0.207662
     4  H    0.100888
     5  H    0.097101
     6  H    0.099125
 Sum of Mulliken charges =   0.00000

 Dipole moment (field-independent basis, Debye):
    X=              4.1303    Y=             -0.0165    Z=              0.0056  Tot=              4.1304
 Quadrupole moment (field-independent basis, Debye-Ang):
   XX=            -21.0639   YY=            -17.7245   ZZ=            -17.7990
   XY=              0.0767   XZ=              0.0149   YZ=              0.0226

 Normal termination of Gaussian 09 at Wed Aug 26 09:38:14 2020.
