 Gaussian 09, Revision D.01,
 Gaussian 09:  ES64L-G09RevD.01 24-Apr-2013

 --------------------
 #p B2PLYPD3/Def2QZVP
 --------------------

 ------------
 cyanomethane
 ------------
 Symbolic Z-matrix:
 Charge =  0 Multiplicity = 1

                         Standard orientation:
 ---------------------------------------------------------------------
 Center     Atomic      Atomic             Coordinates (Angstroms)
 Number     Number       Type             X           Y           Z
 ---------------------------------------------------------------------
      1          6           0       -1.165332    0.007799    0.010186
      2          6           0        0.296385    0.043383    0.010799
      3          7           0        1.444339   -0.015294   -0.000671
      4          1           0       -1.664824   -0.494622    0.909187
      5          1           0       -1.486789   -0.686715   -0.873777
      6          1           0       -1.745085    0.981303   -0.156619
 ---------------------------------------------------------------------

 SCF Done:  E(RB2PLYPD3) =  -132.523537937     A.U. after   12 cycles
 E2(B2PLYPD3) =    -0.1813053684D+00 E(B2PLYPD3) =    -0.13270484330507D+03

 The electronic state is 1-A.
 Alpha  occ. eigenvalues --  -14.84407 -10.68992 -10.66616  -1.04552  -0.87593
 Alpha  occ. eigenvalues --   -0.60367  -0.52013  -0.51312  -0.45093  -0.39355
 Alpha  occ. eigenvalues --   -0.38964
 Alpha virt. eigenvalues --    0.03325   0.06783   0.06938   0.10181   0.11565
 Alpha virt. eigenvalues --    0.11987   0.15253   0.16254   0.17809   0.20032
 Alpha virt. eigenvalues --    0.20212   0.25298   0.31917   0.32905   0.34396

 Mulliken charges:
               1
     1  C   -0.088723
     2  C    0.010560
     3  N   -0.199871
     4  H    0.093273
     5  H    0.090271
     6  H    0.094490
 Sum of Mulliken charges =   0.00000

 Dipole moment (field-independent basis, Debye):
    X=             -4.1220    Y=             -0.0120    Z=             -0.0162  Tot=              4.1221
 Quadrupole moment (field-independent basis, Debye-Ang):
   XX=            -20.6544   YY=            -17.9323   ZZ=            -18.0615
   XY=              0.0393   XZ=             -0.0510   YZ=             -0.0348

 Normal termination of Gaussian 09 at Wed Aug 26 21:07:15 2020.
