 Gaussian 09, Revision D.01,
 Gaussian 09:  ES64L-G09RevD.01 24-Apr-2013

 --------------------
 #p B2PLYPD3/Def2QZVP
 --------------------

 ------------
 cyanomethane
 ------------
 Symbolic Z-matrix:
 Charge =  0 Multiplicity = 1

                         Standard orientation:
 ---------------------------------------------------------------------
 Center     Atomic      Atomic             Coordinates (Angstroms)
 Number     Number       Type             X           Y           Z
 ---------------------------------------------------------------------
      1          6           0        1.153854    0.018448   -0.008077
      2          6           0       -0.283978    0.047066   -0.037705
      3          7           0       -1.432508   -0.039911    0.032754
      4          1           0        1.826461   -0.492535    0.909996
      5          1           0        1.422187    1.010953   -0.047246
      6          1           0        1.559652   -0.632126   -0.817337
 ---------------------------------------------------------------------

 SCF Done:  E(RB2PLYPD3) =  -132.508931226     A.U. after   13 cycles
 E2(B2PLYPD3) =    -0.1817643258D+00 E(B2PLYPD3) =    -0.13269069555217D+03

 The electronic state is 1-A.
 Alpha  occ. eigenvalues --  -14.84480 -10.67938 -10.66442  -1.04429  -0.89040
 Alpha  occ. eigenvalues --   -0.60262  -0.55907  -0.49493  -0.45096  -0.39348
 Alpha  occ. eigenvalues --   -0.38371
 Alpha virt. eigenvalues --    0.02628   0.05820   0.08517   0.09949   0.11124
 Alpha virt. eigenvalues --    0.12232   0.15370   0.16108   0.17744   0.19839
 Alpha virt. eigenvalues --    0.20679   0.25922   0.30956   0.33263   0.35279

 Mulliken charges:
               1
     1  C   -0.088486
     2  C    0.006385
     3  N   -0.201706
     4  H    0.083530
     5  H    0.105349
     6  H    0.094928
 Sum of Mulliken charges =   0.00000

 Dipole moment (field-independent basis, Debye):
    X=              4.0913    Y=              0.0508    Z=             -0.0985  Tot=              4.0928
 Quadrupole moment (field-independent basis, Debye-Ang):
   XX=            -20.6690   YY=            -17.6369   ZZ=            -18.2568
   XY=             -0.4770   XZ=              0.2705   YZ=              0.1233

 Normal termination of Gaussian 09 at Wed Aug 26 20:49:03 2020.
