 Gaussian 09, Revision D.01,
 Gaussian 09:  ES64L-G09RevD.01 24-Apr-2013

 --------------------
 #p B2PLYPD3/Def2QZVP
 --------------------

 ------------
 cyanomethane
 ------------
 Symbolic Z-matrix:
 Charge =  0 Multiplicity = 1

                         Standard orientation:
 ---------------------------------------------------------------------
 Center     Atomic      Atomic             Coordinates (Angstroms)
 Number     Number       Type             X           Y           Z
 ---------------------------------------------------------------------
      1          6           0       -1.177636   -0.002487   -0.000246
      2          6           0        0.273296    0.005258    0.019787
      3          7           0        1.432789   -0.003181   -0.013273
      4          1           0       -1.498437   -0.295517    0.963240
      5          1           0       -1.570372   -0.702715   -0.747187
      6          1           0       -1.534674    1.003878   -0.240396
 ---------------------------------------------------------------------

 SCF Done:  E(RB2PLYPD3) =  -132.534181182     A.U. after   12 cycles
 E2(B2PLYPD3) =    -0.1808505133D+00 E(B2PLYPD3) =    -0.13271503169575D+03

 The electronic state is 1-A.
 Alpha  occ. eigenvalues --  -14.84278 -10.66882 -10.66318  -1.03884  -0.89577
 Alpha  occ. eigenvalues --   -0.59633  -0.54810  -0.53754  -0.44756  -0.38913
 Alpha  occ. eigenvalues --   -0.38846
 Alpha virt. eigenvalues --    0.03766   0.07617   0.08260   0.10151   0.11316
 Alpha virt. eigenvalues --    0.11478   0.15433   0.15856   0.16531   0.20110
 Alpha virt. eigenvalues --    0.20155   0.25462   0.32784   0.34484   0.34849

 Mulliken charges:
               1
     1  C   -0.085631
     2  C   -0.001301
     3  N   -0.209624
     4  H    0.100657
     5  H    0.097542
     6  H    0.098357
 Sum of Mulliken charges =   0.00000

 Dipole moment (field-independent basis, Debye):
    X=             -4.1292    Y=              0.0016    Z=              0.0248  Tot=              4.1293
 Quadrupole moment (field-independent basis, Debye-Ang):
   XX=            -21.0759   YY=            -17.7217   ZZ=            -17.7327
   XY=              0.0363   XZ=              0.1098   YZ=             -0.0233

 Normal termination of Gaussian 09 at Thu Aug 27 00:14:04 2020.
