 Gaussian 09, Revision D.01,
 Gaussian 09:  ES64L-G09RevD.01 24-Apr-2013

 --------------------
 #p B2PLYPD3/Def2QZVP
 --------------------

 ------------
 cyanomethane
 ------------
 Symbolic Z-matrix:
 Charge =  0 Multiplicity = 1

                         Standard orientation:
 ---------------------------------------------------------------------
 Center     Atomic      Atomic             Coordinates (Angstroms)
 Number     Number       Type             X           Y           Z
 ---------------------------------------------------------------------
      1          6           0        1.172722    0.012032   -0.037191
      2          6           0       -0.273648    0.040357   -0.036391
      3          7           0       -1.427652   -0.026352    0.030237
      4          1           0        1.652547   -0.243548    0.977883
      5          1           0        1.445556    0.899936   -0.197442
      6          1           0        1.501013   -0.786258   -0.550609
 ---------------------------------------------------------------------

 SCF Done:  E(RB2PLYPD3) =  -132.502873378     A.U. after   12 cycles
 E2(B2PLYPD3) =    -0.1806027637D+00 E(B2PLYPD3) =    -0.13268347614182D+03

 The electronic state is 1-A.
 Alpha  occ. eigenvalues --  -14.84307 -10.66256 -10.65219  -1.04090  -0.91173
 Alpha  occ. eigenvalues --   -0.60723  -0.59631  -0.51139  -0.44844  -0.39447
 Alpha  occ. eigenvalues --   -0.38477
 Alpha virt. eigenvalues --    0.03478   0.07361   0.09461   0.10071   0.10684
 Alpha virt. eigenvalues --    0.11979   0.15499   0.16476   0.16849   0.19885
 Alpha virt. eigenvalues --    0.20311   0.25568   0.32110   0.33967   0.37040

 Mulliken charges:
               1
     1  C   -0.072619
     2  C    0.002818
     3  N   -0.208721
     4  H    0.069934
     5  H    0.108968
     6  H    0.099619
 Sum of Mulliken charges =   0.00000

 Dipole moment (field-independent basis, Debye):
    X=              4.1295    Y=              0.0061    Z=             -0.0121  Tot=              4.1295
 Quadrupole moment (field-independent basis, Debye-Ang):
   XX=            -20.7572   YY=            -17.3713   ZZ=            -18.0876
   XY=             -0.2777   XZ=              0.3806   YZ=              0.0664

 Normal termination of Gaussian 09 at Wed Aug 26 18:40:25 2020.
