 Gaussian 09, Revision D.01,
 Gaussian 09:  ES64L-G09RevD.01 24-Apr-2013

 --------------------
 #p B2PLYPD3/Def2QZVP
 --------------------

 ------------
 cyanomethane
 ------------
 Symbolic Z-matrix:
 Charge =  0 Multiplicity = 1

                         Standard orientation:
 ---------------------------------------------------------------------
 Center     Atomic      Atomic             Coordinates (Angstroms)
 Number     Number       Type             X           Y           Z
 ---------------------------------------------------------------------
      1          6           0       -1.156163   -0.008892   -0.010798
      2          6           0        0.269293    0.013786    0.041065
      3          7           0        1.435013   -0.008940   -0.019952
      4          1           0       -1.536657    1.019123   -0.202062
      5          1           0       -1.591355   -0.328766    0.931640
      6          1           0       -1.595862   -0.657139   -0.771519
 ---------------------------------------------------------------------

 SCF Done:  E(RB2PLYPD3) =  -132.531822561     A.U. after   12 cycles
 E2(B2PLYPD3) =    -0.1818661108D+00 E(B2PLYPD3) =    -0.13271368867220D+03

 The electronic state is 1-A.
 Alpha  occ. eigenvalues --  -14.84670 -10.67027 -10.66647  -1.03774  -0.89538
 Alpha  occ. eigenvalues --   -0.61055  -0.53561  -0.53407  -0.45020  -0.38691
 Alpha  occ. eigenvalues --   -0.38613
 Alpha virt. eigenvalues --    0.03670   0.07008   0.07473   0.10018   0.11482
 Alpha virt. eigenvalues --    0.11602   0.15639   0.16101   0.17077   0.20128
 Alpha virt. eigenvalues --    0.20216   0.26037   0.32899   0.34225   0.34770

 Mulliken charges:
               1
     1  C   -0.071197
     2  C    0.005566
     3  N   -0.211316
     4  H    0.091651
     5  H    0.090891
     6  H    0.094404
 Sum of Mulliken charges =   0.00000

 Dipole moment (field-independent basis, Debye):
    X=             -4.1417    Y=              0.0101    Z=              0.0320  Tot=              4.1418
 Quadrupole moment (field-independent basis, Debye-Ang):
   XX=            -20.7831   YY=            -17.8179   ZZ=            -17.8916
   XY=              0.0972   XZ=              0.0871   YZ=              0.0030

 Normal termination of Gaussian 09 at Wed Aug 26 10:47:37 2020.
