 Gaussian 09, Revision D.01,
 Gaussian 09:  ES64L-G09RevD.01 24-Apr-2013

 --------------------
 #p B2PLYPD3/Def2QZVP
 --------------------

 ------------
 cyanomethane
 ------------
 Symbolic Z-matrix:
 Charge =  0 Multiplicity = 1

                         Standard orientation:
 ---------------------------------------------------------------------
 Center     Atomic      Atomic             Coordinates (Angstroms)
 Number     Number       Type             X           Y           Z
 ---------------------------------------------------------------------
      1          6           0       -1.187293    0.004485    0.004283
      2          6           0        0.285610   -0.008966   -0.013637
      3          7           0        1.434429    0.000836    0.006203
      4          1           0       -1.502463    0.963162   -0.344450
      5          1           0       -1.544108   -0.164426    0.992438
      6          1           0       -1.584338   -0.777701   -0.635281
 ---------------------------------------------------------------------

 SCF Done:  E(RB2PLYPD3) =  -132.535554908     A.U. after   11 cycles
 E2(B2PLYPD3) =    -0.1797641579D+00 E(B2PLYPD3) =    -0.13271531906629D+03

 The electronic state is 1-A.
 Alpha  occ. eigenvalues --  -14.84011 -10.66756 -10.66102  -1.04280  -0.89350
 Alpha  occ. eigenvalues --   -0.59455  -0.54636  -0.53948  -0.44709  -0.39301
 Alpha  occ. eigenvalues --   -0.39263
 Alpha virt. eigenvalues --    0.03840   0.08201   0.08450   0.10237   0.11368
 Alpha virt. eigenvalues --    0.11435   0.15311   0.16212   0.16445   0.20049
 Alpha virt. eigenvalues --    0.20078   0.25060   0.32719   0.34861   0.35029

 Mulliken charges:
               1
     1  C   -0.081923
     2  C   -0.004373
     3  N   -0.203755
     4  H    0.098779
     5  H    0.096780
     6  H    0.094492
 Sum of Mulliken charges =   0.00000

 Dipole moment (field-independent basis, Debye):
    X=             -4.1302    Y=             -0.0003    Z=             -0.0019  Tot=              4.1302
 Quadrupole moment (field-independent basis, Debye-Ang):
   XX=            -20.9892   YY=            -17.6758   ZZ=            -17.7500
   XY=              0.0555   XZ=             -0.0430   YZ=             -0.0223

 Normal termination of Gaussian 09 at Wed Aug 26 09:14:37 2020.
