 Gaussian 09, Revision D.01,
 Gaussian 09:  ES64L-G09RevD.01 24-Apr-2013

 --------------------
 #p B2PLYPD3/Def2QZVP
 --------------------

 ------------
 cyanomethane
 ------------
 Symbolic Z-matrix:
 Charge =  0 Multiplicity = 1

                         Standard orientation:
 ---------------------------------------------------------------------
 Center     Atomic      Atomic             Coordinates (Angstroms)
 Number     Number       Type             X           Y           Z
 ---------------------------------------------------------------------
      1          6           0       -1.175101   -0.002651   -0.007233
      2          6           0        0.268036    0.021559   -0.016382
      3          7           0        1.433405   -0.017485    0.006789
      4          1           0       -1.468968    0.943684   -0.431514
      5          1           0       -1.501973   -0.054211    1.056404
      6          1           0       -1.620506   -0.880528   -0.530723
 ---------------------------------------------------------------------

 SCF Done:  E(RB2PLYPD3) =  -132.531332360     A.U. after   12 cycles
 E2(B2PLYPD3) =    -0.1817211851D+00 E(B2PLYPD3) =    -0.13271305354532D+03

 The electronic state is 1-A.
 Alpha  occ. eigenvalues --  -14.84421 -10.67436 -10.66472  -1.03646  -0.89368
 Alpha  occ. eigenvalues --   -0.59460  -0.54732  -0.53172  -0.44763  -0.38711
 Alpha  occ. eigenvalues --   -0.38517
 Alpha virt. eigenvalues --    0.03641   0.07138   0.08012   0.10090   0.11259
 Alpha virt. eigenvalues --    0.11594   0.15316   0.15575   0.16711   0.20109
 Alpha virt. eigenvalues --    0.20237   0.25591   0.32623   0.33836   0.34735

 Mulliken charges:
               1
     1  C   -0.094591
     2  C    0.001286
     3  N   -0.212666
     4  H    0.104866
     5  H    0.099334
     6  H    0.101772
 Sum of Mulliken charges =   0.00000

 Dipole moment (field-independent basis, Debye):
    X=             -4.1265    Y=              0.0288    Z=              0.0120  Tot=              4.1266
 Quadrupole moment (field-independent basis, Debye-Ang):
   XX=            -21.1884   YY=            -17.6559   ZZ=            -17.8462
   XY=              0.1982   XZ=             -0.0467   YZ=             -0.0221

 Normal termination of Gaussian 09 at Wed Aug 26 14:32:04 2020.
