 Gaussian 09, Revision D.01,
 Gaussian 09:  ES64L-G09RevD.01 24-Apr-2013

 --------------------
 #p B2PLYPD3/Def2QZVP
 --------------------

 ------------
 cyanomethane
 ------------
 Symbolic Z-matrix:
 Charge =  0 Multiplicity = 1

                         Standard orientation:
 ---------------------------------------------------------------------
 Center     Atomic      Atomic             Coordinates (Angstroms)
 Number     Number       Type             X           Y           Z
 ---------------------------------------------------------------------
      1          6           0       -1.168823    0.008038    0.011102
      2          6           0        0.280121    0.010474    0.005423
      3          7           0        1.429921   -0.009944   -0.006732
      4          1           0       -1.619103   -0.803174   -0.662560
      5          1           0       -1.526794    0.947857   -0.370233
      6          1           0       -1.531342   -0.186147    0.980768
 ---------------------------------------------------------------------

 SCF Done:  E(RB2PLYPD3) =  -132.532698491     A.U. after   12 cycles
 E2(B2PLYPD3) =    -0.1801627757D+00 E(B2PLYPD3) =    -0.13271286126628D+03

 The electronic state is 1-A.
 Alpha  occ. eigenvalues --  -14.84104 -10.67052 -10.66128  -1.04348  -0.89333
 Alpha  occ. eigenvalues --   -0.60059  -0.55044  -0.52497  -0.44830  -0.39300
 Alpha  occ. eigenvalues --   -0.38983
 Alpha virt. eigenvalues --    0.03686   0.07407   0.08353   0.10172   0.11372
 Alpha virt. eigenvalues --    0.11767   0.15495   0.16321   0.16669   0.20013
 Alpha virt. eigenvalues --    0.20132   0.25507   0.32621   0.34043   0.35293

 Mulliken charges:
               1
     1  C   -0.080399
     2  C   -0.001054
     3  N   -0.203513
     4  H    0.088281
     5  H    0.097776
     6  H    0.098910
 Sum of Mulliken charges =   0.00000

 Dipole moment (field-independent basis, Debye):
    X=             -4.1175    Y=              0.0193    Z=              0.0182  Tot=              4.1176
 Quadrupole moment (field-independent basis, Debye-Ang):
   XX=            -20.9178   YY=            -17.7627   ZZ=            -17.7576
   XY=              0.1134   XZ=              0.0702   YZ=             -0.0853

 Normal termination of Gaussian 09 at Wed Aug 26 11:07:03 2020.
