 Gaussian 09, Revision D.01,
 Gaussian 09:  ES64L-G09RevD.01 24-Apr-2013

 --------------------
 #p B2PLYPD3/Def2QZVP
 --------------------

 ------------
 cyanomethane
 ------------
 Symbolic Z-matrix:
 Charge =  0 Multiplicity = 1

                         Standard orientation:
 ---------------------------------------------------------------------
 Center     Atomic      Atomic             Coordinates (Angstroms)
 Number     Number       Type             X           Y           Z
 ---------------------------------------------------------------------
      1          6           0       -1.173989    0.002542   -0.000629
      2          6           0        0.286941    0.020246    0.005148
      3          7           0        1.434840   -0.009176   -0.002210
      4          1           0       -1.572063   -0.343281    0.977535
      5          1           0       -1.552637   -0.723828   -0.767358
      6          1           0       -1.596892    0.994614   -0.221818
 ---------------------------------------------------------------------

 SCF Done:  E(RB2PLYPD3) =  -132.534476484     A.U. after   11 cycles
 E2(B2PLYPD3) =    -0.1802597079D+00 E(B2PLYPD3) =    -0.13271473619229D+03

 The electronic state is 1-A.
 Alpha  occ. eigenvalues --  -14.84110 -10.67781 -10.66193  -1.04411  -0.88574
 Alpha  occ. eigenvalues --   -0.59718  -0.53522  -0.52830  -0.44846  -0.39288
 Alpha  occ. eigenvalues --   -0.39147
 Alpha virt. eigenvalues --    0.03631   0.07589   0.07803   0.10184   0.11487
 Alpha virt. eigenvalues --    0.11692   0.15382   0.16454   0.16607   0.20009
 Alpha virt. eigenvalues --    0.20076   0.25311   0.32590   0.34058   0.34622

 Mulliken charges:
               1
     1  C   -0.086871
     2  C   -0.000348
     3  N   -0.201451
     4  H    0.095630
     5  H    0.095536
     6  H    0.097504
 Sum of Mulliken charges =   0.00000

 Dipole moment (field-independent basis, Debye):
    X=             -4.1153    Y=              0.0041    Z=              0.0055  Tot=              4.1154
 Quadrupole moment (field-independent basis, Debye-Ang):
   XX=            -20.9424   YY=            -17.7543   ZZ=            -17.8387
   XY=              0.0472   XZ=              0.0004   YZ=             -0.0165

 Normal termination of Gaussian 09 at Wed Aug 26 23:43:13 2020.
