 Gaussian 09, Revision D.01,
 Gaussian 09:  ES64L-G09RevD.01 24-Apr-2013

 --------------------
 #p B2PLYPD3/Def2QZVP
 --------------------

 ------------
 cyanomethane
 ------------
 Symbolic Z-matrix:
 Charge =  0 Multiplicity = 1

                         Standard orientation:
 ---------------------------------------------------------------------
 Center     Atomic      Atomic             Coordinates (Angstroms)
 Number     Number       Type             X           Y           Z
 ---------------------------------------------------------------------
      1          6           0       -1.162354    0.014719   -0.002313
      2          6           0        0.264402    0.064515   -0.023803
      3          7           0        1.422943   -0.039174    0.006918
      4          1           0       -1.483435    1.067217   -0.075526
      5          1           0       -1.479325   -0.524777    1.044531
      6          1           0       -1.610126   -0.743628   -0.860731
 ---------------------------------------------------------------------

 SCF Done:  E(RB2PLYPD3) =  -132.510206146     A.U. after   12 cycles
 E2(B2PLYPD3) =    -0.1829065494D+00 E(B2PLYPD3) =    -0.13269311269583D+03

 The electronic state is 1-A.
 Alpha  occ. eigenvalues --  -14.84347 -10.69550 -10.66300  -1.03807  -0.88273
 Alpha  occ. eigenvalues --   -0.58116  -0.54417  -0.50746  -0.44767  -0.38630
 Alpha  occ. eigenvalues --   -0.38008
 Alpha virt. eigenvalues --    0.02803   0.05490   0.07634   0.10005   0.11199
 Alpha virt. eigenvalues --    0.12174   0.15105   0.15584   0.16348   0.19941
 Alpha virt. eigenvalues --    0.20284   0.25747   0.31332   0.31779   0.33909

 Mulliken charges:
               1
     1  C   -0.127496
     2  C    0.008732
     3  N   -0.209180
     4  H    0.117938
     5  H    0.105509
     6  H    0.104498
 Sum of Mulliken charges =   0.00000

 Dipole moment (field-independent basis, Debye):
    X=             -4.0356    Y=              0.0343    Z=              0.0090  Tot=              4.0357
 Quadrupole moment (field-independent basis, Debye-Ang):
   XX=            -21.6137   YY=            -17.5174   ZZ=            -17.9670
   XY=              0.3295   XZ=              0.0184   YZ=             -0.0113

 Normal termination of Gaussian 09 at Wed Aug 26 23:49:56 2020.
