 Gaussian 09, Revision D.01,
 Gaussian 09:  ES64L-G09RevD.01 24-Apr-2013

 --------------------
 #p B2PLYPD3/Def2QZVP
 --------------------

 ------------
 cyanomethane
 ------------
 Symbolic Z-matrix:
 Charge =  0 Multiplicity = 1

                         Standard orientation:
 ---------------------------------------------------------------------
 Center     Atomic      Atomic             Coordinates (Angstroms)
 Number     Number       Type             X           Y           Z
 ---------------------------------------------------------------------
      1          6           0       -1.158253   -0.027031    0.001780
      2          6           0        0.295453    0.068075   -0.010305
      3          7           0        1.412253   -0.030559    0.009666
      4          1           0       -1.626104   -0.054480    1.037560
      5          1           0       -1.509474   -0.941879   -0.566257
      6          1           0       -1.573389    0.964006   -0.487812
 ---------------------------------------------------------------------

 SCF Done:  E(RB2PLYPD3) =  -132.525303827     A.U. after   12 cycles
 E2(B2PLYPD3) =    -0.1787439300D+00 E(B2PLYPD3) =    -0.13270404775703D+03

 The electronic state is 1-A.
 Alpha  occ. eigenvalues --  -14.83350 -10.68731 -10.65334  -1.05558  -0.87724
 Alpha  occ. eigenvalues --   -0.59075  -0.53056  -0.51634  -0.44774  -0.39859
 Alpha  occ. eigenvalues --   -0.39523
 Alpha virt. eigenvalues --    0.03391   0.07440   0.07616   0.10106   0.11966
 Alpha virt. eigenvalues --    0.12084   0.15459   0.15889   0.17412   0.19791
 Alpha virt. eigenvalues --    0.20007   0.25793   0.32041   0.33568   0.34261

 Mulliken charges:
               1
     1  C   -0.108545
     2  C   -0.001196
     3  N   -0.184467
     4  H    0.097461
     5  H    0.105144
     6  H    0.091603
 Sum of Mulliken charges =   0.00000

 Dipole moment (field-independent basis, Debye):
    X=             -4.0136    Y=              0.0422    Z=              0.0053  Tot=              4.0138
 Quadrupole moment (field-independent basis, Debye-Ang):
   XX=            -21.0966   YY=            -17.5986   ZZ=            -17.8495
   XY=              0.1617   XZ=             -0.1866   YZ=              0.0696

 Normal termination of Gaussian 09 at Wed Aug 26 21:01:43 2020.
