 Gaussian 09, Revision D.01,
 Gaussian 09:  ES64L-G09RevD.01 24-Apr-2013

 --------------------
 #p B2PLYPD3/Def2QZVP
 --------------------

 ------------
 cyanomethane
 ------------
 Symbolic Z-matrix:
 Charge =  0 Multiplicity = 1

                         Standard orientation:
 ---------------------------------------------------------------------
 Center     Atomic      Atomic             Coordinates (Angstroms)
 Number     Number       Type             X           Y           Z
 ---------------------------------------------------------------------
      1          6           0        1.171617   -0.018763   -0.014804
      2          6           0       -0.261353    0.037159    0.009531
      3          7           0       -1.433498   -0.014264   -0.002526
      4          1           0        1.535675   -0.036769    0.989634
      5          1           0        1.555305    0.880542   -0.444404
      6          1           0        1.481919   -0.854302   -0.495914
 ---------------------------------------------------------------------

 SCF Done:  E(RB2PLYPD3) =  -132.528551731     A.U. after   11 cycles
 E2(B2PLYPD3) =    -0.1816700713D+00 E(B2PLYPD3) =    -0.13271022180264D+03

 The electronic state is 1-A.
 Alpha  occ. eigenvalues --  -14.84621 -10.66618 -10.65732  -1.03431  -0.90659
 Alpha  occ. eigenvalues --   -0.60557  -0.56218  -0.54068  -0.44826  -0.38695
 Alpha  occ. eigenvalues --   -0.38422
 Alpha virt. eigenvalues --    0.03920   0.07825   0.07965   0.10098   0.11169
 Alpha virt. eigenvalues --    0.11418   0.15575   0.15868   0.16532   0.20146
 Alpha virt. eigenvalues --    0.20261   0.25852   0.32924   0.34503   0.35757

 Mulliken charges:
               1
     1  C   -0.068888
     2  C    0.001772
     3  N   -0.217106
     4  H    0.089955
     5  H    0.093356
     6  H    0.100911
 Sum of Mulliken charges =   0.00000

 Dipole moment (field-independent basis, Debye):
    X=              4.1575    Y=              0.0197    Z=              0.0246  Tot=              4.1576
 Quadrupole moment (field-independent basis, Debye-Ang):
   XX=            -20.9484   YY=            -17.6289   ZZ=            -17.8306
   XY=             -0.0090   XZ=              0.0590   YZ=              0.0484

 Normal termination of Gaussian 09 at Wed Aug 26 12:43:32 2020.
