 Gaussian 09, Revision D.01,
 Gaussian 09:  ES64L-G09RevD.01 24-Apr-2013

 --------------------
 #p B2PLYPD3/Def2QZVP
 --------------------

 ------------
 cyanomethane
 ------------
 Symbolic Z-matrix:
 Charge =  0 Multiplicity = 1

                         Standard orientation:
 ---------------------------------------------------------------------
 Center     Atomic      Atomic             Coordinates (Angstroms)
 Number     Number       Type             X           Y           Z
 ---------------------------------------------------------------------
      1          6           0       -1.175150    0.017432   -0.009093
      2          6           0        0.272955    0.022603    0.036563
      3          7           0        1.458556   -0.026949   -0.011037
      4          1           0       -1.400072    0.983814   -0.209958
      5          1           0       -1.759032   -0.353237    0.863343
      6          1           0       -1.637621   -0.682145   -0.740948
 ---------------------------------------------------------------------

 SCF Done:  E(RB2PLYPD3) =  -132.517170272     A.U. after   12 cycles
 E2(B2PLYPD3) =    -0.1838187181D+00 E(B2PLYPD3) =    -0.13270098898955D+03

 The electronic state is 1-A.
 Alpha  occ. eigenvalues --  -14.85344 -10.67502 -10.66810  -1.03015  -0.89796
 Alpha  occ. eigenvalues --   -0.61587  -0.55940  -0.51050  -0.45134  -0.38555
 Alpha  occ. eigenvalues --   -0.38093
 Alpha virt. eigenvalues --    0.03550   0.06100   0.07853   0.09972   0.10912
 Alpha virt. eigenvalues --    0.11742   0.15105   0.16477   0.17199   0.20025
 Alpha virt. eigenvalues --    0.20533   0.25611   0.32111   0.34038   0.35495

 Mulliken charges:
               1
     1  C   -0.063799
     2  C    0.010730
     3  N   -0.219384
     4  H    0.102016
     5  H    0.083878
     6  H    0.086559
 Sum of Mulliken charges =   0.00000

 Dipole moment (field-independent basis, Debye):
    X=             -4.2100    Y=              0.0077    Z=              0.0061  Tot=              4.2100
 Quadrupole moment (field-independent basis, Debye-Ang):
   XX=            -20.5227   YY=            -17.7228   ZZ=            -18.3029
   XY=              0.4488   XZ=             -0.0419   YZ=             -0.0569

 Normal termination of Gaussian 09 at Wed Aug 26 16:28:15 2020.
