 Gaussian 09, Revision D.01,
 Gaussian 09:  ES64L-G09RevD.01 24-Apr-2013

 --------------------
 #p B2PLYPD3/Def2QZVP
 --------------------

 ------------
 cyanomethane
 ------------
 Symbolic Z-matrix:
 Charge =  0 Multiplicity = 1

                         Standard orientation:
 ---------------------------------------------------------------------
 Center     Atomic      Atomic             Coordinates (Angstroms)
 Number     Number       Type             X           Y           Z
 ---------------------------------------------------------------------
      1          6           0       -1.176534    0.001384    0.012575
      2          6           0        0.271062    0.016620   -0.014581
      3          7           0        1.431597   -0.009785    0.006629
      4          1           0       -1.515660    0.904284   -0.458767
      5          1           0       -1.534606   -0.082642    1.004643
      6          1           0       -1.538080   -0.861173   -0.580238
 ---------------------------------------------------------------------

 SCF Done:  E(RB2PLYPD3) =  -132.533986549     A.U. after   11 cycles
 E2(B2PLYPD3) =    -0.1808956220D+00 E(B2PLYPD3) =    -0.13271488217075D+03

 The electronic state is 1-A.
 Alpha  occ. eigenvalues --  -14.84284 -10.66767 -10.66314  -1.03842  -0.89708
 Alpha  occ. eigenvalues --   -0.59720  -0.55032  -0.53770  -0.44748  -0.38927
 Alpha  occ. eigenvalues --   -0.38744
 Alpha virt. eigenvalues --    0.03793   0.07748   0.08141   0.10135   0.11295
 Alpha virt. eigenvalues --    0.11501   0.15454   0.15863   0.16463   0.20108
 Alpha virt. eigenvalues --    0.20171   0.25522   0.32800   0.34238   0.35154

 Mulliken charges:
               1
     1  C   -0.084914
     2  C   -0.001099
     3  N   -0.210491
     4  H    0.099129
     5  H    0.101513
     6  H    0.095861
 Sum of Mulliken charges =   0.00000

 Dipole moment (field-independent basis, Debye):
    X=             -4.1291    Y=              0.0136    Z=             -0.0124  Tot=              4.1291
 Quadrupole moment (field-independent basis, Debye-Ang):
   XX=            -21.0936   YY=            -17.7410   ZZ=            -17.6934
   XY=              0.0713   XZ=             -0.0304   YZ=             -0.0325

 Normal termination of Gaussian 09 at Wed Aug 26 23:56:26 2020.
