 Gaussian 09, Revision D.01,
 Gaussian 09:  ES64L-G09RevD.01 24-Apr-2013

 --------------------
 #p B2PLYPD3/Def2QZVP
 --------------------

 ------------
 cyanomethane
 ------------
 Symbolic Z-matrix:
 Charge =  0 Multiplicity = 1

                         Standard orientation:
 ---------------------------------------------------------------------
 Center     Atomic      Atomic             Coordinates (Angstroms)
 Number     Number       Type             X           Y           Z
 ---------------------------------------------------------------------
      1          6           0       -1.159899   -0.001601    0.003214
      2          6           0        0.269690    0.019751    0.009982
      3          7           0        1.430166   -0.016363   -0.004162
      4          1           0       -1.471378    1.028562   -0.109356
      5          1           0       -1.610072   -0.427537    0.870781
      6          1           0       -1.588460   -0.595387   -0.811475
 ---------------------------------------------------------------------

 SCF Done:  E(RB2PLYPD3) =  -132.532338468     A.U. after   12 cycles
 E2(B2PLYPD3) =    -0.1810588261D+00 E(B2PLYPD3) =    -0.13271339729392D+03

 The electronic state is 1-A.
 Alpha  occ. eigenvalues --  -14.84398 -10.66584 -10.66390  -1.03966  -0.89889
 Alpha  occ. eigenvalues --   -0.61020  -0.54601  -0.53218  -0.44907  -0.38854
 Alpha  occ. eigenvalues --   -0.38748
 Alpha virt. eigenvalues --    0.03786   0.07356   0.07944   0.10075   0.11412
 Alpha virt. eigenvalues --    0.11690   0.15498   0.16213   0.16948   0.20065
 Alpha virt. eigenvalues --    0.20245   0.25883   0.33039   0.34492   0.34918

 Mulliken charges:
               1
     1  C   -0.071522
     2  C    0.003265
     3  N   -0.209921
     4  H    0.096031
     5  H    0.091977
     6  H    0.090170
 Sum of Mulliken charges =   0.00000

 Dipole moment (field-independent basis, Debye):
    X=             -4.1412    Y=              0.0099    Z=              0.0072  Tot=              4.1413
 Quadrupole moment (field-independent basis, Debye-Ang):
   XX=            -20.8260   YY=            -17.6547   ZZ=            -17.9273
   XY=              0.2337   XZ=             -0.0021   YZ=             -0.0278

 Normal termination of Gaussian 09 at Wed Aug 26 11:00:12 2020.
