 Gaussian 09, Revision D.01,
 Gaussian 09:  ES64L-G09RevD.01 24-Apr-2013

 --------------------
 #p B2PLYPD3/Def2QZVP
 --------------------

 ------------
 cyanomethane
 ------------
 Symbolic Z-matrix:
 Charge =  0 Multiplicity = 1

                         Standard orientation:
 ---------------------------------------------------------------------
 Center     Atomic      Atomic             Coordinates (Angstroms)
 Number     Number       Type             X           Y           Z
 ---------------------------------------------------------------------
      1          6           0        1.167569   -0.036272    0.010164
      2          6           0       -0.260419    0.049268   -0.012183
      3          7           0       -1.430761   -0.019383    0.009112
      4          1           0        1.573138   -0.058810    1.015840
      5          1           0        1.528192    1.017119   -0.466497
      6          1           0        1.471097   -0.900608   -0.601009
 ---------------------------------------------------------------------

 SCF Done:  E(RB2PLYPD3) =  -132.522446285     A.U. after   12 cycles
 E2(B2PLYPD3) =    -0.1827949815D+00 E(B2PLYPD3) =    -0.13270524126668D+03

 The electronic state is 1-A.
 Alpha  occ. eigenvalues --  -14.84579 -10.68211 -10.66596  -1.03444  -0.89074
 Alpha  occ. eigenvalues --   -0.59547  -0.54872  -0.51926  -0.44797  -0.38570
 Alpha  occ. eigenvalues --   -0.38000
 Alpha virt. eigenvalues --    0.03423   0.06613   0.07288   0.09941   0.11289
 Alpha virt. eigenvalues --    0.11704   0.15254   0.15370   0.16704   0.20130
 Alpha virt. eigenvalues --    0.20235   0.25944   0.30965   0.33578   0.34822

 Mulliken charges:
               1
     1  C   -0.108980
     2  C    0.008552
     3  N   -0.215586
     4  H    0.107590
     5  H    0.094583
     6  H    0.113841
 Sum of Mulliken charges =   0.00000

 Dipole moment (field-independent basis, Debye):
    X=              4.0930    Y=              0.0112    Z=              0.0172  Tot=              4.0931
 Quadrupole moment (field-independent basis, Debye-Ang):
   XX=            -21.4005   YY=            -17.6621   ZZ=            -17.8633
   XY=             -0.0733   XZ=              0.1878   YZ=              0.1157

 Normal termination of Gaussian 09 at Wed Aug 26 22:34:13 2020.
