 Gaussian 09, Revision D.01,
 Gaussian 09:  ES64L-G09RevD.01 24-Apr-2013

 --------------------
 #p B2PLYPD3/Def2QZVP
 --------------------

 ------------
 cyanomethane
 ------------
 Symbolic Z-matrix:
 Charge =  0 Multiplicity = 1

                         Standard orientation:
 ---------------------------------------------------------------------
 Center     Atomic      Atomic             Coordinates (Angstroms)
 Number     Number       Type             X           Y           Z
 ---------------------------------------------------------------------
      1          6           0        1.174373   -0.013590   -0.036512
      2          6           0       -0.298134    0.007847    0.072958
      3          7           0       -1.440470   -0.003377   -0.031921
      4          1           0        1.594163    1.017485   -0.063376
      5          1           0        1.580623   -0.535475   -0.772696
      6          1           0        1.651070   -0.423912    0.840840
 ---------------------------------------------------------------------

 SCF Done:  E(RB2PLYPD3) =  -132.523867202     A.U. after   12 cycles
 E2(B2PLYPD3) =    -0.1799070842D+00 E(B2PLYPD3) =    -0.13270377428612D+03

 The electronic state is 1-A.
 Alpha  occ. eigenvalues --  -14.84341 -10.66457 -10.66296  -1.04619  -0.89439
 Alpha  occ. eigenvalues --   -0.61568  -0.54432  -0.52293  -0.45078  -0.39711
 Alpha  occ. eigenvalues --   -0.39350
 Alpha virt. eigenvalues --    0.03749   0.07877   0.07989   0.10112   0.11456
 Alpha virt. eigenvalues --    0.11601   0.15490   0.16316   0.17854   0.19997
 Alpha virt. eigenvalues --    0.20150   0.25499   0.32710   0.34212   0.35750

 Mulliken charges:
               1
     1  C   -0.055143
     2  C    0.009931
     3  N   -0.200887
     4  H    0.080975
     5  H    0.091022
     6  H    0.074101
 Sum of Mulliken charges =   0.00000

 Dipole moment (field-independent basis, Debye):
    X=              4.1226    Y=             -0.0170    Z=              0.0654  Tot=              4.1231
 Quadrupole moment (field-independent basis, Debye-Ang):
   XX=            -20.4385   YY=            -17.7815   ZZ=            -17.9606
   XY=             -0.0725   XZ=             -0.0899   YZ=              0.0892

 Normal termination of Gaussian 09 at Wed Aug 26 20:20:55 2020.
