 Gaussian 09, Revision D.01,
 Gaussian 09:  ES64L-G09RevD.01 24-Apr-2013

 --------------------
 #p B2PLYPD3/Def2QZVP
 --------------------

 ------------
 cyanomethane
 ------------
 Symbolic Z-matrix:
 Charge =  0 Multiplicity = 1

                         Standard orientation:
 ---------------------------------------------------------------------
 Center     Atomic      Atomic             Coordinates (Angstroms)
 Number     Number       Type             X           Y           Z
 ---------------------------------------------------------------------
      1          6           0        1.196064    0.009502    0.002174
      2          6           0       -0.286380   -0.041737    0.002816
      3          7           0       -1.439528    0.020003   -0.005252
      4          1           0        1.537510    1.044969   -0.227100
      5          1           0        1.583423   -0.698829   -0.756293
      6          1           0        1.497667   -0.292755    0.990214
 ---------------------------------------------------------------------

 SCF Done:  E(RB2PLYPD3) =  -132.533494747     A.U. after   12 cycles
 E2(B2PLYPD3) =    -0.1806648767D+00 E(B2PLYPD3) =    -0.13271415962356D+03

 The electronic state is 1-A.
 Alpha  occ. eigenvalues --  -14.84161 -10.67731 -10.66282  -1.04005  -0.88627
 Alpha  occ. eigenvalues --   -0.58622  -0.54216  -0.53456  -0.44672  -0.39103
 Alpha  occ. eigenvalues --   -0.39075
 Alpha virt. eigenvalues --    0.03612   0.07708   0.08342   0.10195   0.11268
 Alpha virt. eigenvalues --    0.11369   0.15121   0.15734   0.16481   0.20071
 Alpha virt. eigenvalues --    0.20075   0.24969   0.32360   0.34290   0.34542

 Mulliken charges:
               1
     1  C   -0.098088
     2  C   -0.002997
     3  N   -0.206037
     4  H    0.103315
     5  H    0.100005
     6  H    0.103802
 Sum of Mulliken charges =   0.00000

 Dipole moment (field-independent basis, Debye):
    X=              4.1203    Y=             -0.0312    Z=              0.0166  Tot=              4.1204
 Quadrupole moment (field-independent basis, Debye-Ang):
   XX=            -21.1974   YY=            -17.7090   ZZ=            -17.7568
   XY=              0.0835   XZ=             -0.0718   YZ=             -0.0163

 Normal termination of Gaussian 09 at Wed Aug 26 14:37:09 2020.
