 Gaussian 09, Revision D.01,
 Gaussian 09:  ES64L-G09RevD.01 24-Apr-2013

 --------------------
 #p B2PLYPD3/Def2QZVP
 --------------------

 ------------
 cyanomethane
 ------------
 Symbolic Z-matrix:
 Charge =  0 Multiplicity = 1

                         Standard orientation:
 ---------------------------------------------------------------------
 Center     Atomic      Atomic             Coordinates (Angstroms)
 Number     Number       Type             X           Y           Z
 ---------------------------------------------------------------------
      1          6           0        1.175895   -0.008112   -0.005033
      2          6           0       -0.271109   -0.025786    0.022019
      3          7           0       -1.445515    0.018821   -0.006790
      4          1           0        1.478925   -0.796596   -0.602182
      5          1           0        1.615343   -0.078092    0.970335
      6          1           0        1.595624    0.946325   -0.422544
 ---------------------------------------------------------------------

 SCF Done:  E(RB2PLYPD3) =  -132.529091128     A.U. after   12 cycles
 E2(B2PLYPD3) =    -0.1822714234D+00 E(B2PLYPD3) =    -0.13271136255149D+03

 The electronic state is 1-A.
 Alpha  occ. eigenvalues --  -14.84859 -10.66929 -10.66671  -1.03371  -0.89773
 Alpha  occ. eigenvalues --   -0.60584  -0.55382  -0.52821  -0.44956  -0.38709
 Alpha  occ. eigenvalues --   -0.38462
 Alpha virt. eigenvalues --    0.03674   0.07046   0.08011   0.10120   0.11069
 Alpha virt. eigenvalues --    0.11484   0.15434   0.16164   0.16687   0.20118
 Alpha virt. eigenvalues --    0.20262   0.25573   0.32595   0.34133   0.35401

 Mulliken charges:
               1
     1  C   -0.070989
     2  C    0.003612
     3  N   -0.215422
     4  H    0.100185
     5  H    0.092469
     6  H    0.090145
 Sum of Mulliken charges =   0.00000

 Dipole moment (field-independent basis, Debye):
    X=              4.1672    Y=             -0.0273    Z=              0.0111  Tot=              4.1673
 Quadrupole moment (field-independent basis, Debye-Ang):
   XX=            -20.8317   YY=            -17.8220   ZZ=            -17.8692
   XY=              0.1786   XZ=              0.0446   YZ=              0.0859

 Normal termination of Gaussian 09 at Wed Aug 26 13:57:49 2020.
