 Gaussian 09, Revision D.01,
 Gaussian 09:  ES64L-G09RevD.01 24-Apr-2013

 --------------------
 #p B2PLYPD3/Def2QZVP
 --------------------

 ------------
 cyanomethane
 ------------
 Symbolic Z-matrix:
 Charge =  0 Multiplicity = 1

                         Standard orientation:
 ---------------------------------------------------------------------
 Center     Atomic      Atomic             Coordinates (Angstroms)
 Number     Number       Type             X           Y           Z
 ---------------------------------------------------------------------
      1          6           0       -1.177645   -0.002995   -0.030013
      2          6           0        0.280463    0.061215    0.007936
      3          7           0        1.453439   -0.037012   -0.004649
      4          1           0       -1.534842    1.073090   -0.002295
      5          1           0       -1.577142   -0.528278    0.974531
      6          1           0       -1.678997   -0.635047   -0.807227
 ---------------------------------------------------------------------

 SCF Done:  E(RB2PLYPD3) =  -132.518122835     A.U. after   13 cycles
 E2(B2PLYPD3) =    -0.1837826612D+00 E(B2PLYPD3) =    -0.13270190549586D+03

 The electronic state is 1-A.
 Alpha  occ. eigenvalues --  -14.85071 -10.69064 -10.67214  -1.03363  -0.87884
 Alpha  occ. eigenvalues --   -0.59989  -0.53524  -0.50669  -0.45070  -0.38670
 Alpha  occ. eigenvalues --   -0.38171
 Alpha virt. eigenvalues --    0.03155   0.05931   0.07068   0.09812   0.11113
 Alpha virt. eigenvalues --    0.11788   0.15120   0.15734   0.17467   0.19997
 Alpha virt. eigenvalues --    0.20425   0.25528   0.31707   0.32357   0.34474

 Mulliken charges:
               1
     1  C   -0.097000
     2  C    0.011688
     3  N   -0.212339
     4  H    0.101897
     5  H    0.089835
     6  H    0.105919
 Sum of Mulliken charges =   0.00000

 Dipole moment (field-independent basis, Debye):
    X=             -4.1271    Y=              0.0178    Z=              0.0171  Tot=              4.1272
 Quadrupole moment (field-independent basis, Debye-Ang):
   XX=            -21.0018   YY=            -17.7418   ZZ=            -18.2064
   XY=              0.3652   XZ=              0.0372   YZ=              0.0886

 Normal termination of Gaussian 09 at Wed Aug 26 20:05:26 2020.
