 Gaussian 09, Revision D.01,
 Gaussian 09:  ES64L-G09RevD.01 24-Apr-2013

 --------------------
 #p B2PLYPD3/Def2QZVP
 --------------------

 ------------
 cyanomethane
 ------------
 Symbolic Z-matrix:
 Charge =  0 Multiplicity = 1

                         Standard orientation:
 ---------------------------------------------------------------------
 Center     Atomic      Atomic             Coordinates (Angstroms)
 Number     Number       Type             X           Y           Z
 ---------------------------------------------------------------------
      1          6           0        1.178948   -0.002928   -0.006603
      2          6           0       -0.277384    0.018505    0.001962
      3          7           0       -1.438969   -0.009802    0.000812
      4          1           0        1.548499    1.007705   -0.012958
      5          1           0        1.543785   -0.534231   -0.843164
      6          1           0        1.571118   -0.498319    0.878281
 ---------------------------------------------------------------------

 SCF Done:  E(RB2PLYPD3) =  -132.534378836     A.U. after   11 cycles
 E2(B2PLYPD3) =    -0.1809167647D+00 E(B2PLYPD3) =    -0.13271529560090D+03

 The electronic state is 1-A.
 Alpha  occ. eigenvalues --  -14.84429 -10.66638 -10.66493  -1.03844  -0.89610
 Alpha  occ. eigenvalues --   -0.60182  -0.54685  -0.53716  -0.44846  -0.38992
 Alpha  occ. eigenvalues --   -0.38881
 Alpha virt. eigenvalues --    0.03821   0.07780   0.08063   0.10162   0.11262
 Alpha virt. eigenvalues --    0.11446   0.15447   0.16266   0.16518   0.20087
 Alpha virt. eigenvalues --    0.20161   0.25375   0.32754   0.34642   0.35153

 Mulliken charges:
               1
     1  C   -0.073767
     2  C    0.000017
     3  N   -0.209825
     4  H    0.095182
     5  H    0.096300
     6  H    0.092094
 Sum of Mulliken charges =   0.00000

 Dipole moment (field-independent basis, Debye):
    X=              4.1486    Y=              0.0044    Z=              0.0001  Tot=              4.1486
 Quadrupole moment (field-independent basis, Debye-Ang):
   XX=            -20.8968   YY=            -17.7234   ZZ=            -17.8281
   XY=             -0.0826   XZ=              0.0302   YZ=              0.0293

 Normal termination of Gaussian 09 at Wed Aug 26 18:33:57 2020.
