 Gaussian 09, Revision D.01,
 Gaussian 09:  ES64L-G09RevD.01 24-Apr-2013

 --------------------
 #p B2PLYPD3/Def2QZVP
 --------------------

 ------------
 cyanomethane
 ------------
 Symbolic Z-matrix:
 Charge =  0 Multiplicity = 1

                         Standard orientation:
 ---------------------------------------------------------------------
 Center     Atomic      Atomic             Coordinates (Angstroms)
 Number     Number       Type             X           Y           Z
 ---------------------------------------------------------------------
      1          6           0       -1.153433    0.029937   -0.023576
      2          6           0        0.255206    0.003508    0.058621
      3          7           0        1.428773   -0.005451   -0.028252
      4          1           0       -1.531595   -0.268410    1.012445
      5          1           0       -1.544783   -0.861516   -0.691784
      6          1           0       -1.535668    0.967408   -0.333168
 ---------------------------------------------------------------------

 SCF Done:  E(RB2PLYPD3) =  -132.521835500     A.U. after   12 cycles
 E2(B2PLYPD3) =    -0.1831793976D+00 E(B2PLYPD3) =    -0.13270501489793D+03

 The electronic state is 1-A.
 Alpha  occ. eigenvalues --  -14.84743 -10.67838 -10.66670  -1.03375  -0.89483
 Alpha  occ. eigenvalues --   -0.60171  -0.55082  -0.51859  -0.44911  -0.38470
 Alpha  occ. eigenvalues --   -0.37809
 Alpha virt. eigenvalues --    0.03337   0.06410   0.07227   0.09899   0.11249
 Alpha virt. eigenvalues --    0.11827   0.15244   0.15607   0.17077   0.20132
 Alpha virt. eigenvalues --    0.20290   0.26269   0.32362   0.32537   0.35118

 Mulliken charges:
               1
     1  C   -0.097113
     2  C    0.008772
     3  N   -0.216659
     4  H    0.094699
     5  H    0.098065
     6  H    0.112235
 Sum of Mulliken charges =   0.00000

 Dipole moment (field-independent basis, Debye):
    X=             -4.1133    Y=             -0.0107    Z=              0.0563  Tot=              4.1137
 Quadrupole moment (field-independent basis, Debye-Ang):
   XX=            -21.2076   YY=            -17.6225   ZZ=            -17.9800
   XY=              0.0898   XZ=              0.1015   YZ=             -0.0906

 Normal termination of Gaussian 09 at Wed Aug 26 20:31:18 2020.
