 Gaussian 09, Revision D.01,
 Gaussian 09:  ES64L-G09RevD.01 24-Apr-2013

 --------------------
 #p B2PLYPD3/Def2QZVP
 --------------------

 ------------
 cyanomethane
 ------------
 Symbolic Z-matrix:
 Charge =  0 Multiplicity = 1

                         Standard orientation:
 ---------------------------------------------------------------------
 Center     Atomic      Atomic             Coordinates (Angstroms)
 Number     Number       Type             X           Y           Z
 ---------------------------------------------------------------------
      1          6           0       -1.182899   -0.000532   -0.000381
      2          6           0        0.283073    0.012351    0.007577
      3          7           0        1.438185   -0.007191   -0.008331
      4          1           0       -1.602903   -0.793871   -0.627871
      5          1           0       -1.568162    0.945468   -0.347805
      6          1           0       -1.497278   -0.172173    0.990819
 ---------------------------------------------------------------------

 SCF Done:  E(RB2PLYPD3) =  -132.534492307     A.U. after   12 cycles
 E2(B2PLYPD3) =    -0.1803964834D+00 E(B2PLYPD3) =    -0.13271488878992D+03

 The electronic state is 1-A.
 Alpha  occ. eigenvalues --  -14.84250 -10.66796 -10.66342  -1.04081  -0.89388
 Alpha  occ. eigenvalues --   -0.59855  -0.54586  -0.53602  -0.44805  -0.39151
 Alpha  occ. eigenvalues --   -0.39096
 Alpha virt. eigenvalues --    0.03794   0.07767   0.08387   0.10199   0.11318
 Alpha virt. eigenvalues --    0.11448   0.15384   0.16016   0.16822   0.20072
 Alpha virt. eigenvalues --    0.20121   0.25199   0.32685   0.34763   0.35013

 Mulliken charges:
               1
     1  C   -0.077891
     2  C   -0.001418
     3  N   -0.206525
     4  H    0.093425
     5  H    0.095388
     6  H    0.097021
 Sum of Mulliken charges =   0.00000

 Dipole moment (field-independent basis, Debye):
    X=             -4.1411    Y=              0.0075    Z=              0.0274  Tot=              4.1412
 Quadrupole moment (field-independent basis, Debye-Ang):
   XX=            -20.9067   YY=            -17.7445   ZZ=            -17.7827
   XY=              0.0601   XZ=              0.0874   YZ=             -0.0253

 Normal termination of Gaussian 09 at Wed Aug 26 16:17:04 2020.
