 Gaussian 09, Revision D.01,
 Gaussian 09:  ES64L-G09RevD.01 24-Apr-2013

 --------------------
 #p B2PLYPD3/Def2QZVP
 --------------------

 ------------
 cyanomethane
 ------------
 Symbolic Z-matrix:
 Charge =  0 Multiplicity = 1

                         Standard orientation:
 ---------------------------------------------------------------------
 Center     Atomic      Atomic             Coordinates (Angstroms)
 Number     Number       Type             X           Y           Z
 ---------------------------------------------------------------------
      1          6           0       -1.162279   -0.011669    0.042459
      2          6           0        0.293466   -0.013448   -0.076254
      3          7           0        1.414268    0.006557    0.033803
      4          1           0       -1.537525    1.020737   -0.101608
      5          1           0       -1.546620   -0.378813    0.855158
      6          1           0       -1.602851   -0.537117   -0.787404
 ---------------------------------------------------------------------

 SCF Done:  E(RB2PLYPD3) =  -132.522498801     A.U. after   12 cycles
 E2(B2PLYPD3) =    -0.1779686114D+00 E(B2PLYPD3) =    -0.13270046741209D+03

 The electronic state is 1-A.
 Alpha  occ. eigenvalues --  -14.83533 -10.65777 -10.65504  -1.05384  -0.89915
 Alpha  occ. eigenvalues --   -0.61252  -0.55241  -0.52742  -0.44853  -0.40117
 Alpha  occ. eigenvalues --   -0.39644
 Alpha virt. eigenvalues --    0.03851   0.08494   0.08578   0.10076   0.11614
 Alpha virt. eigenvalues --    0.11923   0.15677   0.16033   0.17841   0.19905
 Alpha virt. eigenvalues --    0.20043   0.25897   0.33214   0.34129   0.36063

 Mulliken charges:
               1
     1  C   -0.066779
     2  C    0.001710
     3  N   -0.190669
     4  H    0.081973
     5  H    0.095309
     6  H    0.078456
 Sum of Mulliken charges =   0.00000

 Dipole moment (field-independent basis, Debye):
    X=             -4.0644    Y=             -0.0139    Z=             -0.0737  Tot=              4.0651
 Quadrupole moment (field-independent basis, Debye-Ang):
   XX=            -20.6441   YY=            -17.7051   ZZ=            -17.6701
   XY=             -0.0106   XZ=             -0.1244   YZ=             -0.0885

 Normal termination of Gaussian 09 at Wed Aug 26 23:02:09 2020.
