 Gaussian 09, Revision D.01,
 Gaussian 09:  ES64L-G09RevD.01 24-Apr-2013

 --------------------
 #p B2PLYPD3/Def2QZVP
 --------------------

 ------------
 cyanomethane
 ------------
 Symbolic Z-matrix:
 Charge =  0 Multiplicity = 1

                         Standard orientation:
 ---------------------------------------------------------------------
 Center     Atomic      Atomic             Coordinates (Angstroms)
 Number     Number       Type             X           Y           Z
 ---------------------------------------------------------------------
      1          6           0       -1.176736    0.004711    0.006367
      2          6           0        0.286714   -0.009220   -0.018427
      3          7           0        1.435715    0.000385    0.008286
      4          1           0       -1.518515    1.037972   -0.138663
      5          1           0       -1.580004   -0.378863    0.937252
      6          1           0       -1.611360   -0.634758   -0.784230
 ---------------------------------------------------------------------

 SCF Done:  E(RB2PLYPD3) =  -132.535157761     A.U. after   12 cycles
 E2(B2PLYPD3) =    -0.1801501763D+00 E(B2PLYPD3) =    -0.13271530793687D+03

 The electronic state is 1-A.
 Alpha  occ. eigenvalues --  -14.84129 -10.67355 -10.66217  -1.04357  -0.88876
 Alpha  occ. eigenvalues --   -0.59909  -0.53897  -0.53061  -0.44835  -0.39272
 Alpha  occ. eigenvalues --   -0.39200
 Alpha virt. eigenvalues --    0.03720   0.07764   0.07974   0.10199   0.11470
 Alpha virt. eigenvalues --    0.11589   0.15360   0.16415   0.16671   0.20021
 Alpha virt. eigenvalues --    0.20084   0.25276   0.32640   0.34501   0.34699

 Mulliken charges:
               1
     1  C   -0.081386
     2  C   -0.000665
     3  N   -0.202653
     4  H    0.097566
     5  H    0.095091
     6  H    0.092048
 Sum of Mulliken charges =   0.00000

 Dipole moment (field-independent basis, Debye):
    X=             -4.1252    Y=             -0.0088    Z=             -0.0042  Tot=              4.1252
 Quadrupole moment (field-independent basis, Debye-Ang):
   XX=            -20.8959   YY=            -17.7012   ZZ=            -17.8730
   XY=              0.0896   XZ=             -0.0531   YZ=             -0.0222

 Normal termination of Gaussian 09 at Thu Aug 27 00:11:36 2020.
