 Gaussian 09, Revision D.01,
 Gaussian 09:  ES64L-G09RevD.01 24-Apr-2013

 --------------------
 #p B2PLYPD3/Def2QZVP
 --------------------

 ------------
 cyanomethane
 ------------
 Symbolic Z-matrix:
 Charge =  0 Multiplicity = 1

                         Standard orientation:
 ---------------------------------------------------------------------
 Center     Atomic      Atomic             Coordinates (Angstroms)
 Number     Number       Type             X           Y           Z
 ---------------------------------------------------------------------
      1          6           0        1.174707    0.002459   -0.004427
      2          6           0       -0.282024   -0.019070   -0.003483
      3          7           0       -1.431796    0.006833    0.004401
      4          1           0        1.592934   -0.240590    0.997016
      5          1           0        1.509368    1.008678   -0.268335
      6          1           0        1.564173   -0.716251   -0.712030
 ---------------------------------------------------------------------

 SCF Done:  E(RB2PLYPD3) =  -132.535478094     A.U. after   12 cycles
 E2(B2PLYPD3) =    -0.1801639725D+00 E(B2PLYPD3) =    -0.13271564206672D+03

 The electronic state is 1-A.
 Alpha  occ. eigenvalues --  -14.84082 -10.67272 -10.66139  -1.04306  -0.89064
 Alpha  occ. eigenvalues --   -0.59712  -0.54176  -0.53259  -0.44789  -0.39211
 Alpha  occ. eigenvalues --   -0.39106
 Alpha virt. eigenvalues --    0.03726   0.07719   0.08088   0.10192   0.11457
 Alpha virt. eigenvalues --    0.11619   0.15406   0.16303   0.16518   0.20038
 Alpha virt. eigenvalues --    0.20094   0.25378   0.32724   0.34368   0.34778

 Mulliken charges:
               1
     1  C   -0.085099
     2  C   -0.001644
     3  N   -0.203555
     4  H    0.094100
     5  H    0.098447
     6  H    0.097752
 Sum of Mulliken charges =   0.00000

 Dipole moment (field-independent basis, Debye):
    X=              4.1188    Y=             -0.0056    Z=             -0.0080  Tot=              4.1188
 Quadrupole moment (field-independent basis, Debye-Ang):
   XX=            -20.9840   YY=            -17.7193   ZZ=            -17.7853
   XY=             -0.0034   XZ=              0.0598   YZ=              0.0192

 Normal termination of Gaussian 09 at Wed Aug 26 08:43:08 2020.
