 Gaussian 09, Revision D.01,
 Gaussian 09:  ES64L-G09RevD.01 24-Apr-2013

 --------------------
 #p B2PLYPD3/Def2QZVP
 --------------------

 ------------
 cyanomethane
 ------------
 Symbolic Z-matrix:
 Charge =  0 Multiplicity = 1

                         Standard orientation:
 ---------------------------------------------------------------------
 Center     Atomic      Atomic             Coordinates (Angstroms)
 Number     Number       Type             X           Y           Z
 ---------------------------------------------------------------------
      1          6           0       -1.212398    0.000404    0.009333
      2          6           0        0.291311    0.028683    0.021691
      3          7           0        1.440314   -0.006587   -0.015712
      4          1           0       -1.444599   -0.394154    1.005838
      5          1           0       -1.482593   -0.804975   -0.826622
      6          1           0       -1.628482    1.070713   -0.255376
 ---------------------------------------------------------------------

 SCF Done:  E(RB2PLYPD3) =  -132.519731234     A.U. after   12 cycles
 E2(B2PLYPD3) =    -0.1812180316D+00 E(B2PLYPD3) =    -0.13270094926550D+03

 The electronic state is 1-A.
 Alpha  occ. eigenvalues --  -14.83889 -10.69630 -10.66112  -1.04048  -0.87322
 Alpha  occ. eigenvalues --   -0.56857  -0.53958  -0.51900  -0.44437  -0.39178
 Alpha  occ. eigenvalues --   -0.38871
 Alpha virt. eigenvalues --    0.03141   0.07098   0.08265   0.10221   0.11237
 Alpha virt. eigenvalues --    0.11606   0.14616   0.15251   0.16191   0.20000
 Alpha virt. eigenvalues --    0.20115   0.24424   0.31161   0.32381   0.34177

 Mulliken charges:
               1
     1  C   -0.131934
     2  C   -0.001843
     3  N   -0.203365
     4  H    0.116811
     5  H    0.107984
     6  H    0.112345
 Sum of Mulliken charges =   0.00000

 Dipole moment (field-independent basis, Debye):
    X=             -4.0881    Y=             -0.0087    Z=              0.0307  Tot=              4.0882
 Quadrupole moment (field-independent basis, Debye-Ang):
   XX=            -21.6786   YY=            -17.6019   ZZ=            -17.7868
   XY=             -0.0728   XZ=              0.1352   YZ=             -0.0826

 Normal termination of Gaussian 09 at Wed Aug 26 21:24:53 2020.
