 Gaussian 09, Revision D.01,
 Gaussian 09:  ES64L-G09RevD.01 24-Apr-2013

 --------------------
 #p B2PLYPD3/Def2QZVP
 --------------------

 ------------
 cyanomethane
 ------------
 Symbolic Z-matrix:
 Charge =  0 Multiplicity = 1

                         Standard orientation:
 ---------------------------------------------------------------------
 Center     Atomic      Atomic             Coordinates (Angstroms)
 Number     Number       Type             X           Y           Z
 ---------------------------------------------------------------------
      1          6           0       -1.173966    0.007763   -0.008988
      2          6           0        0.279115    0.008934   -0.001006
      3          7           0        1.428796   -0.005349    0.003055
      4          1           0       -1.565490   -0.080303    1.021972
      5          1           0       -1.530409   -0.893870   -0.542265
      6          1           0       -1.536568    0.911433   -0.441130
 ---------------------------------------------------------------------

 SCF Done:  E(RB2PLYPD3) =  -132.535006221     A.U. after   11 cycles
 E2(B2PLYPD3) =    -0.1800963628D+00 E(B2PLYPD3) =    -0.13271510258337D+03

 The electronic state is 1-A.
 Alpha  occ. eigenvalues --  -14.84018 -10.67162 -10.66057  -1.04296  -0.89239
 Alpha  occ. eigenvalues --   -0.59613  -0.54817  -0.53022  -0.44746  -0.39254
 Alpha  occ. eigenvalues --   -0.38990
 Alpha virt. eigenvalues --    0.03742   0.07732   0.08202   0.10183   0.11372
 Alpha virt. eigenvalues --    0.11725   0.15409   0.16225   0.16452   0.20017
 Alpha virt. eigenvalues --    0.20132   0.25414   0.32798   0.34029   0.35081

 Mulliken charges:
               1
     1  C   -0.086703
     2  C   -0.002438
     3  N   -0.203973
     4  H    0.093534
     5  H    0.097645
     6  H    0.101936
 Sum of Mulliken charges =   0.00000

 Dipole moment (field-independent basis, Debye):
    X=             -4.1151    Y=              0.0010    Z=              0.0107  Tot=              4.1151
 Quadrupole moment (field-independent basis, Debye-Ang):
   XX=            -21.0471   YY=            -17.6097   ZZ=            -17.8363
   XY=              0.0454   XZ=             -0.0845   YZ=             -0.0331

 Normal termination of Gaussian 09 at Thu Aug 27 01:13:53 2020.
