 Gaussian 09, Revision D.01,
 Gaussian 09:  ES64L-G09RevD.01 24-Apr-2013

 --------------------
 #p B2PLYPD3/Def2QZVP
 --------------------

 ------------
 cyanomethane
 ------------
 Symbolic Z-matrix:
 Charge =  0 Multiplicity = 1

                         Standard orientation:
 ---------------------------------------------------------------------
 Center     Atomic      Atomic             Coordinates (Angstroms)
 Number     Number       Type             X           Y           Z
 ---------------------------------------------------------------------
      1          6           0        1.167799   -0.000685   -0.005542
      2          6           0       -0.276263    0.008717    0.002681
      3          7           0       -1.430952   -0.004433   -0.004070
      4          1           0        1.573905    0.959318   -0.384204
      5          1           0        1.581830   -0.839651   -0.607698
      6          1           0        1.511708   -0.136831    1.037555
 ---------------------------------------------------------------------

 SCF Done:  E(RB2PLYPD3) =  -132.534244089     A.U. after   12 cycles
 E2(B2PLYPD3) =    -0.1807672550D+00 E(B2PLYPD3) =    -0.13271501134360D+03

 The electronic state is 1-A.
 Alpha  occ. eigenvalues --  -14.84204 -10.67583 -10.66237  -1.04147  -0.89015
 Alpha  occ. eigenvalues --   -0.59787  -0.53611  -0.53361  -0.44825  -0.39002
 Alpha  occ. eigenvalues --   -0.38891
 Alpha virt. eigenvalues --    0.03665   0.07453   0.07706   0.10141   0.11533
 Alpha virt. eigenvalues --    0.11646   0.15464   0.16013   0.16730   0.20086
 Alpha virt. eigenvalues --    0.20116   0.25584   0.32700   0.34087   0.34518

 Mulliken charges:
               1
     1  C   -0.089016
     2  C    0.000442
     3  N   -0.205785
     4  H    0.098550
     5  H    0.098339
     6  H    0.097469
 Sum of Mulliken charges =   0.00000

 Dipole moment (field-independent basis, Debye):
    X=              4.1170    Y=              0.0030    Z=              0.0207  Tot=              4.1170
 Quadrupole moment (field-independent basis, Debye-Ang):
   XX=            -21.0326   YY=            -17.7311   ZZ=            -17.8109
   XY=             -0.0317   XZ=             -0.0433   YZ=             -0.0031

 Normal termination of Gaussian 09 at Wed Aug 26 09:41:52 2020.
