 Gaussian 09, Revision D.01,
 Gaussian 09:  ES64L-G09RevD.01 24-Apr-2013

 --------------------
 #p B2PLYPD3/Def2QZVP
 --------------------

 ------------
 cyanomethane
 ------------
 Symbolic Z-matrix:
 Charge =  0 Multiplicity = 1

                         Standard orientation:
 ---------------------------------------------------------------------
 Center     Atomic      Atomic             Coordinates (Angstroms)
 Number     Number       Type             X           Y           Z
 ---------------------------------------------------------------------
      1          6           0        1.177075   -0.000630   -0.005534
      2          6           0       -0.278185   -0.000915   -0.003425
      3          7           0       -1.430759   -0.000232    0.006724
      4          1           0        1.601698   -0.133050    0.994941
      5          1           0        1.508080    0.961393   -0.379744
      6          1           0        1.512202   -0.817453   -0.608513
 ---------------------------------------------------------------------

 SCF Done:  E(RB2PLYPD3) =  -132.535154596     A.U. after   11 cycles
 E2(B2PLYPD3) =    -0.1802129129D+00 E(B2PLYPD3) =    -0.13271536750905D+03

 The electronic state is 1-A.
 Alpha  occ. eigenvalues --  -14.84089 -10.66896 -10.66139  -1.04174  -0.89446
 Alpha  occ. eigenvalues --   -0.59688  -0.54901  -0.53398  -0.44742  -0.39149
 Alpha  occ. eigenvalues --   -0.39018
 Alpha virt. eigenvalues --    0.03798   0.07801   0.08305   0.10193   0.11369
 Alpha virt. eigenvalues --    0.11587   0.15390   0.16112   0.16508   0.20053
 Alpha virt. eigenvalues --    0.20134   0.25374   0.32812   0.34489   0.34962

 Mulliken charges:
               1
     1  C   -0.084143
     2  C   -0.002383
     3  N   -0.205827
     4  H    0.093251
     5  H    0.099344
     6  H    0.099758
 Sum of Mulliken charges =   0.00000

 Dipole moment (field-independent basis, Debye):
    X=              4.1247    Y=             -0.0033    Z=             -0.0020  Tot=              4.1247
 Quadrupole moment (field-independent basis, Debye-Ang):
   XX=            -21.0249   YY=            -17.6177   ZZ=            -17.8266
   XY=             -0.0244   XZ=              0.1349   YZ=              0.0178

 Normal termination of Gaussian 09 at Wed Aug 26 12:13:31 2020.
