 Gaussian 09, Revision D.01,
 Gaussian 09:  ES64L-G09RevD.01 24-Apr-2013

 --------------------
 #p B2PLYPD3/Def2QZVP
 --------------------

 ------------
 cyanomethane
 ------------
 Symbolic Z-matrix:
 Charge =  0 Multiplicity = 1

                         Standard orientation:
 ---------------------------------------------------------------------
 Center     Atomic      Atomic             Coordinates (Angstroms)
 Number     Number       Type             X           Y           Z
 ---------------------------------------------------------------------
      1          6           0        1.178774   -0.002930   -0.001719
      2          6           0       -0.280839    0.024915    0.005530
      3          7           0       -1.438619   -0.014111   -0.005698
      4          1           0        1.549229    1.007988   -0.137147
      5          1           0        1.605106   -0.648718   -0.769830
      6          1           0        1.528387   -0.392403    0.923999
 ---------------------------------------------------------------------

 SCF Done:  E(RB2PLYPD3) =  -132.534348599     A.U. after   12 cycles
 E2(B2PLYPD3) =    -0.1807364618D+00 E(B2PLYPD3) =    -0.13271508506099D+03

 The electronic state is 1-A.
 Alpha  occ. eigenvalues --  -14.84363 -10.66847 -10.66439  -1.03990  -0.89381
 Alpha  occ. eigenvalues --   -0.60137  -0.54399  -0.53485  -0.44855  -0.39062
 Alpha  occ. eigenvalues --   -0.38992
 Alpha virt. eigenvalues --    0.03776   0.07654   0.08150   0.10150   0.11286
 Alpha virt. eigenvalues --    0.11511   0.15430   0.16106   0.16815   0.20052
 Alpha virt. eigenvalues --    0.20164   0.25347   0.32722   0.34753   0.34873

 Mulliken charges:
               1
     1  C   -0.075819
     2  C    0.000282
     3  N   -0.207774
     4  H    0.095640
     5  H    0.092926
     6  H    0.094744
 Sum of Mulliken charges =   0.00000

 Dipole moment (field-independent basis, Debye):
    X=              4.1415    Y=              0.0046    Z=              0.0231  Tot=              4.1416
 Quadrupole moment (field-independent basis, Debye-Ang):
   XX=            -20.8813   YY=            -17.6958   ZZ=            -17.8754
   XY=             -0.1382   XZ=             -0.0471   YZ=             -0.0219

 Normal termination of Gaussian 09 at Thu Aug 27 00:10:23 2020.
