 Gaussian 09, Revision D.01,
 Gaussian 09:  ES64L-G09RevD.01 24-Apr-2013

 --------------------
 #p B2PLYPD3/Def2QZVP
 --------------------

 ------------
 cyanomethane
 ------------
 Symbolic Z-matrix:
 Charge =  0 Multiplicity = 1

                         Standard orientation:
 ---------------------------------------------------------------------
 Center     Atomic      Atomic             Coordinates (Angstroms)
 Number     Number       Type             X           Y           Z
 ---------------------------------------------------------------------
      1          6           0       -1.180079    0.002903    0.006132
      2          6           0        0.273809   -0.009759    0.018407
      3          7           0        1.442538    0.009815   -0.011431
      4          1           0       -1.521218   -0.286874    0.967808
      5          1           0       -1.518276   -0.768568   -0.747737
      6          1           0       -1.620654    1.027873   -0.287283
 ---------------------------------------------------------------------

 SCF Done:  E(RB2PLYPD3) =  -132.529083413     A.U. after   12 cycles
 E2(B2PLYPD3) =    -0.1821499470D+00 E(B2PLYPD3) =    -0.13271123336022D+03

 The electronic state is 1-A.
 Alpha  occ. eigenvalues --  -14.84612 -10.67909 -10.66702  -1.03540  -0.88889
 Alpha  occ. eigenvalues --   -0.59449  -0.54180  -0.52751  -0.44839  -0.38716
 Alpha  occ. eigenvalues --   -0.38535
 Alpha virt. eigenvalues --    0.03497   0.06859   0.07878   0.10127   0.11235
 Alpha virt. eigenvalues --    0.11487   0.15306   0.15695   0.16668   0.20133
 Alpha virt. eigenvalues --    0.20189   0.25395   0.32202   0.33618   0.34494

 Mulliken charges:
               1
     1  C   -0.094721
     2  C    0.002511
     3  N   -0.212361
     4  H    0.104645
     5  H    0.099819
     6  H    0.100107
 Sum of Mulliken charges =   0.00000

 Dipole moment (field-independent basis, Debye):
    X=             -4.1353    Y=             -0.0354    Z=              0.0273  Tot=              4.1356
 Quadrupole moment (field-independent basis, Debye-Ang):
   XX=            -21.1328   YY=            -17.7638   ZZ=            -17.8565
   XY=             -0.0871   XZ=              0.0540   YZ=             -0.0256

 Normal termination of Gaussian 09 at Wed Aug 26 13:25:15 2020.
