 Gaussian 09, Revision D.01,
 Gaussian 09:  ES64L-G09RevD.01 24-Apr-2013

 --------------------
 #p B2PLYPD3/Def2QZVP
 --------------------

 ------------
 cyanomethane
 ------------
 Symbolic Z-matrix:
 Charge =  0 Multiplicity = 1

                         Standard orientation:
 ---------------------------------------------------------------------
 Center     Atomic      Atomic             Coordinates (Angstroms)
 Number     Number       Type             X           Y           Z
 ---------------------------------------------------------------------
      1          6           0        1.180582   -0.003115   -0.003859
      2          6           0       -0.279216    0.016186    0.032578
      3          7           0       -1.426949   -0.004374   -0.022478
      4          1           0        1.543477   -0.773212   -0.713702
      5          1           0        1.440112   -0.258756    1.000419
      6          1           0        1.596861    0.984160   -0.301682
 ---------------------------------------------------------------------

 SCF Done:  E(RB2PLYPD3) =  -132.533088714     A.U. after   12 cycles
 E2(B2PLYPD3) =    -0.1801693729D+00 E(B2PLYPD3) =    -0.13271325808654D+03

 The electronic state is 1-A.
 Alpha  occ. eigenvalues --  -14.83947 -10.67355 -10.65995  -1.04275  -0.89144
 Alpha  occ. eigenvalues --   -0.59000  -0.54606  -0.53381  -0.44668  -0.39129
 Alpha  occ. eigenvalues --   -0.39083
 Alpha virt. eigenvalues --    0.03670   0.07581   0.08529   0.10166   0.11428
 Alpha virt. eigenvalues --    0.11589   0.15293   0.15577   0.16786   0.20050
 Alpha virt. eigenvalues --    0.20113   0.25369   0.32706   0.34333   0.34598

 Mulliken charges:
               1
     1  C   -0.097686
     2  C   -0.002884
     3  N   -0.204190
     4  H    0.100912
     5  H    0.104056
     6  H    0.099793
 Sum of Mulliken charges =   0.00000

 Dipole moment (field-independent basis, Debye):
    X=              4.0973    Y=             -0.0030    Z=              0.0406  Tot=              4.0975
 Quadrupole moment (field-independent basis, Debye-Ang):
   XX=            -21.1938   YY=            -17.7028   ZZ=            -17.6767
   XY=              0.0210   XZ=             -0.2136   YZ=             -0.0211

 Normal termination of Gaussian 09 at Wed Aug 26 13:51:29 2020.
