 Gaussian 09, Revision D.01,
 Gaussian 09:  ES64L-G09RevD.01 24-Apr-2013

 --------------------
 #p B2PLYPD3/Def2QZVP
 --------------------

 ------------
 cyanomethane
 ------------
 Symbolic Z-matrix:
 Charge =  0 Multiplicity = 1

                         Standard orientation:
 ---------------------------------------------------------------------
 Center     Atomic      Atomic             Coordinates (Angstroms)
 Number     Number       Type             X           Y           Z
 ---------------------------------------------------------------------
      1          6           0        1.184297   -0.009173   -0.036604
      2          6           0       -0.299526    0.003935    0.075545
      3          7           0       -1.433997   -0.001157   -0.034297
      4          1           0        1.573958    1.024060   -0.047729
      5          1           0        1.553062   -0.534933   -0.810350
      6          1           0        1.602339   -0.449597    0.864511
 ---------------------------------------------------------------------

 SCF Done:  E(RB2PLYPD3) =  -132.528603962     A.U. after   12 cycles
 E2(B2PLYPD3) =    -0.1791773549D+00 E(B2PLYPD3) =    -0.13270778131676D+03

 The electronic state is 1-A.
 Alpha  occ. eigenvalues --  -14.83971 -10.66576 -10.66052  -1.04781  -0.89135
 Alpha  occ. eigenvalues --   -0.60280  -0.54697  -0.52777  -0.44871  -0.39829
 Alpha  occ. eigenvalues --   -0.39497
 Alpha virt. eigenvalues --    0.03756   0.08211   0.08375   0.10118   0.11428
 Alpha virt. eigenvalues --    0.11547   0.15410   0.15959   0.17580   0.19939
 Alpha virt. eigenvalues --    0.20038   0.25350   0.32749   0.34234   0.35649

 Mulliken charges:
               1
     1  C   -0.070688
     2  C    0.000944
     3  N   -0.197340
     4  H    0.088208
     5  H    0.096825
     6  H    0.082051
 Sum of Mulliken charges =   0.00000

 Dipole moment (field-independent basis, Debye):
    X=              4.1021    Y=             -0.0121    Z=              0.0671  Tot=              4.1026
 Quadrupole moment (field-independent basis, Debye-Ang):
   XX=            -20.7190   YY=            -17.7126   ZZ=            -17.8168
   XY=             -0.0347   XZ=             -0.1277   YZ=              0.0828

 Normal termination of Gaussian 09 at Wed Aug 26 22:39:17 2020.
