 Gaussian 09, Revision D.01,
 Gaussian 09:  ES64L-G09RevD.01 24-Apr-2013

 --------------------
 #p B2PLYPD3/Def2QZVP
 --------------------

 ------------
 cyanomethane
 ------------
 Symbolic Z-matrix:
 Charge =  0 Multiplicity = 1

                         Standard orientation:
 ---------------------------------------------------------------------
 Center     Atomic      Atomic             Coordinates (Angstroms)
 Number     Number       Type             X           Y           Z
 ---------------------------------------------------------------------
      1          6           0        1.204883   -0.012410    0.015768
      2          6           0       -0.289640    0.039262   -0.067581
      3          7           0       -1.439936   -0.030217    0.037733
      4          1           0        1.584670    0.023075    0.972848
      5          1           0        1.380186    0.936193   -0.454769
      6          1           0        1.623239   -0.908869   -0.471332
 ---------------------------------------------------------------------

 SCF Done:  E(RB2PLYPD3) =  -132.523072655     A.U. after   12 cycles
 E2(B2PLYPD3) =    -0.1809799431D+00 E(B2PLYPD3) =    -0.13270405259799D+03

 The electronic state is 1-A.
 Alpha  occ. eigenvalues --  -14.84312 -10.66911 -10.66444  -1.03969  -0.89229
 Alpha  occ. eigenvalues --   -0.59931  -0.54591  -0.53060  -0.44713  -0.39266
 Alpha  occ. eigenvalues --   -0.38916
 Alpha virt. eigenvalues --    0.03641   0.07535   0.08795   0.09857   0.11024
 Alpha virt. eigenvalues --    0.11531   0.14818   0.15557   0.17431   0.19964
 Alpha virt. eigenvalues --    0.20237   0.25099   0.32486   0.34216   0.35139

 Mulliken charges:
               1
     1  C   -0.092368
     2  C    0.002216
     3  N   -0.206929
     4  H    0.096796
     5  H    0.100407
     6  H    0.099878
 Sum of Mulliken charges =   0.00000

 Dipole moment (field-independent basis, Debye):
    X=              4.0993    Y=              0.0610    Z=             -0.0137  Tot=              4.0998
 Quadrupole moment (field-independent basis, Debye-Ang):
   XX=            -21.0882   YY=            -17.5299   ZZ=            -17.9537
   XY=             -0.3204   XZ=              0.3684   YZ=              0.0168

 Normal termination of Gaussian 09 at Wed Aug 26 22:47:24 2020.
