 Gaussian 09, Revision D.01,
 Gaussian 09:  ES64L-G09RevD.01 24-Apr-2013

 --------------------
 #p B2PLYPD3/Def2QZVP
 --------------------

 ------------
 cyanomethane
 ------------
 Symbolic Z-matrix:
 Charge =  0 Multiplicity = 1

                         Standard orientation:
 ---------------------------------------------------------------------
 Center     Atomic      Atomic             Coordinates (Angstroms)
 Number     Number       Type             X           Y           Z
 ---------------------------------------------------------------------
      1          6           0        1.180512   -0.013290   -0.011689
      2          6           0       -0.266450    0.001453   -0.023356
      3          7           0       -1.428687   -0.001471    0.008756
      4          1           0        1.499205    1.005646   -0.264326
      5          1           0        1.565611   -0.738138   -0.619871
      6          1           0        1.451621   -0.186193    1.033175
 ---------------------------------------------------------------------

 SCF Done:  E(RB2PLYPD3) =  -132.530675557     A.U. after   12 cycles
 E2(B2PLYPD3) =    -0.1809574710D+00 E(B2PLYPD3) =    -0.13271163302779D+03

 The electronic state is 1-A.
 Alpha  occ. eigenvalues --  -14.84220 -10.66534 -10.66281  -1.03732  -0.90061
 Alpha  occ. eigenvalues --   -0.59746  -0.55717  -0.53804  -0.44656  -0.38927
 Alpha  occ. eigenvalues --   -0.38537
 Alpha virt. eigenvalues --    0.03812   0.07929   0.08324   0.10143   0.11125
 Alpha virt. eigenvalues --    0.11615   0.15410   0.15532   0.16459   0.20103
 Alpha virt. eigenvalues --    0.20239   0.25475   0.32798   0.33843   0.35422

 Mulliken charges:
               1
     1  C   -0.089351
     2  C   -0.001006
     3  N   -0.212941
     4  H    0.099839
     5  H    0.104559
     6  H    0.098900
 Sum of Mulliken charges =   0.00000

 Dipole moment (field-independent basis, Debye):
    X=              4.1302    Y=              0.0066    Z=              0.0135  Tot=              4.1302
 Quadrupole moment (field-independent basis, Debye-Ang):
   XX=            -21.2056   YY=            -17.6136   ZZ=            -17.7376
   XY=             -0.0368   XZ=              0.0238   YZ=              0.0690

 Normal termination of Gaussian 09 at Wed Aug 26 13:19:20 2020.
