 Gaussian 09, Revision D.01,
 Gaussian 09:  ES64L-G09RevD.01 24-Apr-2013

 --------------------
 #p B2PLYPD3/Def2QZVP
 --------------------

 ------------
 cyanomethane
 ------------
 Symbolic Z-matrix:
 Charge =  0 Multiplicity = 1

                         Standard orientation:
 ---------------------------------------------------------------------
 Center     Atomic      Atomic             Coordinates (Angstroms)
 Number     Number       Type             X           Y           Z
 ---------------------------------------------------------------------
      1          6           0       -1.180380   -0.001253    0.004627
      2          6           0        0.275819    0.030713    0.003475
      3          7           0        1.424799   -0.002754    0.002413
      4          1           0       -1.515559   -0.413831    0.911464
      5          1           0       -1.354268   -0.712973   -0.786798
      6          1           0       -1.676399    0.969321   -0.190167
 ---------------------------------------------------------------------

 SCF Done:  E(RB2PLYPD3) =  -132.531802285     A.U. after   12 cycles
 E2(B2PLYPD3) =    -0.1799876036D+00 E(B2PLYPD3) =    -0.13271178988876D+03

 The electronic state is 1-A.
 Alpha  occ. eigenvalues --  -14.83878 -10.66822 -10.65998  -1.04263  -0.89701
 Alpha  occ. eigenvalues --   -0.59449  -0.54539  -0.54192  -0.44621  -0.39219
 Alpha  occ. eigenvalues --   -0.38937
 Alpha virt. eigenvalues --    0.03819   0.07842   0.08630   0.10278   0.11399
 Alpha virt. eigenvalues --    0.11717   0.15104   0.15591   0.16981   0.20070
 Alpha virt. eigenvalues --    0.20165   0.25365   0.32606   0.34281   0.35284

 Mulliken charges:
               1
     1  C   -0.094760
     2  C   -0.002561
     3  N   -0.206059
     4  H    0.100807
     5  H    0.102978
     6  H    0.099594
 Sum of Mulliken charges =   0.00000

 Dipole moment (field-independent basis, Debye):
    X=             -4.1183    Y=             -0.0341    Z=             -0.0047  Tot=              4.1185
 Quadrupole moment (field-independent basis, Debye-Ang):
   XX=            -21.1214   YY=            -17.6120   ZZ=            -17.7532
   XY=             -0.1316   XZ=             -0.1025   YZ=             -0.0061

 Normal termination of Gaussian 09 at Wed Aug 26 21:57:09 2020.
