 Gaussian 09, Revision D.01,
 Gaussian 09:  ES64L-G09RevD.01 24-Apr-2013

 --------------------
 #p B2PLYPD3/Def2QZVP
 --------------------

 ------------
 cyanomethane
 ------------
 Symbolic Z-matrix:
 Charge =  0 Multiplicity = 1

                         Standard orientation:
 ---------------------------------------------------------------------
 Center     Atomic      Atomic             Coordinates (Angstroms)
 Number     Number       Type             X           Y           Z
 ---------------------------------------------------------------------
      1          6           0        1.172330   -0.000191    0.000281
      2          6           0       -0.276335   -0.008508    0.024719
      3          7           0       -1.433916    0.006783   -0.014485
      4          1           0        1.533304   -0.004325    0.998411
      5          1           0        1.591221    0.885027   -0.517259
      6          1           0        1.536913   -0.875989   -0.529751
 ---------------------------------------------------------------------

 SCF Done:  E(RB2PLYPD3) =  -132.534327262     A.U. after   12 cycles
 E2(B2PLYPD3) =    -0.1807752162D+00 E(B2PLYPD3) =    -0.13271510247857D+03

 The electronic state is 1-A.
 Alpha  occ. eigenvalues --  -14.84321 -10.66901 -10.66353  -1.04006  -0.89468
 Alpha  occ. eigenvalues --   -0.60084  -0.54607  -0.53335  -0.44844  -0.39013
 Alpha  occ. eigenvalues --   -0.38896
 Alpha virt. eigenvalues --    0.03740   0.07496   0.08162   0.10141   0.11333
 Alpha virt. eigenvalues --    0.11571   0.15498   0.16092   0.16702   0.20068
 Alpha virt. eigenvalues --    0.20159   0.25540   0.32838   0.34439   0.34924

 Mulliken charges:
               1
     1  C   -0.078721
     2  C   -0.000075
     3  N   -0.207908
     4  H    0.097302
     5  H    0.093492
     6  H    0.095909
 Sum of Mulliken charges =   0.00000

 Dipole moment (field-independent basis, Debye):
    X=              4.1321    Y=             -0.0138    Z=              0.0218  Tot=              4.1322
 Quadrupole moment (field-independent basis, Debye-Ang):
   XX=            -20.9343   YY=            -17.7993   ZZ=            -17.7379
   XY=              0.0688   XZ=             -0.1035   YZ=              0.0208

 Normal termination of Gaussian 09 at Thu Aug 27 00:05:49 2020.
