 Gaussian 09, Revision D.01,
 Gaussian 09:  ES64L-G09RevD.01 24-Apr-2013

 --------------------
 #p B2PLYPD3/Def2QZVP
 --------------------

 ------------
 cyanomethane
 ------------
 Symbolic Z-matrix:
 Charge =  0 Multiplicity = 1

                         Standard orientation:
 ---------------------------------------------------------------------
 Center     Atomic      Atomic             Coordinates (Angstroms)
 Number     Number       Type             X           Y           Z
 ---------------------------------------------------------------------
      1          6           0        1.173051   -0.002743   -0.001688
      2          6           0       -0.281199   -0.005174   -0.006624
      3          7           0       -1.436380    0.006568    0.003157
      4          1           0        1.539225   -0.722442   -0.714412
      5          1           0        1.548113   -0.272081    0.990238
      6          1           0        1.616210    0.996050   -0.248056
 ---------------------------------------------------------------------

 SCF Done:  E(RB2PLYPD3) =  -132.534548177     A.U. after   12 cycles
 E2(B2PLYPD3) =    -0.1806664983D+00 E(B2PLYPD3) =    -0.13271521467562D+03

 The electronic state is 1-A.
 Alpha  occ. eigenvalues --  -14.84286 -10.67304 -10.66351  -1.04138  -0.89068
 Alpha  occ. eigenvalues --   -0.60025  -0.54073  -0.53048  -0.44867  -0.39098
 Alpha  occ. eigenvalues --   -0.39001
 Alpha virt. eigenvalues --    0.03704   0.07452   0.07987   0.10168   0.11424
 Alpha virt. eigenvalues --    0.11585   0.15441   0.16243   0.16742   0.20060
 Alpha virt. eigenvalues --    0.20123   0.25413   0.32648   0.34363   0.34761

 Mulliken charges:
               1
     1  C   -0.080627
     2  C    0.000279
     3  N   -0.205685
     4  H    0.097504
     5  H    0.095223
     6  H    0.093307
 Sum of Mulliken charges =   0.00000

 Dipole moment (field-independent basis, Debye):
    X=              4.1315    Y=             -0.0203    Z=              0.0022  Tot=              4.1316
 Quadrupole moment (field-independent basis, Debye-Ang):
   XX=            -20.9052   YY=            -17.7913   ZZ=            -17.8047
   XY=              0.0745   XZ=              0.0259   YZ=              0.0299

 Normal termination of Gaussian 09 at Wed Aug 26 13:44:39 2020.
