 Gaussian 09, Revision D.01,
 Gaussian 09:  ES64L-G09RevD.01 24-Apr-2013

 --------------------
 #p B2PLYPD3/Def2QZVP
 --------------------

 ------------
 cyanomethane
 ------------
 Symbolic Z-matrix:
 Charge =  0 Multiplicity = 1

                         Standard orientation:
 ---------------------------------------------------------------------
 Center     Atomic      Atomic             Coordinates (Angstroms)
 Number     Number       Type             X           Y           Z
 ---------------------------------------------------------------------
      1          6           0       -1.181452    0.005683   -0.009167
      2          6           0        0.271814   -0.019672    0.006858
      3          7           0        1.439255    0.009782   -0.002652
      4          1           0       -1.538536   -0.086330    0.986727
      5          1           0       -1.537870   -0.819544   -0.554733
      6          1           0       -1.540547    0.921335   -0.399573
 ---------------------------------------------------------------------

 SCF Done:  E(RB2PLYPD3) =  -132.532665579     A.U. after   11 cycles
 E2(B2PLYPD3) =    -0.1812336587D+00 E(B2PLYPD3) =    -0.13271389923800D+03

 The electronic state is 1-A.
 Alpha  occ. eigenvalues --  -14.84532 -10.66595 -10.66145  -1.03592  -0.90099
 Alpha  occ. eigenvalues --   -0.60186  -0.55241  -0.54289  -0.44815  -0.38857
 Alpha  occ. eigenvalues --   -0.38716
 Alpha virt. eigenvalues --    0.03886   0.07917   0.08145   0.10160   0.11164
 Alpha virt. eigenvalues --    0.11354   0.15458   0.15967   0.16570   0.20134
 Alpha virt. eigenvalues --    0.20198   0.25425   0.32829   0.34809   0.35369

 Mulliken charges:
               1
     1  C   -0.070995
     2  C   -0.000014
     3  N   -0.213558
     4  H    0.091771
     5  H    0.095884
     6  H    0.096913
 Sum of Mulliken charges =   0.00000

 Dipole moment (field-independent basis, Debye):
    X=             -4.1599    Y=             -0.0168    Z=              0.0213  Tot=              4.1600
 Quadrupole moment (field-independent basis, Debye-Ang):
   XX=            -20.9255   YY=            -17.6681   ZZ=            -17.8330
   XY=             -0.0420   XZ=             -0.0310   YZ=              0.0072

 Normal termination of Gaussian 09 at Wed Aug 26 23:58:38 2020.
