 Gaussian 09, Revision D.01,
 Gaussian 09:  ES64L-G09RevD.01 24-Apr-2013

 --------------------
 #p B2PLYPD3/Def2QZVP
 --------------------

 ------------
 cyanomethane
 ------------
 Symbolic Z-matrix:
 Charge =  0 Multiplicity = 1

                         Standard orientation:
 ---------------------------------------------------------------------
 Center     Atomic      Atomic             Coordinates (Angstroms)
 Number     Number       Type             X           Y           Z
 ---------------------------------------------------------------------
      1          6           0        1.159749    0.007642   -0.009421
      2          6           0       -0.270711   -0.015596   -0.032751
      3          7           0       -1.431267    0.011396    0.020870
      4          1           0        1.501098   -0.694291   -0.776379
      5          1           0        1.575279   -0.388000    1.022799
      6          1           0        1.608265    1.050246   -0.139476
 ---------------------------------------------------------------------

 SCF Done:  E(RB2PLYPD3) =  -132.526164727     A.U. after   12 cycles
 E2(B2PLYPD3) =    -0.1819479273D+00 E(B2PLYPD3) =    -0.13270811265476D+03

 The electronic state is 1-A.
 Alpha  occ. eigenvalues --  -14.84446 -10.68318 -10.66432  -1.03922  -0.88758
 Alpha  occ. eigenvalues --   -0.59648  -0.54095  -0.51803  -0.44906  -0.38799
 Alpha  occ. eigenvalues --   -0.38453
 Alpha virt. eigenvalues --    0.03356   0.06405   0.07591   0.10045   0.11402
 Alpha virt. eigenvalues --    0.11880   0.15447   0.15846   0.16850   0.20039
 Alpha virt. eigenvalues --    0.20224   0.25831   0.32336   0.33093   0.34419

 Mulliken charges:
               1
     1  C   -0.097687
     2  C    0.004409
     3  N   -0.208136
     4  H    0.104281
     5  H    0.094624
     6  H    0.102510
 Sum of Mulliken charges =   0.00000

 Dipole moment (field-independent basis, Debye):
    X=              4.1019    Y=             -0.0279    Z=             -0.0285  Tot=              4.1021
 Quadrupole moment (field-independent basis, Debye-Ang):
   XX=            -21.1152   YY=            -17.7326   ZZ=            -17.9019
   XY=              0.1011   XZ=              0.1736   YZ=              0.0707

 Normal termination of Gaussian 09 at Wed Aug 26 16:18:36 2020.
