 Gaussian 09, Revision D.01,
 Gaussian 09:  ES64L-G09RevD.01 24-Apr-2013

 --------------------
 #p B2PLYPD3/Def2QZVP
 --------------------

 ------------
 cyanomethane
 ------------
 Symbolic Z-matrix:
 Charge =  0 Multiplicity = 1

                         Standard orientation:
 ---------------------------------------------------------------------
 Center     Atomic      Atomic             Coordinates (Angstroms)
 Number     Number       Type             X           Y           Z
 ---------------------------------------------------------------------
      1          6           0        1.212934    0.021218    0.009963
      2          6           0       -0.301185   -0.083865   -0.011058
      3          7           0       -1.426576    0.040766    0.009579
      4          1           0        1.570785   -0.163812    0.966974
      5          1           0        1.463198    1.000993   -0.353803
      6          1           0        1.481558   -0.746657   -0.673656
 ---------------------------------------------------------------------

 SCF Done:  E(RB2PLYPD3) =  -132.529116535     A.U. after   12 cycles
 E2(B2PLYPD3) =    -0.1784883244D+00 E(B2PLYPD3) =    -0.13270760485890D+03

 The electronic state is 1-A.
 Alpha  occ. eigenvalues --  -14.83437 -10.66751 -10.65508  -1.04797  -0.89038
 Alpha  occ. eigenvalues --   -0.58030  -0.54917  -0.54512  -0.44439  -0.39868
 Alpha  occ. eigenvalues --   -0.39654
 Alpha virt. eigenvalues --    0.03698   0.08767   0.09398   0.10194   0.11214
 Alpha virt. eigenvalues --    0.11315   0.15058   0.15273   0.16872   0.19901
 Alpha virt. eigenvalues --    0.20005   0.24794   0.32771   0.34649   0.35401

 Mulliken charges:
               1
     1  C   -0.098055
     2  C   -0.012726
     3  N   -0.194597
     4  H    0.101385
     5  H    0.104676
     6  H    0.099318
 Sum of Mulliken charges =   0.00000

 Dipole moment (field-independent basis, Debye):
    X=              4.0833    Y=             -0.0693    Z=             -0.0178  Tot=              4.0840
 Quadrupole moment (field-independent basis, Debye-Ang):
   XX=            -21.2104   YY=            -17.5501   ZZ=            -17.6267
   XY=              0.1897   XZ=              0.1363   YZ=             -0.0230

 Normal termination of Gaussian 09 at Wed Aug 26 21:53:07 2020.
