 Gaussian 09, Revision D.01,
 Gaussian 09:  ES64L-G09RevD.01 24-Apr-2013

 --------------------
 #p B2PLYPD3/Def2QZVP
 --------------------

 ------------
 cyanomethane
 ------------
 Symbolic Z-matrix:
 Charge =  0 Multiplicity = 1

                         Standard orientation:
 ---------------------------------------------------------------------
 Center     Atomic      Atomic             Coordinates (Angstroms)
 Number     Number       Type             X           Y           Z
 ---------------------------------------------------------------------
      1          6           0        1.154255    0.023608   -0.004561
      2          6           0       -0.295616   -0.077314   -0.005155
      3          7           0       -1.414099    0.036406    0.010884
      4          1           0        1.682855   -0.103990    1.064259
      5          1           0        1.517602    1.051606   -0.438122
      6          1           0        1.546400   -0.880222   -0.644025
 ---------------------------------------------------------------------

 SCF Done:  E(RB2PLYPD3) =  -132.516810352     A.U. after   12 cycles
 E2(B2PLYPD3) =    -0.1795905649D+00 E(B2PLYPD3) =    -0.13269640091688D+03

 The electronic state is 1-A.
 Alpha  occ. eigenvalues --  -14.83510 -10.69601 -10.65485  -1.05496  -0.87193
 Alpha  occ. eigenvalues --   -0.58658  -0.52489  -0.50976  -0.44846  -0.39634
 Alpha  occ. eigenvalues --   -0.39386
 Alpha virt. eigenvalues --    0.03086   0.06616   0.07405   0.10086   0.11944
 Alpha virt. eigenvalues --    0.12224   0.15373   0.15814   0.17447   0.19766
 Alpha virt. eigenvalues --    0.20046   0.25892   0.32031   0.32679   0.33491

 Mulliken charges:
               1
     1  C   -0.118107
     2  C    0.002788
     3  N   -0.184713
     4  H    0.095661
     5  H    0.107111
     6  H    0.097260
 Sum of Mulliken charges =   0.00000

 Dipole moment (field-independent basis, Debye):
    X=              3.9968    Y=             -0.0603    Z=             -0.0149  Tot=              3.9973
 Quadrupole moment (field-independent basis, Debye-Ang):
   XX=            -21.1467   YY=            -17.6157   ZZ=            -17.9344
   XY=              0.1867   XZ=              0.2058   YZ=             -0.0224

 Normal termination of Gaussian 09 at Wed Aug 26 22:01:32 2020.
