 Gaussian 09, Revision D.01,
 Gaussian 09:  ES64L-G09RevD.01 24-Apr-2013

 --------------------
 #p B2PLYPD3/Def2QZVP
 --------------------

 ------------
 cyanomethane
 ------------
 Symbolic Z-matrix:
 Charge =  0 Multiplicity = 1

                         Standard orientation:
 ---------------------------------------------------------------------
 Center     Atomic      Atomic             Coordinates (Angstroms)
 Number     Number       Type             X           Y           Z
 ---------------------------------------------------------------------
      1          6           0        1.167733   -0.006647    0.006974
      2          6           0       -0.276349    0.022812   -0.002481
      3          7           0       -1.432991   -0.011599    0.001437
      4          1           0        1.573777   -0.168857    1.014104
      5          1           0        1.552123    0.969593   -0.384242
      6          1           0        1.556732   -0.816541   -0.666875
 ---------------------------------------------------------------------

 SCF Done:  E(RB2PLYPD3) =  -132.533465850     A.U. after   11 cycles
 E2(B2PLYPD3) =    -0.1810477557D+00 E(B2PLYPD3) =    -0.13271451360526D+03

 The electronic state is 1-A.
 Alpha  occ. eigenvalues --  -14.84302 -10.67713 -10.66333  -1.04069  -0.88906
 Alpha  occ. eigenvalues --   -0.59844  -0.53611  -0.53084  -0.44859  -0.38958
 Alpha  occ. eigenvalues --   -0.38832
 Alpha virt. eigenvalues --    0.03626   0.07357   0.07565   0.10117   0.11513
 Alpha virt. eigenvalues --    0.11624   0.15463   0.16077   0.16688   0.20080
 Alpha virt. eigenvalues --    0.20123   0.25612   0.32633   0.33944   0.34521

 Mulliken charges:
               1
     1  C   -0.089059
     2  C    0.001501
     3  N   -0.206510
     4  H    0.099989
     5  H    0.096385
     6  H    0.097693
 Sum of Mulliken charges =   0.00000

 Dipole moment (field-independent basis, Debye):
    X=              4.1167    Y=              0.0164    Z=             -0.0031  Tot=              4.1168
 Quadrupole moment (field-independent basis, Debye-Ang):
   XX=            -21.0251   YY=            -17.8039   ZZ=            -17.7777
   XY=             -0.0699   XZ=              0.0184   YZ=             -0.0075

 Normal termination of Gaussian 09 at Wed Aug 26 21:40:36 2020.
