 Gaussian 09, Revision D.01,
 Gaussian 09:  ES64L-G09RevD.01 24-Apr-2013

 --------------------
 #p B2PLYPD3/Def2QZVP
 --------------------

 ------------
 cyanomethane
 ------------
 Symbolic Z-matrix:
 Charge =  0 Multiplicity = 1

                         Standard orientation:
 ---------------------------------------------------------------------
 Center     Atomic      Atomic             Coordinates (Angstroms)
 Number     Number       Type             X           Y           Z
 ---------------------------------------------------------------------
      1          6           0        1.175150    0.004394   -0.002893
      2          6           0       -0.277750   -0.000089   -0.014533
      3          7           0       -1.435426   -0.000109    0.004950
      4          1           0        1.570457    0.981008   -0.261563
      5          1           0        1.579984   -0.755959   -0.671294
      6          1           0        1.513139   -0.250112    1.002763
 ---------------------------------------------------------------------

 SCF Done:  E(RB2PLYPD3) =  -132.535303983     A.U. after   12 cycles
 E2(B2PLYPD3) =    -0.1807481161D+00 E(B2PLYPD3) =    -0.13271605209902D+03

 The electronic state is 1-A.
 Alpha  occ. eigenvalues --  -14.84297 -10.67066 -10.66360  -1.04005  -0.89308
 Alpha  occ. eigenvalues --   -0.59951  -0.54222  -0.53561  -0.44824  -0.39048
 Alpha  occ. eigenvalues --   -0.38894
 Alpha virt. eigenvalues --    0.03762   0.07795   0.07844   0.10172   0.11349
 Alpha virt. eigenvalues --    0.11558   0.15438   0.16128   0.16637   0.20078
 Alpha virt. eigenvalues --    0.20138   0.25427   0.32731   0.34369   0.34947

 Mulliken charges:
               1
     1  C   -0.080949
     2  C   -0.000225
     3  N   -0.207696
     4  H    0.097859
     5  H    0.095675
     6  H    0.095337
 Sum of Mulliken charges =   0.00000

 Dipole moment (field-independent basis, Debye):
    X=              4.1358    Y=             -0.0088    Z=              0.0101  Tot=              4.1358
 Quadrupole moment (field-independent basis, Debye-Ang):
   XX=            -20.9600   YY=            -17.7052   ZZ=            -17.8367
   XY=             -0.0181   XZ=              0.0175   YZ=             -0.0036

 Normal termination of Gaussian 09 at Wed Aug 26 23:56:39 2020.
