 Gaussian 09, Revision D.01,
 Gaussian 09:  ES64L-G09RevD.01 24-Apr-2013

 --------------------
 #p B2PLYPD3/Def2QZVP
 --------------------

 ------------
 cyanomethane
 ------------
 Symbolic Z-matrix:
 Charge =  0 Multiplicity = 1

                         Standard orientation:
 ---------------------------------------------------------------------
 Center     Atomic      Atomic             Coordinates (Angstroms)
 Number     Number       Type             X           Y           Z
 ---------------------------------------------------------------------
      1          6           0       -1.184438    0.004095    0.001178
      2          6           0        0.274179   -0.019767    0.000180
      3          7           0        1.438923    0.010607   -0.000707
      4          1           0       -1.529005   -0.138662    1.011033
      5          1           0       -1.533628   -0.814602   -0.630512
      6          1           0       -1.548268    0.973046   -0.383722
 ---------------------------------------------------------------------

 SCF Done:  E(RB2PLYPD3) =  -132.534137483     A.U. after   12 cycles
 E2(B2PLYPD3) =    -0.1813923598D+00 E(B2PLYPD3) =    -0.13271552984237D+03

 The electronic state is 1-A.
 Alpha  occ. eigenvalues --  -14.84429 -10.67248 -10.66509  -1.03652  -0.89269
 Alpha  occ. eigenvalues --   -0.59369  -0.54282  -0.53954  -0.44754  -0.38780
 Alpha  occ. eigenvalues --   -0.38763
 Alpha virt. eigenvalues --    0.03719   0.07629   0.07967   0.10155   0.11284
 Alpha virt. eigenvalues --    0.11344   0.15319   0.15890   0.16336   0.20132
 Alpha virt. eigenvalues --    0.20156   0.25307   0.32565   0.34439   0.34605

 Mulliken charges:
               1
     1  C   -0.089726
     2  C   -0.000685
     3  N   -0.211662
     4  H    0.100914
     5  H    0.100380
     6  H    0.100780
 Sum of Mulliken charges =   0.00000

 Dipole moment (field-independent basis, Debye):
    X=             -4.1374    Y=             -0.0181    Z=              0.0090  Tot=              4.1374
 Quadrupole moment (field-independent basis, Debye-Ang):
   XX=            -21.1369   YY=            -17.7216   ZZ=            -17.7803
   XY=             -0.0588   XZ=             -0.0070   YZ=              0.0028

 Normal termination of Gaussian 09 at Wed Aug 26 23:56:10 2020.
