 Gaussian 09, Revision D.01,
 Gaussian 09:  ES64L-G09RevD.01 24-Apr-2013

 --------------------
 #p B2PLYPD3/Def2QZVP
 --------------------

 ------------
 cyanomethane
 ------------
 Symbolic Z-matrix:
 Charge =  0 Multiplicity = 1

                         Standard orientation:
 ---------------------------------------------------------------------
 Center     Atomic      Atomic             Coordinates (Angstroms)
 Number     Number       Type             X           Y           Z
 ---------------------------------------------------------------------
      1          6           0        1.182009    0.013007    0.010473
      2          6           0       -0.280557    0.012577   -0.008981
      3          7           0       -1.439603   -0.006461    0.005080
      4          1           0        1.568368   -0.384011    0.905323
      5          1           0        1.574045    0.944602   -0.178232
      6          1           0        1.526090   -0.668872   -0.771601
 ---------------------------------------------------------------------

 SCF Done:  E(RB2PLYPD3) =  -132.531951759     A.U. after   12 cycles
 E2(B2PLYPD3) =    -0.1805379999D+00 E(B2PLYPD3) =    -0.13271248975869D+03

 The electronic state is 1-A.
 Alpha  occ. eigenvalues --  -14.84371 -10.66471 -10.66209  -1.03947  -0.89873
 Alpha  occ. eigenvalues --   -0.60442  -0.55448  -0.53422  -0.44845  -0.39222
 Alpha  occ. eigenvalues --   -0.38895
 Alpha virt. eigenvalues --    0.03867   0.07970   0.08340   0.10190   0.11130
 Alpha virt. eigenvalues --    0.11540   0.15452   0.16075   0.16915   0.20069
 Alpha virt. eigenvalues --    0.20169   0.25245   0.32792   0.34359   0.35815

 Mulliken charges:
               1
     1  C   -0.067264
     2  C    0.000598
     3  N   -0.208928
     4  H    0.092378
     5  H    0.095481
     6  H    0.087736
 Sum of Mulliken charges =   0.00000

 Dipole moment (field-independent basis, Debye):
    X=              4.1565    Y=             -0.0093    Z=             -0.0129  Tot=              4.1565
 Quadrupole moment (field-independent basis, Debye-Ang):
   XX=            -20.8068   YY=            -17.7058   ZZ=            -17.8335
   XY=             -0.0564   XZ=              0.0356   YZ=             -0.0524

 Normal termination of Gaussian 09 at Wed Aug 26 13:01:15 2020.
