 Gaussian 09, Revision D.01,
 Gaussian 09:  ES64L-G09RevD.01 24-Apr-2013

 --------------------
 #p B2PLYPD3/Def2QZVP
 --------------------

 ------------
 cyanomethane
 ------------
 Symbolic Z-matrix:
 Charge =  0 Multiplicity = 1

                         Standard orientation:
 ---------------------------------------------------------------------
 Center     Atomic      Atomic             Coordinates (Angstroms)
 Number     Number       Type             X           Y           Z
 ---------------------------------------------------------------------
      1          6           0        1.214236   -0.023906   -0.008304
      2          6           0       -0.303768    0.062782   -0.040883
      3          7           0       -1.426495   -0.021224    0.022935
      4          1           0        1.409260   -0.782318   -0.666656
      5          1           0        1.482425   -0.278296    1.025230
      6          1           0        1.630975    0.975925   -0.223995
 ---------------------------------------------------------------------

 SCF Done:  E(RB2PLYPD3) =  -132.527707507     A.U. after   12 cycles
 E2(B2PLYPD3) =    -0.1782381476D+00 E(B2PLYPD3) =    -0.13270594565415D+03

 The electronic state is 1-A.
 Alpha  occ. eigenvalues --  -14.83251 -10.67310 -10.65369  -1.04956  -0.88670
 Alpha  occ. eigenvalues --   -0.57336  -0.56082  -0.53036  -0.44365  -0.40003
 Alpha  occ. eigenvalues --   -0.39691
 Alpha virt. eigenvalues --    0.03694   0.08485   0.09393   0.10292   0.11304
 Alpha virt. eigenvalues --    0.11530   0.14881   0.15999   0.16079   0.19876
 Alpha virt. eigenvalues --    0.20013   0.24490   0.32309   0.33999   0.35813

 Mulliken charges:
               1
     1  C   -0.104382
     2  C   -0.016362
     3  N   -0.191506
     4  H    0.112360
     5  H    0.100194
     6  H    0.099696
 Sum of Mulliken charges =   0.00000

 Dipole moment (field-independent basis, Debye):
    X=              4.0875    Y=              0.0275    Z=             -0.0099  Tot=              4.0876
 Quadrupole moment (field-independent basis, Debye-Ang):
   XX=            -21.2776   YY=            -17.5084   ZZ=            -17.6746
   XY=              0.0345   XZ=              0.2150   YZ=              0.1115

 Normal termination of Gaussian 09 at Wed Aug 26 22:24:39 2020.
