 Gaussian 09, Revision D.01,
 Gaussian 09:  ES64L-G09RevD.01 24-Apr-2013

 --------------------
 #p B2PLYPD3/Def2QZVP
 --------------------

 ------------
 cyanomethane
 ------------
 Symbolic Z-matrix:
 Charge =  0 Multiplicity = 1

                         Standard orientation:
 ---------------------------------------------------------------------
 Center     Atomic      Atomic             Coordinates (Angstroms)
 Number     Number       Type             X           Y           Z
 ---------------------------------------------------------------------
      1          6           0       -1.176290    0.007016   -0.001934
      2          6           0        0.282791   -0.020232    0.004621
      3          7           0        1.430058    0.010532   -0.005494
      4          1           0       -1.561019    1.022118   -0.054595
      5          1           0       -1.505860   -0.453433    0.913268
      6          1           0       -1.582538   -0.563115   -0.836340
 ---------------------------------------------------------------------

 SCF Done:  E(RB2PLYPD3) =  -132.535837039     A.U. after   12 cycles
 E2(B2PLYPD3) =    -0.1798236861D+00 E(B2PLYPD3) =    -0.13271566072502D+03

 The electronic state is 1-A.
 Alpha  occ. eigenvalues --  -14.83997 -10.66943 -10.66050  -1.04386  -0.89280
 Alpha  occ. eigenvalues --   -0.59733  -0.54157  -0.53790  -0.44762  -0.39272
 Alpha  occ. eigenvalues --   -0.39214
 Alpha virt. eigenvalues --    0.03785   0.07915   0.08308   0.10189   0.11513
 Alpha virt. eigenvalues --    0.11532   0.15434   0.16018   0.16812   0.20052
 Alpha virt. eigenvalues --    0.20076   0.25357   0.32857   0.34641   0.34858

 Mulliken charges:
               1
     1  C   -0.082533
     2  C   -0.002706
     3  N   -0.202785
     4  H    0.097050
     5  H    0.096306
     6  H    0.094668
 Sum of Mulliken charges =   0.00000

 Dipole moment (field-independent basis, Debye):
    X=             -4.1184    Y=             -0.0221    Z=              0.0163  Tot=              4.1185
 Quadrupole moment (field-independent basis, Debye-Ang):
   XX=            -20.9657   YY=            -17.7043   ZZ=            -17.7509
   XY=             -0.0544   XZ=              0.0694   YZ=             -0.0096

 Normal termination of Gaussian 09 at Thu Aug 27 00:14:02 2020.
