 Gaussian 09, Revision D.01,
 Gaussian 09:  ES64L-G09RevD.01 24-Apr-2013

 --------------------
 #p B2PLYPD3/Def2QZVP
 --------------------

 ------------
 cyanomethane
 ------------
 Symbolic Z-matrix:
 Charge =  0 Multiplicity = 1

                         Standard orientation:
 ---------------------------------------------------------------------
 Center     Atomic      Atomic             Coordinates (Angstroms)
 Number     Number       Type             X           Y           Z
 ---------------------------------------------------------------------
      1          6           0       -1.169462   -0.009221    0.013399
      2          6           0        0.283344    0.059492   -0.005042
      3          7           0        1.449659   -0.029689   -0.005319
      4          1           0       -1.629207    0.974076   -0.097908
      5          1           0       -1.523161   -0.450952    0.899199
      6          1           0       -1.678543   -0.616922   -0.814205
 ---------------------------------------------------------------------

 SCF Done:  E(RB2PLYPD3) =  -132.527737386     A.U. after   12 cycles
 E2(B2PLYPD3) =    -0.1822112772D+00 E(B2PLYPD3) =    -0.13270994866277D+03

 The electronic state is 1-A.
 Alpha  occ. eigenvalues --  -14.84939 -10.67260 -10.67020  -1.03730  -0.89034
 Alpha  occ. eigenvalues --   -0.61084  -0.54320  -0.51771  -0.45150  -0.38968
 Alpha  occ. eigenvalues --   -0.38671
 Alpha virt. eigenvalues --    0.03498   0.06737   0.07613   0.10051   0.11217
 Alpha virt. eigenvalues --    0.11630   0.15508   0.16417   0.17253   0.19993
 Alpha virt. eigenvalues --    0.20299   0.25630   0.32400   0.33897   0.35281

 Mulliken charges:
               1
     1  C   -0.064571
     2  C    0.008431
     3  N   -0.210324
     4  H    0.087619
     5  H    0.095306
     6  H    0.083539
 Sum of Mulliken charges =   0.00000

 Dipole moment (field-independent basis, Debye):
    X=             -4.1519    Y=              0.0345    Z=              0.0245  Tot=              4.1521
 Quadrupole moment (field-independent basis, Debye-Ang):
   XX=            -20.5817   YY=            -17.9287   ZZ=            -17.9881
   XY=              0.1631   XZ=              0.1098   YZ=             -0.0896

 Normal termination of Gaussian 09 at Wed Aug 26 22:26:26 2020.
