 Gaussian 09, Revision D.01,
 Gaussian 09:  ES64L-G09RevD.01 24-Apr-2013

 --------------------
 #p B2PLYPD3/Def2QZVP
 --------------------

 ------------
 cyanomethane
 ------------
 Symbolic Z-matrix:
 Charge =  0 Multiplicity = 1

                         Standard orientation:
 ---------------------------------------------------------------------
 Center     Atomic      Atomic             Coordinates (Angstroms)
 Number     Number       Type             X           Y           Z
 ---------------------------------------------------------------------
      1          6           0        1.173492    0.009276   -0.004006
      2          6           0       -0.284288   -0.022891    0.014745
      3          7           0       -1.440896    0.006296   -0.003104
      4          1           0        1.645628   -0.027929    0.991836
      5          1           0        1.499171    0.935632   -0.481833
      6          1           0        1.606246   -0.870085   -0.552710
 ---------------------------------------------------------------------

 SCF Done:  E(RB2PLYPD3) =  -132.533347542     A.U. after   12 cycles
 E2(B2PLYPD3) =    -0.1810027084D+00 E(B2PLYPD3) =    -0.13271435025039D+03

 The electronic state is 1-A.
 Alpha  occ. eigenvalues --  -14.84409 -10.67619 -10.66510  -1.04100  -0.88754
 Alpha  occ. eigenvalues --   -0.60181  -0.53779  -0.52561  -0.44930  -0.39080
 Alpha  occ. eigenvalues --   -0.38983
 Alpha virt. eigenvalues --    0.03652   0.07351   0.07663   0.10186   0.11456
 Alpha virt. eigenvalues --    0.11570   0.15340   0.16504   0.16705   0.20043
 Alpha virt. eigenvalues --    0.20120   0.25394   0.32463   0.34253   0.34660

 Mulliken charges:
               1
     1  C   -0.080026
     2  C    0.002769
     3  N   -0.205955
     4  H    0.091677
     5  H    0.098946
     6  H    0.092588
 Sum of Mulliken charges =   0.00000

 Dipole moment (field-independent basis, Debye):
    X=              4.1371    Y=             -0.0022    Z=              0.0127  Tot=              4.1371
 Quadrupole moment (field-independent basis, Debye-Ang):
   XX=            -20.8356   YY=            -17.7583   ZZ=            -17.9466
   XY=             -0.0371   XZ=              0.0758   YZ=             -0.0305

 Normal termination of Gaussian 09 at Wed Aug 26 15:58:29 2020.
