 Gaussian 09, Revision D.01,
 Gaussian 09:  ES64L-G09RevD.01 24-Apr-2013

 --------------------
 #p B2PLYPD3/Def2QZVP
 --------------------

 ------------
 cyanomethane
 ------------
 Symbolic Z-matrix:
 Charge =  0 Multiplicity = 1

                         Standard orientation:
 ---------------------------------------------------------------------
 Center     Atomic      Atomic             Coordinates (Angstroms)
 Number     Number       Type             X           Y           Z
 ---------------------------------------------------------------------
      1          6           0        1.176084   -0.000289   -0.004748
      2          6           0       -0.273031    0.013663   -0.008643
      3          7           0       -1.429352   -0.009551    0.007000
      4          1           0        1.566402   -0.340737    0.950358
      5          1           0        1.491006    0.985324   -0.170204
      6          1           0        1.529742   -0.657975   -0.748807
 ---------------------------------------------------------------------

 SCF Done:  E(RB2PLYPD3) =  -132.533723118     A.U. after   11 cycles
 E2(B2PLYPD3) =    -0.1803105729D+00 E(B2PLYPD3) =    -0.13271403369070D+03

 The electronic state is 1-A.
 Alpha  occ. eigenvalues --  -14.84168 -10.66243 -10.66174  -1.04020  -0.90053
 Alpha  occ. eigenvalues --   -0.59928  -0.55449  -0.54002  -0.44740  -0.39058
 Alpha  occ. eigenvalues --   -0.38931
 Alpha virt. eigenvalues --    0.03877   0.07927   0.08510   0.10173   0.11288
 Alpha virt. eigenvalues --    0.11511   0.15495   0.16002   0.16506   0.20090
 Alpha virt. eigenvalues --    0.20161   0.25490   0.32980   0.34719   0.35298

 Mulliken charges:
               1
     1  C   -0.077402
     2  C   -0.002388
     3  N   -0.208690
     4  H    0.092895
     5  H    0.098381
     6  H    0.097205
 Sum of Mulliken charges =   0.00000

 Dipole moment (field-independent basis, Debye):
    X=              4.1325    Y=              0.0130    Z=             -0.0084  Tot=              4.1325
 Quadrupole moment (field-independent basis, Debye-Ang):
   XX=            -20.9946   YY=            -17.6419   ZZ=            -17.7515
   XY=             -0.0977   XZ=              0.0789   YZ=              0.0208

 Normal termination of Gaussian 09 at Wed Aug 26 22:34:25 2020.
