 Gaussian 09, Revision D.01,
 Gaussian 09:  ES64L-G09RevD.01 24-Apr-2013

 --------------------
 #p B2PLYPD3/Def2QZVP
 --------------------

 ------------
 cyanomethane
 ------------
 Symbolic Z-matrix:
 Charge =  0 Multiplicity = 1

                         Standard orientation:
 ---------------------------------------------------------------------
 Center     Atomic      Atomic             Coordinates (Angstroms)
 Number     Number       Type             X           Y           Z
 ---------------------------------------------------------------------
      1          6           0       -1.166744    0.023943    0.017999
      2          6           0        0.295169   -0.005505   -0.064987
      3          7           0        1.425567   -0.002302    0.032219
      4          1           0       -1.553399    1.106696    0.031588
      5          1           0       -1.593431   -0.614146    0.908509
      6          1           0       -1.602687   -0.587061   -0.883700
 ---------------------------------------------------------------------

 SCF Done:  E(RB2PLYPD3) =  -132.521354841     A.U. after   12 cycles
 E2(B2PLYPD3) =    -0.1801557919D+00 E(B2PLYPD3) =    -0.13270151063302D+03

 The electronic state is 1-A.
 Alpha  occ. eigenvalues --  -14.83780 -10.69340 -10.65825  -1.05016  -0.87333
 Alpha  occ. eigenvalues --   -0.58769  -0.53334  -0.50697  -0.44837  -0.39671
 Alpha  occ. eigenvalues --   -0.39055
 Alpha virt. eigenvalues --    0.03182   0.06835   0.07482   0.10112   0.11617
 Alpha virt. eigenvalues --    0.12089   0.15204   0.15855   0.17414   0.19852
 Alpha virt. eigenvalues --    0.20051   0.25568   0.31961   0.32723   0.34120

 Mulliken charges:
               1
     1  C   -0.108725
     2  C    0.002535
     3  N   -0.191583
     4  H    0.108378
     5  H    0.098077
     6  H    0.091317
 Sum of Mulliken charges =   0.00000

 Dipole moment (field-independent basis, Debye):
    X=             -4.0453    Y=             -0.0341    Z=             -0.0522  Tot=              4.0458
 Quadrupole moment (field-independent basis, Debye-Ang):
   XX=            -21.1283   YY=            -17.4875   ZZ=            -18.1111
   XY=              0.1633   XZ=             -0.1906   YZ=             -0.0143

 Normal termination of Gaussian 09 at Wed Aug 26 22:54:22 2020.
