 Gaussian 09, Revision D.01,
 Gaussian 09:  ES64L-G09RevD.01 24-Apr-2013

 --------------------
 #p B2PLYPD3/Def2QZVP
 --------------------

 ------------
 cyanomethane
 ------------
 Symbolic Z-matrix:
 Charge =  0 Multiplicity = 1

                         Standard orientation:
 ---------------------------------------------------------------------
 Center     Atomic      Atomic             Coordinates (Angstroms)
 Number     Number       Type             X           Y           Z
 ---------------------------------------------------------------------
      1          6           0        1.182307    0.026817    0.009653
      2          6           0       -0.272362   -0.004693   -0.079464
      3          7           0       -1.456539   -0.004970    0.035862
      4          1           0        1.525103    1.093081    0.023337
      5          1           0        1.659961   -0.627017   -0.848330
      6          1           0        1.551033   -0.564017    0.992825
 ---------------------------------------------------------------------

 SCF Done:  E(RB2PLYPD3) =  -132.514266609     A.U. after   12 cycles
 E2(B2PLYPD3) =    -0.1850455739D+00 E(B2PLYPD3) =    -0.13269931218335D+03

 The electronic state is 1-A.
 Alpha  occ. eigenvalues --  -14.85329 -10.69556 -10.67442  -1.02816  -0.87697
 Alpha  occ. eigenvalues --   -0.58998  -0.53873  -0.50643  -0.45010  -0.38344
 Alpha  occ. eigenvalues --   -0.37803
 Alpha virt. eigenvalues --    0.02921   0.05783   0.06705   0.10012   0.10874
 Alpha virt. eigenvalues --    0.11510   0.15074   0.15787   0.16523   0.20074
 Alpha virt. eigenvalues --    0.20244   0.25594   0.31333   0.32128   0.34328

 Mulliken charges:
               1
     1  C   -0.108298
     2  C    0.012152
     3  N   -0.217422
     4  H    0.114810
     5  H    0.098034
     6  H    0.100726
 Sum of Mulliken charges =   0.00000

 Dipole moment (field-independent basis, Debye):
    X=              4.1222    Y=             -0.0114    Z=             -0.0247  Tot=              4.1223
 Quadrupole moment (field-independent basis, Debye-Ang):
   XX=            -21.2529   YY=            -17.7069   ZZ=            -18.1976
   XY=             -0.1728   XZ=              0.1457   YZ=              0.0155

 Normal termination of Gaussian 09 at Wed Aug 26 23:51:39 2020.
