 Gaussian 09, Revision D.01,
 Gaussian 09:  ES64L-G09RevD.01 24-Apr-2013

 --------------------
 #p B2PLYPD3/Def2QZVP
 --------------------

 ------------
 cyanomethane
 ------------
 Symbolic Z-matrix:
 Charge =  0 Multiplicity = 1

                         Standard orientation:
 ---------------------------------------------------------------------
 Center     Atomic      Atomic             Coordinates (Angstroms)
 Number     Number       Type             X           Y           Z
 ---------------------------------------------------------------------
      1          6           0        1.179753    0.017751   -0.007626
      2          6           0       -0.272722    0.002700   -0.035109
      3          7           0       -1.443995   -0.005363    0.014884
      4          1           0        1.533942    1.044715   -0.032550
      5          1           0        1.619363   -0.646081   -0.772337
      6          1           0        1.512474   -0.483798    0.957109
 ---------------------------------------------------------------------

 SCF Done:  E(RB2PLYPD3) =  -132.529954856     A.U. after   12 cycles
 E2(B2PLYPD3) =    -0.1823988338D+00 E(B2PLYPD3) =    -0.13271235368944D+03

 The electronic state is 1-A.
 Alpha  occ. eigenvalues --  -14.84698 -10.67769 -10.66804  -1.03423  -0.88960
 Alpha  occ. eigenvalues --   -0.59713  -0.54990  -0.52110  -0.44860  -0.38780
 Alpha  occ. eigenvalues --   -0.38304
 Alpha virt. eigenvalues --    0.03561   0.07062   0.07566   0.10131   0.11002
 Alpha virt. eigenvalues --    0.11671   0.15275   0.15812   0.16725   0.20061
 Alpha virt. eigenvalues --    0.20257   0.25435   0.32363   0.33234   0.35188

 Mulliken charges:
               1
     1  C   -0.088576
     2  C    0.003484
     3  N   -0.213937
     4  H    0.106840
     5  H    0.097948
     6  H    0.094241
 Sum of Mulliken charges =   0.00000

 Dipole moment (field-independent basis, Debye):
    X=              4.1503    Y=             -0.0258    Z=              0.0057  Tot=              4.1504
 Quadrupole moment (field-independent basis, Debye-Ang):
   XX=            -21.0789   YY=            -17.5959   ZZ=            -18.0685
   XY=             -0.1555   XZ=              0.0712   YZ=              0.0291

 Normal termination of Gaussian 09 at Wed Aug 26 10:03:06 2020.
