 Gaussian 09, Revision D.01,
 Gaussian 09:  ES64L-G09RevD.01 24-Apr-2013

 --------------------
 #p B2PLYPD3/Def2QZVP
 --------------------

 ------------
 cyanomethane
 ------------
 Symbolic Z-matrix:
 Charge =  0 Multiplicity = 1

                         Standard orientation:
 ---------------------------------------------------------------------
 Center     Atomic      Atomic             Coordinates (Angstroms)
 Number     Number       Type             X           Y           Z
 ---------------------------------------------------------------------
      1          6           0        1.162315   -0.017874    0.006283
      2          6           0       -0.282206    0.016574   -0.032553
      3          7           0       -1.432261   -0.009324    0.020410
      4          1           0        1.642677   -0.184638    0.989770
      5          1           0        1.529910    1.000866   -0.307685
      6          1           0        1.572591   -0.743166   -0.667339
 ---------------------------------------------------------------------

 SCF Done:  E(RB2PLYPD3) =  -132.531969979     A.U. after   12 cycles
 E2(B2PLYPD3) =    -0.1805797441D+00 E(B2PLYPD3) =    -0.13271254972343D+03

 The electronic state is 1-A.
 Alpha  occ. eigenvalues --  -14.84262 -10.67317 -10.66299  -1.04374  -0.89049
 Alpha  occ. eigenvalues --   -0.60658  -0.53947  -0.52416  -0.44958  -0.39255
 Alpha  occ. eigenvalues --   -0.38940
 Alpha virt. eigenvalues --    0.03651   0.07193   0.07919   0.10060   0.11482
 Alpha virt. eigenvalues --    0.11792   0.15567   0.15989   0.17461   0.20025
 Alpha virt. eigenvalues --    0.20201   0.25721   0.32771   0.33854   0.35042

 Mulliken charges:
               1
     1  C   -0.077052
     2  C    0.003973
     3  N   -0.203413
     4  H    0.092223
     5  H    0.088382
     6  H    0.095888
 Sum of Mulliken charges =   0.00000

 Dipole moment (field-independent basis, Debye):
    X=              4.1180    Y=              0.0207    Z=             -0.0306  Tot=              4.1182
 Quadrupole moment (field-independent basis, Debye-Ang):
   XX=            -20.7784   YY=            -17.7981   ZZ=            -17.8690
   XY=             -0.0753   XZ=              0.1812   YZ=              0.0581

 Normal termination of Gaussian 09 at Wed Aug 26 13:48:00 2020.
