 Gaussian 09, Revision D.01,
 Gaussian 09:  ES64L-G09RevD.01 24-Apr-2013

 --------------------
 #p B2PLYPD3/Def2QZVP
 --------------------

 ------------
 cyanomethane
 ------------
 Symbolic Z-matrix:
 Charge =  0 Multiplicity = 1

                         Standard orientation:
 ---------------------------------------------------------------------
 Center     Atomic      Atomic             Coordinates (Angstroms)
 Number     Number       Type             X           Y           Z
 ---------------------------------------------------------------------
      1          6           0        1.181830   -0.002984   -0.018174
      2          6           0       -0.273512    0.016729   -0.041140
      3          7           0       -1.417423   -0.017331    0.037224
      4          1           0        1.706468   -0.323952    0.993613
      5          1           0        1.341999    1.066569   -0.170579
      6          1           0        1.423586   -0.703763   -0.727712
 ---------------------------------------------------------------------

 SCF Done:  E(RB2PLYPD3) =  -132.516996159     A.U. after   13 cycles
 E2(B2PLYPD3) =    -0.1804766879D+00 E(B2PLYPD3) =    -0.13269747284722D+03

 The electronic state is 1-A.
 Alpha  occ. eigenvalues --  -14.83777 -10.67433 -10.65818  -1.04365  -0.89614
 Alpha  occ. eigenvalues --   -0.58870  -0.56555  -0.51490  -0.44548  -0.39249
 Alpha  occ. eigenvalues --   -0.38661
 Alpha virt. eigenvalues --    0.03359   0.06907   0.09216   0.10178   0.11390
 Alpha virt. eigenvalues --    0.11795   0.14834   0.15368   0.16990   0.20075
 Alpha virt. eigenvalues --    0.20175   0.25385   0.32064   0.33264   0.35388

 Mulliken charges:
               1
     1  C   -0.109811
     2  C   -0.003146
     3  N   -0.204573
     4  H    0.092355
     5  H    0.112151
     6  H    0.113025
 Sum of Mulliken charges =   0.00000

 Dipole moment (field-independent basis, Debye):
    X=              4.0507    Y=              0.0252    Z=             -0.0537  Tot=              4.0512
 Quadrupole moment (field-independent basis, Debye-Ang):
   XX=            -21.4090   YY=            -17.4251   ZZ=            -17.8767
   XY=             -0.2767   XZ=              0.4584   YZ=              0.1309

 Normal termination of Gaussian 09 at Wed Aug 26 20:12:20 2020.
