 Gaussian 09, Revision D.01,
 Gaussian 09:  ES64L-G09RevD.01 24-Apr-2013

 --------------------
 #p B2PLYPD3/Def2QZVP
 --------------------

 ------------
 cyanomethane
 ------------
 Symbolic Z-matrix:
 Charge =  0 Multiplicity = 1

                         Standard orientation:
 ---------------------------------------------------------------------
 Center     Atomic      Atomic             Coordinates (Angstroms)
 Number     Number       Type             X           Y           Z
 ---------------------------------------------------------------------
      1          6           0        1.175088   -0.017085   -0.013960
      2          6           0       -0.275371    0.055062    0.006533
      3          7           0       -1.450625   -0.028222   -0.007686
      4          1           0        1.586103    1.015014   -0.169619
      5          1           0        1.660647   -0.709236   -0.689068
      6          1           0        1.509324   -0.336087    0.957056
 ---------------------------------------------------------------------

 SCF Done:  E(RB2PLYPD3) =  -132.528014863     A.U. after   13 cycles
 E2(B2PLYPD3) =    -0.1829031393D+00 E(B2PLYPD3) =    -0.13271091800225D+03

 The electronic state is 1-A.
 Alpha  occ. eigenvalues --  -14.85053 -10.67238 -10.67152  -1.03324  -0.89220
 Alpha  occ. eigenvalues --   -0.60948  -0.53452  -0.53176  -0.45069  -0.38617
 Alpha  occ. eigenvalues --   -0.38467
 Alpha virt. eigenvalues --    0.03623   0.06759   0.07469   0.09916   0.11215
 Alpha virt. eigenvalues --    0.11512   0.15454   0.15744   0.17474   0.20115
 Alpha virt. eigenvalues --    0.20379   0.25672   0.32336   0.34244   0.34804

 Mulliken charges:
               1
     1  C   -0.072854
     2  C    0.009033
     3  N   -0.215138
     4  H    0.091041
     5  H    0.095712
     6  H    0.092205
 Sum of Mulliken charges =   0.00000

 Dipole moment (field-independent basis, Debye):
    X=              4.1610    Y=              0.0075    Z=              0.0527  Tot=              4.1613
 Quadrupole moment (field-independent basis, Debye-Ang):
   XX=            -20.7656   YY=            -17.7756   ZZ=            -18.0665
   XY=             -0.2286   XZ=             -0.0306   YZ=              0.0091

 Normal termination of Gaussian 09 at Wed Aug 26 22:22:20 2020.
