 Gaussian 09, Revision D.01,
 Gaussian 09:  ES64L-G09RevD.01 24-Apr-2013

 --------------------
 #p B2PLYPD3/Def2QZVP
 --------------------

 ------------
 cyanomethane
 ------------
 Symbolic Z-matrix:
 Charge =  0 Multiplicity = 1

                         Standard orientation:
 ---------------------------------------------------------------------
 Center     Atomic      Atomic             Coordinates (Angstroms)
 Number     Number       Type             X           Y           Z
 ---------------------------------------------------------------------
      1          6           0        1.175098    0.007545    0.005502
      2          6           0       -0.279355   -0.012961   -0.012883
      3          7           0       -1.438495    0.007832    0.006802
      4          1           0        1.587074    1.007282   -0.246269
      5          1           0        1.541616   -0.728903   -0.746140
      6          1           0        1.566319   -0.300708    0.989082
 ---------------------------------------------------------------------

 SCF Done:  E(RB2PLYPD3) =  -132.533799725     A.U. after   12 cycles
 E2(B2PLYPD3) =    -0.1811917312D+00 E(B2PLYPD3) =    -0.13271499145581D+03

 The electronic state is 1-A.
 Alpha  occ. eigenvalues --  -14.84389 -10.67701 -10.66465  -1.03956  -0.88817
 Alpha  occ. eigenvalues --   -0.59768  -0.53498  -0.53262  -0.44862  -0.38962
 Alpha  occ. eigenvalues --   -0.38852
 Alpha virt. eigenvalues --    0.03642   0.07423   0.07622   0.10135   0.11451
 Alpha virt. eigenvalues --    0.11506   0.15391   0.16009   0.16767   0.20092
 Alpha virt. eigenvalues --    0.20124   0.25423   0.32535   0.34079   0.34558

 Mulliken charges:
               1
     1  C   -0.087532
     2  C    0.001410
     3  N   -0.207505
     4  H    0.098983
     5  H    0.096301
     6  H    0.098343
 Sum of Mulliken charges =   0.00000

 Dipole moment (field-independent basis, Debye):
    X=              4.1290    Y=             -0.0201    Z=             -0.0079  Tot=              4.1291
 Quadrupole moment (field-independent basis, Debye-Ang):
   XX=            -21.0027   YY=            -17.7789   ZZ=            -17.8356
   XY=              0.0516   XZ=              0.0514   YZ=             -0.0150

 Normal termination of Gaussian 09 at Wed Aug 26 20:27:19 2020.
