 Gaussian 09, Revision D.01,
 Gaussian 09:  ES64L-G09RevD.01 24-Apr-2013

 --------------------
 #p B2PLYPD3/Def2QZVP
 --------------------

 ------------
 cyanomethane
 ------------
 Symbolic Z-matrix:
 Charge =  0 Multiplicity = 1

                         Standard orientation:
 ---------------------------------------------------------------------
 Center     Atomic      Atomic             Coordinates (Angstroms)
 Number     Number       Type             X           Y           Z
 ---------------------------------------------------------------------
      1          6           0       -1.173239    0.003346   -0.006520
      2          6           0        0.280775   -0.014811    0.017220
      3          7           0        1.428682    0.005599   -0.010313
      4          1           0       -1.584856   -0.722467   -0.719515
      5          1           0       -1.531686    1.006092   -0.264226
      6          1           0       -1.529447   -0.254026    0.991731
 ---------------------------------------------------------------------

 SCF Done:  E(RB2PLYPD3) =  -132.535750949     A.U. after   12 cycles
 E2(B2PLYPD3) =    -0.1800111513D+00 E(B2PLYPD3) =    -0.13271576210068D+03

 The electronic state is 1-A.
 Alpha  occ. eigenvalues --  -14.84005 -10.67218 -10.66044  -1.04364  -0.89135
 Alpha  occ. eigenvalues --   -0.59633  -0.53889  -0.53714  -0.44763  -0.39202
 Alpha  occ. eigenvalues --   -0.39143
 Alpha virt. eigenvalues --    0.03736   0.07811   0.08100   0.10173   0.11554
 Alpha virt. eigenvalues --    0.11575   0.15441   0.16022   0.16721   0.20056
 Alpha virt. eigenvalues --    0.20078   0.25447   0.32828   0.34432   0.34684

 Mulliken charges:
               1
     1  C   -0.086976
     2  C   -0.002075
     3  N   -0.202999
     4  H    0.097109
     5  H    0.098540
     6  H    0.096400
 Sum of Mulliken charges =   0.00000

 Dipole moment (field-independent basis, Debye):
    X=             -4.1113    Y=             -0.0075    Z=              0.0234  Tot=              4.1114
 Quadrupole moment (field-independent basis, Debye-Ang):
   XX=            -21.0210   YY=            -17.7080   ZZ=            -17.7516
   XY=             -0.0010   XZ=              0.0724   YZ=             -0.0006

 Normal termination of Gaussian 09 at Wed Aug 26 13:03:36 2020.
