 Gaussian 09, Revision D.01,
 Gaussian 09:  ES64L-G09RevD.01 24-Apr-2013

 --------------------
 #p B2PLYPD3/Def2QZVP
 --------------------

 ------------
 cyanomethane
 ------------
 Symbolic Z-matrix:
 Charge =  0 Multiplicity = 1

                         Standard orientation:
 ---------------------------------------------------------------------
 Center     Atomic      Atomic             Coordinates (Angstroms)
 Number     Number       Type             X           Y           Z
 ---------------------------------------------------------------------
      1          6           0        1.171931    0.003427    0.005713
      2          6           0       -0.275761   -0.015732   -0.029298
      3          7           0       -1.442956    0.009411    0.016260
      4          1           0        1.591743    1.013147   -0.162245
      5          1           0        1.544694   -0.652063   -0.761023
      6          1           0        1.587235   -0.353130    0.950957
 ---------------------------------------------------------------------

 SCF Done:  E(RB2PLYPD3) =  -132.532872205     A.U. after   12 cycles
 E2(B2PLYPD3) =    -0.1818033878D+00 E(B2PLYPD3) =    -0.13271467559328D+03

 The electronic state is 1-A.
 Alpha  occ. eigenvalues --  -14.84701 -10.67105 -10.66759  -1.03668  -0.89304
 Alpha  occ. eigenvalues --   -0.60518  -0.53940  -0.53282  -0.44973  -0.38765
 Alpha  occ. eigenvalues --   -0.38737
 Alpha virt. eigenvalues --    0.03685   0.07165   0.07736   0.10082   0.11308
 Alpha virt. eigenvalues --    0.11479   0.15500   0.16079   0.16948   0.20093
 Alpha virt. eigenvalues --    0.20213   0.25596   0.32684   0.34584   0.34625

 Mulliken charges:
               1
     1  C   -0.073395
     2  C    0.003642
     3  N   -0.211522
     4  H    0.093879
     5  H    0.094015
     6  H    0.093381
 Sum of Mulliken charges =   0.00000

 Dipole moment (field-independent basis, Debye):
    X=              4.1516    Y=             -0.0257    Z=             -0.0213  Tot=              4.1517
 Quadrupole moment (field-independent basis, Debye-Ang):
   XX=            -20.8266   YY=            -17.8131   ZZ=            -17.8911
   XY=              0.0459   XZ=              0.1148   YZ=              0.0129

 Normal termination of Gaussian 09 at Wed Aug 26 15:46:16 2020.
