 Gaussian 09, Revision D.01,
 Gaussian 09:  ES64L-G09RevD.01 24-Apr-2013

 --------------------
 #p B2PLYPD3/Def2QZVP
 --------------------

 ------------
 cyanomethane
 ------------
 Symbolic Z-matrix:
 Charge =  0 Multiplicity = 1

                         Standard orientation:
 ---------------------------------------------------------------------
 Center     Atomic      Atomic             Coordinates (Angstroms)
 Number     Number       Type             X           Y           Z
 ---------------------------------------------------------------------
      1          6           0       -1.175431    0.001636   -0.025844
      2          6           0        0.285090    0.043900   -0.035271
      3          7           0        1.454081   -0.028588    0.018152
      4          1           0       -1.542194    1.046185    0.124953
      5          1           0       -1.602951   -0.591152    0.904201
      6          1           0       -1.691378   -0.528128   -0.789529
 ---------------------------------------------------------------------

 SCF Done:  E(RB2PLYPD3) =  -132.521674763     A.U. after   12 cycles
 E2(B2PLYPD3) =    -0.1829384918D+00 E(B2PLYPD3) =    -0.13270461325440D+03

 The electronic state is 1-A.
 Alpha  occ. eigenvalues --  -14.85010 -10.68132 -10.67182  -1.03592  -0.88445
 Alpha  occ. eigenvalues --   -0.61089  -0.54129  -0.50630  -0.45136  -0.38966
 Alpha  occ. eigenvalues --   -0.38345
 Alpha virt. eigenvalues --    0.03242   0.06503   0.07367   0.09935   0.11063
 Alpha virt. eigenvalues --    0.11831   0.15285   0.16185   0.17547   0.19976
 Alpha virt. eigenvalues --    0.20362   0.25398   0.32145   0.32611   0.35089

 Mulliken charges:
               1
     1  C   -0.077469
     2  C    0.012005
     3  N   -0.211089
     4  H    0.095692
     5  H    0.081653
     6  H    0.099208
 Sum of Mulliken charges =   0.00000

 Dipole moment (field-independent basis, Debye):
    X=             -4.1520    Y=              0.0045    Z=             -0.0076  Tot=              4.1520
 Quadrupole moment (field-independent basis, Debye-Ang):
   XX=            -20.7077   YY=            -17.7702   ZZ=            -18.2283
   XY=              0.3393   XZ=             -0.1109   YZ=              0.1420

 Normal termination of Gaussian 09 at Wed Aug 26 23:31:43 2020.
