 Gaussian 09, Revision D.01,
 Gaussian 09:  ES64L-G09RevD.01 24-Apr-2013

 --------------------
 #p B2PLYPD3/Def2QZVP
 --------------------

 ------------
 cyanomethane
 ------------
 Symbolic Z-matrix:
 Charge =  0 Multiplicity = 1

                         Standard orientation:
 ---------------------------------------------------------------------
 Center     Atomic      Atomic             Coordinates (Angstroms)
 Number     Number       Type             X           Y           Z
 ---------------------------------------------------------------------
      1          6           0       -1.204576    0.019243    0.016635
      2          6           0        0.296430    0.010707   -0.064052
      3          7           0        1.429897   -0.008872    0.029601
      4          1           0       -1.504044    1.034818   -0.045631
      5          1           0       -1.496984   -0.509491    0.976450
      6          1           0       -1.559376   -0.642919   -0.853522
 ---------------------------------------------------------------------

 SCF Done:  E(RB2PLYPD3) =  -132.528303240     A.U. after   12 cycles
 E2(B2PLYPD3) =    -0.1795289619D+00 E(B2PLYPD3) =    -0.13270783220189D+03

 The electronic state is 1-A.
 Alpha  occ. eigenvalues --  -14.83584 -10.68353 -10.65699  -1.04611  -0.87989
 Alpha  occ. eigenvalues --   -0.57545  -0.55017  -0.52240  -0.44482  -0.39669
 Alpha  occ. eigenvalues --   -0.39261
 Alpha virt. eigenvalues --    0.03456   0.07766   0.08778   0.10205   0.11250
 Alpha virt. eigenvalues --    0.11631   0.14902   0.15634   0.16349   0.19951
 Alpha virt. eigenvalues --    0.20010   0.24776   0.32045   0.33268   0.34946

 Mulliken charges:
               1
     1  C   -0.113725
     2  C   -0.007745
     3  N   -0.196625
     4  H    0.112949
     5  H    0.105893
     6  H    0.099254
 Sum of Mulliken charges =   0.00000

 Dipole moment (field-independent basis, Debye):
    X=             -4.0727    Y=              0.0009    Z=             -0.0360  Tot=              4.0728
 Quadrupole moment (field-independent basis, Debye-Ang):
   XX=            -21.4270   YY=            -17.5203   ZZ=            -17.7750
   XY=              0.1056   XZ=             -0.1466   YZ=             -0.0266

 Normal termination of Gaussian 09 at Wed Aug 26 16:35:55 2020.
