 Gaussian 09, Revision D.01,
 Gaussian 09:  ES64L-G09RevD.01 24-Apr-2013

 --------------------
 #p B2PLYPD3/Def2QZVP
 --------------------

 ------------
 cyanomethane
 ------------
 Symbolic Z-matrix:
 Charge =  0 Multiplicity = 1

                         Standard orientation:
 ---------------------------------------------------------------------
 Center     Atomic      Atomic             Coordinates (Angstroms)
 Number     Number       Type             X           Y           Z
 ---------------------------------------------------------------------
      1          6           0        1.178043   -0.007096   -0.007108
      2          6           0       -0.278798    0.003205   -0.018676
      3          7           0       -1.431668   -0.001450    0.014311
      4          1           0        1.594276   -0.030270    1.022063
      5          1           0        1.511870    0.937926   -0.449560
      6          1           0        1.520056   -0.874162   -0.517975
 ---------------------------------------------------------------------

 SCF Done:  E(RB2PLYPD3) =  -132.534035941     A.U. after   11 cycles
 E2(B2PLYPD3) =    -0.1803970239D+00 E(B2PLYPD3) =    -0.13271443296523D+03

 The electronic state is 1-A.
 Alpha  occ. eigenvalues --  -14.84121 -10.67128 -10.66173  -1.04145  -0.89274
 Alpha  occ. eigenvalues --   -0.59565  -0.55101  -0.52891  -0.44748  -0.39181
 Alpha  occ. eigenvalues --   -0.38921
 Alpha virt. eigenvalues --    0.03734   0.07601   0.08320   0.10172   0.11284
 Alpha virt. eigenvalues --    0.11661   0.15371   0.16066   0.16532   0.20027
 Alpha virt. eigenvalues --    0.20154   0.25357   0.32744   0.34058   0.35115

 Mulliken charges:
               1
     1  C   -0.086707
     2  C   -0.002031
     3  N   -0.205842
     4  H    0.092910
     5  H    0.099231
     6  H    0.102439
 Sum of Mulliken charges =   0.00000

 Dipole moment (field-independent basis, Debye):
    X=              4.1201    Y=              0.0044    Z=             -0.0058  Tot=              4.1201
 Quadrupole moment (field-independent basis, Debye-Ang):
   XX=            -21.0591   YY=            -17.5924   ZZ=            -17.8700
   XY=             -0.0113   XZ=              0.1863   YZ=              0.0326

 Normal termination of Gaussian 09 at Wed Aug 26 19:19:41 2020.
