 Gaussian 09, Revision D.01,
 Gaussian 09:  ES64L-G09RevD.01 24-Apr-2013

 --------------------
 #p B2PLYPD3/Def2QZVP
 --------------------

 ------------
 cyanomethane
 ------------
 Symbolic Z-matrix:
 Charge =  0 Multiplicity = 1

                         Standard orientation:
 ---------------------------------------------------------------------
 Center     Atomic      Atomic             Coordinates (Angstroms)
 Number     Number       Type             X           Y           Z
 ---------------------------------------------------------------------
      1          6           0        1.181031   -0.001609   -0.008047
      2          6           0       -0.281118    0.008785   -0.016861
      3          7           0       -1.432937   -0.004623    0.013358
      4          1           0        1.595733   -0.109319    0.988920
      5          1           0        1.520305    0.924296   -0.377708
      6          1           0        1.515043   -0.825667   -0.555266
 ---------------------------------------------------------------------

 SCF Done:  E(RB2PLYPD3) =  -132.533290242     A.U. after   11 cycles
 E2(B2PLYPD3) =    -0.1799516193D+00 E(B2PLYPD3) =    -0.13271324186142D+03

 The electronic state is 1-A.
 Alpha  occ. eigenvalues --  -14.84116 -10.66279 -10.66166  -1.04193  -0.89825
 Alpha  occ. eigenvalues --   -0.59976  -0.55691  -0.53372  -0.44762  -0.39305
 Alpha  occ. eigenvalues --   -0.39072
 Alpha virt. eigenvalues --    0.03868   0.07969   0.08658   0.10204   0.11198
 Alpha virt. eigenvalues --    0.11585   0.15430   0.16228   0.16585   0.20019
 Alpha virt. eigenvalues --    0.20153   0.25267   0.32904   0.34638   0.35570

 Mulliken charges:
               1
     1  C   -0.073380
     2  C   -0.002668
     3  N   -0.205742
     4  H    0.088021
     5  H    0.096642
     6  H    0.097128
 Sum of Mulliken charges =   0.00000

 Dipole moment (field-independent basis, Debye):
    X=              4.1364    Y=              0.0025    Z=             -0.0047  Tot=              4.1364
 Quadrupole moment (field-independent basis, Debye-Ang):
   XX=            -20.8989   YY=            -17.5828   ZZ=            -17.8568
   XY=             -0.0390   XZ=              0.1774   YZ=              0.0184

 Normal termination of Gaussian 09 at Wed Aug 26 23:56:10 2020.
