 Gaussian 09, Revision D.01,
 Gaussian 09:  ES64L-G09RevD.01 24-Apr-2013

 --------------------
 #p B2PLYPD3/Def2QZVP
 --------------------

 ------------
 cyanomethane
 ------------
 Symbolic Z-matrix:
 Charge =  0 Multiplicity = 1

                         Standard orientation:
 ---------------------------------------------------------------------
 Center     Atomic      Atomic             Coordinates (Angstroms)
 Number     Number       Type             X           Y           Z
 ---------------------------------------------------------------------
      1          6           0        1.178448   -0.012446    0.015039
      2          6           0       -0.270201    0.034978   -0.029120
      3          7           0       -1.422081   -0.018053    0.019241
      4          1           0        1.576205   -0.024995    1.001785
      5          1           0        1.454451    0.973455   -0.503613
      6          1           0        1.474434   -0.957281   -0.548376
 ---------------------------------------------------------------------

 SCF Done:  E(RB2PLYPD3) =  -132.527195196     A.U. after   12 cycles
 E2(B2PLYPD3) =    -0.1809593592D+00 E(B2PLYPD3) =    -0.13270815455473D+03

 The electronic state is 1-A.
 Alpha  occ. eigenvalues --  -14.83978 -10.67920 -10.66029  -1.04058  -0.89006
 Alpha  occ. eigenvalues --   -0.59205  -0.53974  -0.53181  -0.44607  -0.38892
 Alpha  occ. eigenvalues --   -0.38685
 Alpha virt. eigenvalues --    0.03542   0.07559   0.07818   0.10026   0.11569
 Alpha virt. eigenvalues --    0.11600   0.15128   0.15349   0.16626   0.20077
 Alpha virt. eigenvalues --    0.20157   0.25555   0.32129   0.33448   0.34290

 Mulliken charges:
               1
     1  C   -0.113457
     2  C    0.002575
     3  N   -0.208035
     4  H    0.106865
     5  H    0.103838
     6  H    0.108214
 Sum of Mulliken charges =   0.00000

 Dipole moment (field-independent basis, Debye):
    X=              4.0660    Y=              0.0244    Z=              0.0036  Tot=              4.0661
 Quadrupole moment (field-independent basis, Debye-Ang):
   XX=            -21.4843   YY=            -17.4963   ZZ=            -17.8239
   XY=             -0.1193   XZ=              0.2824   YZ=              0.0239

 Normal termination of Gaussian 09 at Wed Aug 26 21:09:28 2020.
