 Gaussian 09, Revision D.01,
 Gaussian 09:  ES64L-G09RevD.01 24-Apr-2013

 --------------------
 #p B2PLYPD3/Def2QZVP
 --------------------

 ------------
 cyanomethane
 ------------
 Symbolic Z-matrix:
 Charge =  0 Multiplicity = 1

                         Standard orientation:
 ---------------------------------------------------------------------
 Center     Atomic      Atomic             Coordinates (Angstroms)
 Number     Number       Type             X           Y           Z
 ---------------------------------------------------------------------
      1          6           0       -1.166391    0.006371   -0.000176
      2          6           0        0.286708    0.004567   -0.062754
      3          7           0        1.417897   -0.008774    0.036130
      4          1           0       -1.473483    1.044149    0.023660
      5          1           0       -1.619958   -0.505392    0.907137
      6          1           0       -1.553742   -0.542968   -0.806125
 ---------------------------------------------------------------------

 SCF Done:  E(RB2PLYPD3) =  -132.530853153     A.U. after   12 cycles
 E2(B2PLYPD3) =    -0.1790567923D+00 E(B2PLYPD3) =    -0.13270990994486D+03

 The electronic state is 1-A.
 Alpha  occ. eigenvalues --  -14.83690 -10.66946 -10.65656  -1.04933  -0.89223
 Alpha  occ. eigenvalues --   -0.59815  -0.55274  -0.52195  -0.44771  -0.39678
 Alpha  occ. eigenvalues --   -0.39288
 Alpha virt. eigenvalues --    0.03576   0.07539   0.08839   0.10152   0.11484
 Alpha virt. eigenvalues --    0.11889   0.15525   0.16031   0.17084   0.19913
 Alpha virt. eigenvalues --    0.20095   0.25683   0.33169   0.33878   0.35238

 Mulliken charges:
               1
     1  C   -0.084729
     2  C   -0.003089
     3  N   -0.195425
     4  H    0.099511
     5  H    0.087944
     6  H    0.095787
 Sum of Mulliken charges =   0.00000

 Dipole moment (field-independent basis, Debye):
    X=             -4.0724    Y=             -0.0014    Z=             -0.0608  Tot=              4.0728
 Quadrupole moment (field-independent basis, Debye-Ang):
   XX=            -20.9285   YY=            -17.5454   ZZ=            -17.8587
   XY=              0.1951   XZ=             -0.2607   YZ=              0.0799

 Normal termination of Gaussian 09 at Wed Aug 26 23:38:15 2020.
