 Gaussian 09, Revision D.01,
 Gaussian 09:  ES64L-G09RevD.01 24-Apr-2013

 --------------------
 #p B2PLYPD3/Def2QZVP
 --------------------

 ------------
 cyanomethane
 ------------
 Symbolic Z-matrix:
 Charge =  0 Multiplicity = 1

                         Standard orientation:
 ---------------------------------------------------------------------
 Center     Atomic      Atomic             Coordinates (Angstroms)
 Number     Number       Type             X           Y           Z
 ---------------------------------------------------------------------
      1          6           0        1.195129    0.013959   -0.004510
      2          6           0       -0.279149    0.016522    0.013710
      3          7           0       -1.441385   -0.011524   -0.007351
      4          1           0        1.510642    1.001623   -0.012488
      5          1           0        1.549180   -0.560795   -0.883360
      6          1           0        1.533994   -0.543042    0.892103
 ---------------------------------------------------------------------

 SCF Done:  E(RB2PLYPD3) =  -132.531750485     A.U. after   12 cycles
 E2(B2PLYPD3) =    -0.1811452574D+00 E(B2PLYPD3) =    -0.13271289574245D+03

 The electronic state is 1-A.
 Alpha  occ. eigenvalues --  -14.84347 -10.67229 -10.66463  -1.03691  -0.89214
 Alpha  occ. eigenvalues --   -0.58985  -0.55550  -0.53063  -0.44687  -0.39027
 Alpha  occ. eigenvalues --   -0.38727
 Alpha virt. eigenvalues --    0.03703   0.07620   0.08439   0.10189   0.11001
 Alpha virt. eigenvalues --    0.11465   0.15183   0.15887   0.16230   0.20067
 Alpha virt. eigenvalues --    0.20186   0.24990   0.32416   0.33854   0.35262

 Mulliken charges:
               1
     1  C   -0.091745
     2  C   -0.002542
     3  N   -0.210692
     4  H    0.107119
     5  H    0.099323
     6  H    0.098536
 Sum of Mulliken charges =   0.00000

 Dipole moment (field-independent basis, Debye):
    X=              4.1390    Y=              0.0023    Z=              0.0111  Tot=              4.1390
 Quadrupole moment (field-independent basis, Debye-Ang):
   XX=            -21.1784   YY=            -17.6303   ZZ=            -17.8370
   XY=             -0.1218   XZ=             -0.0477   YZ=             -0.0017

 Normal termination of Gaussian 09 at Wed Aug 26 15:21:35 2020.
