 Gaussian 09, Revision D.01,
 Gaussian 09:  ES64L-G09RevD.01 24-Apr-2013

 --------------------
 #p B2PLYPD3/Def2QZVP
 --------------------

 ------------
 cyanomethane
 ------------
 Symbolic Z-matrix:
 Charge =  0 Multiplicity = 1

                         Standard orientation:
 ---------------------------------------------------------------------
 Center     Atomic      Atomic             Coordinates (Angstroms)
 Number     Number       Type             X           Y           Z
 ---------------------------------------------------------------------
      1          6           0       -1.167792   -0.001055   -0.020376
      2          6           0        0.264157   -0.017352    0.024665
      3          7           0        1.432206    0.010019   -0.012279
      4          1           0       -1.509213   -0.186596    0.962352
      5          1           0       -1.540798   -0.735854   -0.618978
      6          1           0       -1.553619    0.962754   -0.283153
 ---------------------------------------------------------------------

 SCF Done:  E(RB2PLYPD3) =  -132.529126672     A.U. after   12 cycles
 E2(B2PLYPD3) =    -0.1813023906D+00 E(B2PLYPD3) =    -0.13271042906255D+03

 The electronic state is 1-A.
 Alpha  occ. eigenvalues --  -14.84540 -10.66536 -10.65643  -1.03622  -0.90674
 Alpha  occ. eigenvalues --   -0.60883  -0.55778  -0.54159  -0.44859  -0.38828
 Alpha  occ. eigenvalues --   -0.38529
 Alpha virt. eigenvalues --    0.03899   0.07756   0.08205   0.10092   0.11195
 Alpha virt. eigenvalues --    0.11502   0.15619   0.15728   0.17027   0.20176
 Alpha virt. eigenvalues --    0.20226   0.25860   0.33108   0.34567   0.35711

 Mulliken charges:
               1
     1  C   -0.064637
     2  C    0.002651
     3  N   -0.214846
     4  H    0.088048
     5  H    0.095584
     6  H    0.093200
 Sum of Mulliken charges =   0.00000

 Dipole moment (field-independent basis, Debye):
    X=             -4.1596    Y=             -0.0205    Z=              0.0489  Tot=              4.1600
 Quadrupole moment (field-independent basis, Debye-Ang):
   XX=            -20.8487   YY=            -17.6473   ZZ=            -17.8315
   XY=             -0.0501   XZ=              0.0115   YZ=              0.0501

 Normal termination of Gaussian 09 at Wed Aug 26 15:10:43 2020.
