 Gaussian 09, Revision D.01,
 Gaussian 09:  ES64L-G09RevD.01 24-Apr-2013

 --------------------
 #p B2PLYPD3/Def2QZVP
 --------------------

 ------------
 cyanomethane
 ------------
 Symbolic Z-matrix:
 Charge =  0 Multiplicity = 1

                         Standard orientation:
 ---------------------------------------------------------------------
 Center     Atomic      Atomic             Coordinates (Angstroms)
 Number     Number       Type             X           Y           Z
 ---------------------------------------------------------------------
      1          6           0       -1.167183    0.002678   -0.008492
      2          6           0        0.279648   -0.009051   -0.009271
      3          7           0        1.430163    0.004547    0.002959
      4          1           0       -1.566704    1.039564   -0.068714
      5          1           0       -1.525709   -0.431194    0.960505
      6          1           0       -1.593511   -0.601961   -0.805927
 ---------------------------------------------------------------------

 SCF Done:  E(RB2PLYPD3) =  -132.534478294     A.U. after   12 cycles
 E2(B2PLYPD3) =    -0.1803937074D+00 E(B2PLYPD3) =    -0.13271487200139D+03

 The electronic state is 1-A.
 Alpha  occ. eigenvalues --  -14.84117 -10.67515 -10.66157  -1.04323  -0.88972
 Alpha  occ. eigenvalues --   -0.59943  -0.53824  -0.53008  -0.44834  -0.39182
 Alpha  occ. eigenvalues --   -0.38973
 Alpha virt. eigenvalues --    0.03671   0.07564   0.07770   0.10158   0.11510
 Alpha virt. eigenvalues --    0.11742   0.15473   0.16145   0.16799   0.20051
 Alpha virt. eigenvalues --    0.20101   0.25546   0.32751   0.33910   0.34789

 Mulliken charges:
               1
     1  C   -0.086164
     2  C    0.000166
     3  N   -0.203525
     4  H    0.097297
     5  H    0.094247
     6  H    0.097979
 Sum of Mulliken charges =   0.00000

 Dipole moment (field-independent basis, Debye):
    X=             -4.1151    Y=             -0.0146    Z=              0.0068  Tot=              4.1151
 Quadrupole moment (field-independent basis, Debye-Ang):
   XX=            -20.9708   YY=            -17.7313   ZZ=            -17.8176
   XY=             -0.0072   XZ=              0.0021   YZ=              0.0311

 Normal termination of Gaussian 09 at Wed Aug 26 09:56:47 2020.
