 Gaussian 09, Revision D.01,
 Gaussian 09:  ES64L-G09RevD.01 24-Apr-2013

 --------------------
 #p B2PLYPD3/Def2QZVP
 --------------------

 ------------
 cyanomethane
 ------------
 Symbolic Z-matrix:
 Charge =  0 Multiplicity = 1

                         Standard orientation:
 ---------------------------------------------------------------------
 Center     Atomic      Atomic             Coordinates (Angstroms)
 Number     Number       Type             X           Y           Z
 ---------------------------------------------------------------------
      1          6           0        1.180018    0.007706    0.003645
      2          6           0       -0.283314   -0.001301   -0.019602
      3          7           0       -1.442232   -0.001786    0.003373
      4          1           0        1.566933    1.035469   -0.147807
      5          1           0        1.656997   -0.690349   -0.734035
      6          1           0        1.491474   -0.371048    0.953974
 ---------------------------------------------------------------------

 SCF Done:  E(RB2PLYPD3) =  -132.532772060     A.U. after   12 cycles
 E2(B2PLYPD3) =    -0.1810808268D+00 E(B2PLYPD3) =    -0.13271385288706D+03

 The electronic state is 1-A.
 Alpha  occ. eigenvalues --  -14.84410 -10.67515 -10.66530  -1.03968  -0.88889
 Alpha  occ. eigenvalues --   -0.59869  -0.54156  -0.52733  -0.44869  -0.39077
 Alpha  occ. eigenvalues --   -0.38898
 Alpha virt. eigenvalues --    0.03675   0.07340   0.07930   0.10199   0.11286
 Alpha virt. eigenvalues --    0.11586   0.15305   0.16045   0.16923   0.20050
 Alpha virt. eigenvalues --    0.20153   0.25249   0.32292   0.34421   0.34694

 Mulliken charges:
               1
     1  C   -0.082916
     2  C    0.001514
     3  N   -0.207489
     4  H    0.099237
     5  H    0.091687
     6  H    0.097967
 Sum of Mulliken charges =   0.00000

 Dipole moment (field-independent basis, Debye):
    X=              4.1428    Y=             -0.0210    Z=              0.0283  Tot=              4.1430
 Quadrupole moment (field-independent basis, Debye-Ang):
   XX=            -20.9138   YY=            -17.6759   ZZ=            -17.9752
   XY=             -0.0987   XZ=             -0.0171   YZ=             -0.0443

 Normal termination of Gaussian 09 at Wed Aug 26 14:44:43 2020.
