 Gaussian 09, Revision D.01,
 Gaussian 09:  ES64L-G09RevD.01 24-Apr-2013

 --------------------
 #p B2PLYPD3/Def2QZVP
 --------------------

 ------------
 cyanomethane
 ------------
 Symbolic Z-matrix:
 Charge =  0 Multiplicity = 1

                         Standard orientation:
 ---------------------------------------------------------------------
 Center     Atomic      Atomic             Coordinates (Angstroms)
 Number     Number       Type             X           Y           Z
 ---------------------------------------------------------------------
      1          6           0       -1.182894    0.001282   -0.010504
      2          6           0        0.261081    0.044278    0.004230
      3          7           0        1.425319   -0.033953    0.004260
      4          1           0       -1.308995    0.902928   -0.305571
      5          1           0       -1.589960   -0.188482    0.909764
      6          1           0       -1.547400   -0.750128   -0.596367
 ---------------------------------------------------------------------

 SCF Done:  E(RB2PLYPD3) =  -132.506516925     A.U. after   12 cycles
 E2(B2PLYPD3) =    -0.1809449886D+00 E(B2PLYPD3) =    -0.13268746191398D+03

 The electronic state is 1-A.
 Alpha  occ. eigenvalues --  -14.84367 -10.66391 -10.64269  -1.03711  -0.92068
 Alpha  occ. eigenvalues --   -0.61597  -0.57180  -0.54601  -0.44689  -0.38803
 Alpha  occ. eigenvalues --   -0.38708
 Alpha virt. eigenvalues --    0.04010   0.07909   0.09545   0.09993   0.11028
 Alpha virt. eigenvalues --    0.11468   0.14898   0.15901   0.16956   0.20111
 Alpha virt. eigenvalues --    0.20327   0.25635   0.33138   0.35422   0.36373

 Mulliken charges:
               1
     1  C   -0.074743
     2  C    0.000762
     3  N   -0.216014
     4  H    0.111424
     5  H    0.086362
     6  H    0.092210
 Sum of Mulliken charges =   0.00000

 Dipole moment (field-independent basis, Debye):
    X=             -4.1338    Y=              0.0305    Z=              0.0122  Tot=              4.1340
 Quadrupole moment (field-independent basis, Debye-Ang):
   XX=            -20.9315   YY=            -17.4496   ZZ=            -17.8078
   XY=              0.4087   XZ=             -0.1639   YZ=             -0.0419

 Normal termination of Gaussian 09 at Wed Aug 26 19:52:30 2020.
