 Gaussian 09, Revision D.01,
 Gaussian 09:  ES64L-G09RevD.01 24-Apr-2013

 --------------------
 #p B2PLYPD3/Def2QZVP
 --------------------

 ------------
 cyanomethane
 ------------
 Symbolic Z-matrix:
 Charge =  0 Multiplicity = 1

                         Standard orientation:
 ---------------------------------------------------------------------
 Center     Atomic      Atomic             Coordinates (Angstroms)
 Number     Number       Type             X           Y           Z
 ---------------------------------------------------------------------
      1          6           0        1.170648   -0.020606   -0.006388
      2          6           0       -0.265114    0.033968   -0.014549
      3          7           0       -1.438709   -0.015038    0.009754
      4          1           0        1.551657    1.037560    0.031451
      5          1           0        1.525216   -0.496903   -0.861683
      6          1           0        1.560882   -0.515562    0.887582
 ---------------------------------------------------------------------

 SCF Done:  E(RB2PLYPD3) =  -132.530138497     A.U. after   12 cycles
 E2(B2PLYPD3) =    -0.1822875572D+00 E(B2PLYPD3) =    -0.13271242605418D+03

 The electronic state is 1-A.
 Alpha  occ. eigenvalues --  -14.84750 -10.66904 -10.66765  -1.03384  -0.89743
 Alpha  occ. eigenvalues --   -0.60375  -0.55071  -0.53136  -0.44898  -0.38635
 Alpha  occ. eigenvalues --   -0.38333
 Alpha virt. eigenvalues --    0.03719   0.07111   0.07719   0.10043   0.11194
 Alpha virt. eigenvalues --    0.11494   0.15532   0.15824   0.16674   0.20161
 Alpha virt. eigenvalues --    0.20228   0.25791   0.32511   0.33999   0.35202

 Mulliken charges:
               1
     1  C   -0.079719
     2  C    0.003540
     3  N   -0.215816
     4  H    0.092555
     5  H    0.102246
     6  H    0.097194
 Sum of Mulliken charges =   0.00000

 Dipole moment (field-independent basis, Debye):
    X=              4.1467    Y=              0.0145    Z=             -0.0083  Tot=              4.1468
 Quadrupole moment (field-independent basis, Debye-Ang):
   XX=            -21.0063   YY=            -17.8154   ZZ=            -17.7837
   XY=             -0.0755   XZ=              0.0898   YZ=              0.0486

 Normal termination of Gaussian 09 at Wed Aug 26 11:01:13 2020.
