 Gaussian 09, Revision D.01,
 Gaussian 09:  ES64L-G09RevD.01 24-Apr-2013

 --------------------
 #p B2PLYPD3/Def2QZVP
 --------------------

 ------------
 cyanomethane
 ------------
 Symbolic Z-matrix:
 Charge =  0 Multiplicity = 1

                         Standard orientation:
 ---------------------------------------------------------------------
 Center     Atomic      Atomic             Coordinates (Angstroms)
 Number     Number       Type             X           Y           Z
 ---------------------------------------------------------------------
      1          6           0        1.180718   -0.004322   -0.020458
      2          6           0       -0.290654    0.009951    0.040090
      3          7           0       -1.439485   -0.003972   -0.019378
      4          1           0        1.590442    1.031239   -0.125403
      5          1           0        1.576480   -0.636119   -0.779992
      6          1           0        1.569093   -0.401092    0.923252
 ---------------------------------------------------------------------

 SCF Done:  E(RB2PLYPD3) =  -132.533602970     A.U. after   12 cycles
 E2(B2PLYPD3) =    -0.1802805191D+00 E(B2PLYPD3) =    -0.13271388348932D+03

 The electronic state is 1-A.
 Alpha  occ. eigenvalues --  -14.84223 -10.67328 -10.66329  -1.04332  -0.88787
 Alpha  occ. eigenvalues --   -0.60000  -0.53826  -0.52957  -0.44880  -0.39377
 Alpha  occ. eigenvalues --   -0.39174
 Alpha virt. eigenvalues --    0.03690   0.07745   0.07992   0.10144   0.11407
 Alpha virt. eigenvalues --    0.11541   0.15368   0.16015   0.17224   0.20037
 Alpha virt. eigenvalues --    0.20069   0.25252   0.32570   0.34142   0.35105

 Mulliken charges:
               1
     1  C   -0.078611
     2  C    0.001006
     3  N   -0.202786
     4  H    0.093685
     5  H    0.097402
     6  H    0.089305
 Sum of Mulliken charges =   0.00000

 Dipole moment (field-independent basis, Debye):
    X=              4.1262    Y=             -0.0169    Z=              0.0441  Tot=              4.1265
 Quadrupole moment (field-independent basis, Debye-Ang):
   XX=            -20.8392   YY=            -17.7127   ZZ=            -17.9069
   XY=             -0.0610   XZ=             -0.0748   YZ=              0.0393

 Normal termination of Gaussian 09 at Wed Aug 26 14:06:44 2020.
