 Gaussian 09, Revision D.01,
 Gaussian 09:  ES64L-G09RevD.01 24-Apr-2013

 --------------------
 #p B2PLYPD3/Def2QZVP
 --------------------

 ------------
 cyanomethane
 ------------
 Symbolic Z-matrix:
 Charge =  0 Multiplicity = 1

                         Standard orientation:
 ---------------------------------------------------------------------
 Center     Atomic      Atomic             Coordinates (Angstroms)
 Number     Number       Type             X           Y           Z
 ---------------------------------------------------------------------
      1          6           0       -1.179635    0.004654   -0.001479
      2          6           0        0.282673   -0.012614    0.015726
      3          7           0        1.436542    0.004930   -0.006963
      4          1           0       -1.536933    0.956867   -0.309052
      5          1           0       -1.577647   -0.213222    0.959224
      6          1           0       -1.559439   -0.730397   -0.686915
 ---------------------------------------------------------------------

 SCF Done:  E(RB2PLYPD3) =  -132.535148881     A.U. after   11 cycles
 E2(B2PLYPD3) =    -0.1801607630D+00 E(B2PLYPD3) =    -0.13271530964362D+03

 The electronic state is 1-A.
 Alpha  occ. eigenvalues --  -14.84230 -10.66453 -10.66300  -1.04146  -0.89616
 Alpha  occ. eigenvalues --   -0.60187  -0.54425  -0.54064  -0.44826  -0.39199
 Alpha  occ. eigenvalues --   -0.39152
 Alpha virt. eigenvalues --    0.03858   0.08105   0.08216   0.10206   0.11359
 Alpha virt. eigenvalues --    0.11434   0.15449   0.16428   0.16545   0.20070
 Alpha virt. eigenvalues --    0.20099   0.25279   0.32846   0.34940   0.35171

 Mulliken charges:
               1
     1  C   -0.070703
     2  C   -0.001127
     3  N   -0.206122
     4  H    0.093982
     5  H    0.092115
     6  H    0.091855
 Sum of Mulliken charges =   0.00000

 Dipole moment (field-independent basis, Debye):
    X=             -4.1434    Y=             -0.0062    Z=              0.0080  Tot=              4.1434
 Quadrupole moment (field-independent basis, Debye-Ang):
   XX=            -20.8328   YY=            -17.7508   ZZ=            -17.7652
   XY=             -0.0072   XZ=              0.0238   YZ=             -0.0107

 Normal termination of Gaussian 09 at Wed Aug 26 23:57:26 2020.
