 Gaussian 09, Revision D.01,
 Gaussian 09:  ES64L-G09RevD.01 24-Apr-2013

 --------------------
 #p B2PLYPD3/Def2QZVP
 --------------------

 ------------
 cyanomethane
 ------------
 Symbolic Z-matrix:
 Charge =  0 Multiplicity = 1

                         Standard orientation:
 ---------------------------------------------------------------------
 Center     Atomic      Atomic             Coordinates (Angstroms)
 Number     Number       Type             X           Y           Z
 ---------------------------------------------------------------------
      1          6           0        1.184340   -0.002401   -0.016427
      2          6           0       -0.296301   -0.005619    0.037777
      3          7           0       -1.436349    0.004331   -0.017006
      4          1           0        1.588730    1.030098   -0.071251
      5          1           0        1.551973   -0.568692   -0.819727
      6          1           0        1.585506   -0.443603    0.881924
 ---------------------------------------------------------------------

 SCF Done:  E(RB2PLYPD3) =  -132.534167791     A.U. after   11 cycles
 E2(B2PLYPD3) =    -0.1792986216D+00 E(B2PLYPD3) =    -0.13271346641223D+03

 The electronic state is 1-A.
 Alpha  occ. eigenvalues --  -14.83946 -10.66974 -10.66059  -1.04663  -0.88926
 Alpha  occ. eigenvalues --   -0.59848  -0.54154  -0.53187  -0.44813  -0.39642
 Alpha  occ. eigenvalues --   -0.39488
 Alpha virt. eigenvalues --    0.03756   0.08096   0.08433   0.10219   0.11455
 Alpha virt. eigenvalues --    0.11526   0.15339   0.16233   0.17097   0.19983
 Alpha virt. eigenvalues --    0.20019   0.25047   0.32674   0.34478   0.35297

 Mulliken charges:
               1
     1  C   -0.075510
     2  C   -0.002475
     3  N   -0.198337
     4  H    0.091810
     5  H    0.095791
     6  H    0.088722
 Sum of Mulliken charges =   0.00000

 Dipole moment (field-independent basis, Debye):
    X=              4.1236    Y=             -0.0263    Z=              0.0341  Tot=              4.1238
 Quadrupole moment (field-independent basis, Debye-Ang):
   XX=            -20.7975   YY=            -17.7037   ZZ=            -17.8300
   XY=             -0.0007   XZ=             -0.0561   YZ=              0.0406

 Normal termination of Gaussian 09 at Wed Aug 26 14:23:27 2020.
