 Gaussian 09, Revision D.01,
 Gaussian 09:  ES64L-G09RevD.01 24-Apr-2013

 --------------------
 #p B2PLYPD3/Def2QZVP
 --------------------

 ------------
 cyanomethane
 ------------
 Symbolic Z-matrix:
 Charge =  0 Multiplicity = 1

                         Standard orientation:
 ---------------------------------------------------------------------
 Center     Atomic      Atomic             Coordinates (Angstroms)
 Number     Number       Type             X           Y           Z
 ---------------------------------------------------------------------
      1          6           0        1.165291    0.011043   -0.004509
      2          6           0       -0.273221    0.019634   -0.023431
      3          7           0       -1.427042   -0.013564    0.017054
      4          1           0        1.609918   -0.236566    0.985852
      5          1           0        1.500343    0.942815   -0.292162
      6          1           0        1.526614   -0.795364   -0.645431
 ---------------------------------------------------------------------

 SCF Done:  E(RB2PLYPD3) =  -132.531415250     A.U. after   12 cycles
 E2(B2PLYPD3) =    -0.1804689199D+00 E(B2PLYPD3) =    -0.13271188417025D+03

 The electronic state is 1-A.
 Alpha  occ. eigenvalues --  -14.84193 -10.66569 -10.66174  -1.04160  -0.89848
 Alpha  occ. eigenvalues --   -0.60296  -0.55754  -0.52642  -0.44828  -0.39161
 Alpha  occ. eigenvalues --   -0.38783
 Alpha virt. eigenvalues --    0.03738   0.07350   0.08482   0.10124   0.11234
 Alpha virt. eigenvalues --    0.11810   0.15564   0.16136   0.16750   0.20006
 Alpha virt. eigenvalues --    0.20213   0.25720   0.33010   0.34062   0.35400

 Mulliken charges:
               1
     1  C   -0.076571
     2  C   -0.000269
     3  N   -0.206875
     4  H    0.088784
     5  H    0.100742
     6  H    0.094190
 Sum of Mulliken charges =   0.00000

 Dipole moment (field-independent basis, Debye):
    X=              4.1231    Y=              0.0052    Z=             -0.0181  Tot=              4.1231
 Quadrupole moment (field-independent basis, Debye-Ang):
   XX=            -20.9164   YY=            -17.5846   ZZ=            -17.8978
   XY=             -0.1475   XZ=              0.1881   YZ=             -0.0199

 Normal termination of Gaussian 09 at Wed Aug 26 13:08:50 2020.
