 Gaussian 09, Revision D.01,
 Gaussian 09:  ES64L-G09RevD.01 24-Apr-2013

 --------------------
 #p B2PLYPD3/Def2QZVP
 --------------------

 ------------
 cyanomethane
 ------------
 Symbolic Z-matrix:
 Charge =  0 Multiplicity = 1

                         Standard orientation:
 ---------------------------------------------------------------------
 Center     Atomic      Atomic             Coordinates (Angstroms)
 Number     Number       Type             X           Y           Z
 ---------------------------------------------------------------------
      1          6           0       -1.171733   -0.000003   -0.000830
      2          6           0        0.278847    0.008892   -0.010971
      3          7           0        1.431791   -0.006626    0.005660
      4          1           0       -1.529174    1.033842   -0.054909
      5          1           0       -1.564120   -0.461978    0.919701
      6          1           0       -1.571924   -0.578812   -0.833597
 ---------------------------------------------------------------------

 SCF Done:  E(RB2PLYPD3) =  -132.535392592     A.U. after   11 cycles
 E2(B2PLYPD3) =    -0.1804393511D+00 E(B2PLYPD3) =    -0.13271583194263D+03

 The electronic state is 1-A.
 Alpha  occ. eigenvalues --  -14.84166 -10.67234 -10.66207  -1.04197  -0.89169
 Alpha  occ. eigenvalues --   -0.59881  -0.54087  -0.53355  -0.44813  -0.39095
 Alpha  occ. eigenvalues --   -0.39015
 Alpha virt. eigenvalues --    0.03731   0.07668   0.07941   0.10162   0.11457
 Alpha virt. eigenvalues --    0.11612   0.15449   0.16277   0.16532   0.20053
 Alpha virt. eigenvalues --    0.20119   0.25479   0.32787   0.34402   0.34674

 Mulliken charges:
               1
     1  C   -0.083768
     2  C   -0.000828
     3  N   -0.205180
     4  H    0.098005
     5  H    0.095276
     6  H    0.096495
 Sum of Mulliken charges =   0.00000

 Dipole moment (field-independent basis, Debye):
    X=             -4.1218    Y=              0.0020    Z=             -0.0045  Tot=              4.1218
 Quadrupole moment (field-independent basis, Debye-Ang):
   XX=            -20.9820   YY=            -17.6958   ZZ=            -17.8233
   XY=              0.0913   XZ=             -0.0386   YZ=              0.0114

 Normal termination of Gaussian 09 at Wed Aug 26 12:04:00 2020.
