 Gaussian 09, Revision D.01,
 Gaussian 09:  ES64L-G09RevD.01 24-Apr-2013

 --------------------
 #p B2PLYPD3/Def2QZVP
 --------------------

 ------------
 cyanomethane
 ------------
 Symbolic Z-matrix:
 Charge =  0 Multiplicity = 1

                         Standard orientation:
 ---------------------------------------------------------------------
 Center     Atomic      Atomic             Coordinates (Angstroms)
 Number     Number       Type             X           Y           Z
 ---------------------------------------------------------------------
      1          6           0        1.201390   -0.021439    0.003612
      2          6           0       -0.273322    0.037729   -0.006234
      3          7           0       -1.452957   -0.021786   -0.009637
      4          1           0        1.525854    1.046105   -0.226283
      5          1           0        1.699314   -0.733038   -0.667856
      6          1           0        1.377121   -0.258298    0.977329
 ---------------------------------------------------------------------

 SCF Done:  E(RB2PLYPD3) =  -132.521502674     A.U. after   13 cycles
 E2(B2PLYPD3) =    -0.1830472240D+00 E(B2PLYPD3) =    -0.13270454989812D+03

 The electronic state is 1-A.
 Alpha  occ. eigenvalues --  -14.84896 -10.67322 -10.67113  -1.03026  -0.89453
 Alpha  occ. eigenvalues --   -0.59428  -0.55272  -0.52985  -0.44761  -0.38515
 Alpha  occ. eigenvalues --   -0.38343
 Alpha virt. eigenvalues --    0.03628   0.06841   0.08303   0.10014   0.11084
 Alpha virt. eigenvalues --    0.11223   0.14975   0.15147   0.17122   0.20224
 Alpha virt. eigenvalues --    0.20296   0.25080   0.31744   0.33807   0.35200

 Mulliken charges:
               1
     1  C   -0.098421
     2  C    0.004468
     3  N   -0.219054
     4  H    0.098739
     5  H    0.102898
     6  H    0.111371
 Sum of Mulliken charges =   0.00000

 Dipole moment (field-independent basis, Debye):
    X=              4.1647    Y=              0.0129    Z=              0.0465  Tot=              4.1650
 Quadrupole moment (field-independent basis, Debye-Ang):
   XX=            -21.1350   YY=            -17.7419   ZZ=            -17.9096
   XY=             -0.2127   XZ=             -0.1951   YZ=             -0.0165

 Normal termination of Gaussian 09 at Wed Aug 26 23:51:55 2020.
