 Gaussian 09, Revision D.01,
 Gaussian 09:  ES64L-G09RevD.01 24-Apr-2013

 --------------------
 #p B2PLYPD3/Def2QZVP
 --------------------

 ------------
 cyanomethane
 ------------
 Symbolic Z-matrix:
 Charge =  0 Multiplicity = 1

                         Standard orientation:
 ---------------------------------------------------------------------
 Center     Atomic      Atomic             Coordinates (Angstroms)
 Number     Number       Type             X           Y           Z
 ---------------------------------------------------------------------
      1          6           0       -1.190461    0.014297   -0.004374
      2          6           0        0.290645   -0.028132   -0.023060
      3          7           0        1.436970    0.011136    0.012948
      4          1           0       -1.523508    1.035658   -0.199088
      5          1           0       -1.566128   -0.320458    1.015107
      6          1           0       -1.570261   -0.710145   -0.742045
 ---------------------------------------------------------------------

 SCF Done:  E(RB2PLYPD3) =  -132.533417521     A.U. after   12 cycles
 E2(B2PLYPD3) =    -0.1801793918D+00 E(B2PLYPD3) =    -0.13271359691281D+03

 The electronic state is 1-A.
 Alpha  occ. eigenvalues --  -14.84003 -10.67994 -10.66122  -1.04329  -0.88329
 Alpha  occ. eigenvalues --   -0.58759  -0.54271  -0.52616  -0.44703  -0.39374
 Alpha  occ. eigenvalues --   -0.39149
 Alpha virt. eigenvalues --    0.03585   0.07708   0.08178   0.10205   0.11317
 Alpha virt. eigenvalues --    0.11603   0.15156   0.16012   0.16531   0.19977
 Alpha virt. eigenvalues --    0.20083   0.24981   0.32356   0.33746   0.34848

 Mulliken charges:
               1
     1  C   -0.097747
     2  C   -0.003108
     3  N   -0.201550
     4  H    0.105571
     5  H    0.096641
     6  H    0.100193
 Sum of Mulliken charges =   0.00000

 Dipole moment (field-independent basis, Debye):
    X=             -4.1101    Y=             -0.0217    Z=             -0.0143  Tot=              4.1101
 Quadrupole moment (field-independent basis, Debye-Ang):
   XX=            -21.1420   YY=            -17.6495   ZZ=            -17.8404
   XY=             -0.0051   XZ=             -0.0958   YZ=              0.0076

 Normal termination of Gaussian 09 at Wed Aug 26 11:35:27 2020.
