 Gaussian 09, Revision D.01,
 Gaussian 09:  ES64L-G09RevD.01 24-Apr-2013

 --------------------
 #p B2PLYPD3/Def2QZVP
 --------------------

 ------------
 cyanomethane
 ------------
 Symbolic Z-matrix:
 Charge =  0 Multiplicity = 1

                         Standard orientation:
 ---------------------------------------------------------------------
 Center     Atomic      Atomic             Coordinates (Angstroms)
 Number     Number       Type             X           Y           Z
 ---------------------------------------------------------------------
      1          6           0       -1.196150   -0.004347    0.011719
      2          6           0        0.292002    0.031889   -0.005779
      3          7           0        1.434505   -0.010350    0.002399
      4          1           0       -1.531251   -0.235917    0.994336
      5          1           0       -1.476389   -0.860564   -0.690247
      6          1           0       -1.609004    1.003674   -0.356525
 ---------------------------------------------------------------------

 SCF Done:  E(RB2PLYPD3) =  -132.530180448     A.U. after   12 cycles
 E2(B2PLYPD3) =    -0.1799408511D+00 E(B2PLYPD3) =    -0.13271012129935D+03

 The electronic state is 1-A.
 Alpha  occ. eigenvalues --  -14.83806 -10.68319 -10.65955  -1.04440  -0.88135
 Alpha  occ. eigenvalues --   -0.58398  -0.53745  -0.52890  -0.44595  -0.39427
 Alpha  occ. eigenvalues --   -0.39216
 Alpha virt. eigenvalues --    0.03530   0.07741   0.08263   0.10224   0.11401
 Alpha virt. eigenvalues --    0.11636   0.15021   0.15898   0.16357   0.19974
 Alpha virt. eigenvalues --    0.20071   0.24789   0.31967   0.33471   0.34576

 Mulliken charges:
               1
     1  C   -0.109014
     2  C   -0.004153
     3  N   -0.199750
     4  H    0.107274
     5  H    0.103082
     6  H    0.102560
 Sum of Mulliken charges =   0.00000

 Dipole moment (field-independent basis, Debye):
    X=             -4.0963    Y=             -0.0065    Z=              0.0160  Tot=              4.0963
 Quadrupole moment (field-independent basis, Debye-Ang):
   XX=            -21.2991   YY=            -17.6122   ZZ=            -17.7954
   XY=              0.0049   XZ=             -0.0699   YZ=             -0.0282

 Normal termination of Gaussian 09 at Wed Aug 26 16:21:18 2020.
