 Gaussian 09, Revision D.01,
 Gaussian 09:  ES64L-G09RevD.01 24-Apr-2013

 --------------------
 #p B2PLYPD3/Def2QZVP
 --------------------

 ------------
 cyanomethane
 ------------
 Symbolic Z-matrix:
 Charge =  0 Multiplicity = 1

                         Standard orientation:
 ---------------------------------------------------------------------
 Center     Atomic      Atomic             Coordinates (Angstroms)
 Number     Number       Type             X           Y           Z
 ---------------------------------------------------------------------
      1          6           0        1.174886   -0.005479   -0.007373
      2          6           0       -0.282842   -0.001383    0.029390
      3          7           0       -1.428788    0.001431   -0.014516
      4          1           0        1.551086    1.019741   -0.077894
      5          1           0        1.546719   -0.554221   -0.835733
      6          1           0        1.551446   -0.434363    0.883137
 ---------------------------------------------------------------------

 SCF Done:  E(RB2PLYPD3) =  -132.535325822     A.U. after   11 cycles
 E2(B2PLYPD3) =    -0.1795824521D+00 E(B2PLYPD3) =    -0.13271490827437D+03

 The electronic state is 1-A.
 Alpha  occ. eigenvalues --  -14.83983 -10.66509 -10.66017  -1.04438  -0.89580
 Alpha  occ. eigenvalues --   -0.60025  -0.54559  -0.53866  -0.44777  -0.39352
 Alpha  occ. eigenvalues --   -0.39258
 Alpha virt. eigenvalues --    0.03837   0.08072   0.08441   0.10188   0.11444
 Alpha virt. eigenvalues --    0.11567   0.15500   0.16199   0.16739   0.20028
 Alpha virt. eigenvalues --    0.20082   0.25409   0.32980   0.34687   0.35227

 Mulliken charges:
               1
     1  C   -0.075494
     2  C   -0.002720
     3  N   -0.202510
     4  H    0.092150
     5  H    0.095184
     6  H    0.093390
 Sum of Mulliken charges =   0.00000

 Dipole moment (field-independent basis, Debye):
    X=              4.1205    Y=             -0.0075    Z=              0.0243  Tot=              4.1206
 Quadrupole moment (field-independent basis, Debye-Ang):
   XX=            -20.8911   YY=            -17.7111   ZZ=            -17.7236
   XY=             -0.0006   XZ=             -0.0724   YZ=              0.0061

 Normal termination of Gaussian 09 at Thu Aug 27 00:10:44 2020.
