 Gaussian 09, Revision D.01,
 Gaussian 09:  ES64L-G09RevD.01 24-Apr-2013

 --------------------
 #p B2PLYPD3/Def2QZVP
 --------------------

 ------------
 cyanomethane
 ------------
 Symbolic Z-matrix:
 Charge =  0 Multiplicity = 1

                         Standard orientation:
 ---------------------------------------------------------------------
 Center     Atomic      Atomic             Coordinates (Angstroms)
 Number     Number       Type             X           Y           Z
 ---------------------------------------------------------------------
      1          6           0       -1.175342   -0.006082    0.006693
      2          6           0        0.275688    0.034207   -0.005180
      3          7           0        1.439608   -0.018377   -0.001807
      4          1           0       -1.550357    1.001103   -0.103463
      5          1           0       -1.517282   -0.427182    0.911845
      6          1           0       -1.611689   -0.614032   -0.804805
 ---------------------------------------------------------------------

 SCF Done:  E(RB2PLYPD3) =  -132.533079026     A.U. after   12 cycles
 E2(B2PLYPD3) =    -0.1813344773D+00 E(B2PLYPD3) =    -0.13271441350300D+03

 The electronic state is 1-A.
 Alpha  occ. eigenvalues --  -14.84550 -10.66789 -10.66601  -1.03756  -0.89543
 Alpha  occ. eigenvalues --   -0.60317  -0.54686  -0.53321  -0.44897  -0.38892
 Alpha  occ. eigenvalues --   -0.38780
 Alpha virt. eigenvalues --    0.03754   0.07422   0.08012   0.10114   0.11254
 Alpha virt. eigenvalues --    0.11486   0.15481   0.16084   0.16769   0.20075
 Alpha virt. eigenvalues --    0.20200   0.25528   0.32710   0.34511   0.35073

 Mulliken charges:
               1
     1  C   -0.074436
     2  C    0.001760
     3  N   -0.210880
     4  H    0.094653
     5  H    0.097385
     6  H    0.091518
 Sum of Mulliken charges =   0.00000

 Dipole moment (field-independent basis, Debye):
    X=             -4.1460    Y=              0.0179    Z=              0.0122  Tot=              4.1461
 Quadrupole moment (field-independent basis, Debye-Ang):
   XX=            -20.8789   YY=            -17.7554   ZZ=            -17.8505
   XY=              0.1347   XZ=              0.0567   YZ=             -0.0421

 Normal termination of Gaussian 09 at Wed Aug 26 13:49:04 2020.
