 Gaussian 09, Revision D.01,
 Gaussian 09:  ES64L-G09RevD.01 24-Apr-2013

 --------------------
 #p B2PLYPD3/Def2QZVP
 --------------------

 ------------
 cyanomethane
 ------------
 Symbolic Z-matrix:
 Charge =  0 Multiplicity = 1

                         Standard orientation:
 ---------------------------------------------------------------------
 Center     Atomic      Atomic             Coordinates (Angstroms)
 Number     Number       Type             X           Y           Z
 ---------------------------------------------------------------------
      1          6           0        1.168718   -0.003285   -0.006290
      2          6           0       -0.276839    0.017687    0.008437
      3          7           0       -1.431680   -0.012127   -0.004921
      4          1           0        1.514074    1.039115    0.003110
      5          1           0        1.592740   -0.523181   -0.851776
      6          1           0        1.563673   -0.517451    0.870231
 ---------------------------------------------------------------------

 SCF Done:  E(RB2PLYPD3) =  -132.534613155     A.U. after   12 cycles
 E2(B2PLYPD3) =    -0.1805822108D+00 E(B2PLYPD3) =    -0.13271519536584D+03

 The electronic state is 1-A.
 Alpha  occ. eigenvalues --  -14.84241 -10.66981 -10.66272  -1.04140  -0.89399
 Alpha  occ. eigenvalues --   -0.60307  -0.54123  -0.53423  -0.44849  -0.39035
 Alpha  occ. eigenvalues --   -0.38967
 Alpha virt. eigenvalues --    0.03765   0.07633   0.07927   0.10123   0.11449
 Alpha virt. eigenvalues --    0.11619   0.15479   0.16148   0.16810   0.20051
 Alpha virt. eigenvalues --    0.20160   0.25595   0.32864   0.34447   0.34801

 Mulliken charges:
               1
     1  C   -0.078828
     2  C    0.000652
     3  N   -0.206494
     4  H    0.096407
     5  H    0.095076
     6  H    0.093187
 Sum of Mulliken charges =   0.00000

 Dipole moment (field-independent basis, Debye):
    X=              4.1273    Y=              0.0026    Z=              0.0115  Tot=              4.1273
 Quadrupole moment (field-independent basis, Debye-Ang):
   XX=            -20.9184   YY=            -17.6689   ZZ=            -17.8728
   XY=             -0.1606   XZ=             -0.0348   YZ=              0.0098

 Normal termination of Gaussian 09 at Wed Aug 26 23:55:18 2020.
