 Gaussian 09, Revision D.01,
 Gaussian 09:  ES64L-G09RevD.01 24-Apr-2013

 --------------------
 #p B2PLYPD3/Def2QZVP
 --------------------

 ------------
 cyanomethane
 ------------
 Symbolic Z-matrix:
 Charge =  0 Multiplicity = 1

                         Standard orientation:
 ---------------------------------------------------------------------
 Center     Atomic      Atomic             Coordinates (Angstroms)
 Number     Number       Type             X           Y           Z
 ---------------------------------------------------------------------
      1          6           0       -1.180528   -0.038948    0.031997
      2          6           0        0.295294    0.038385   -0.017133
      3          7           0        1.439420   -0.012754    0.004694
      4          1           0       -1.562411   -0.388471    0.931158
      5          1           0       -1.571071   -0.626821   -0.887988
      6          1           0       -1.631052    1.107943   -0.165207
 ---------------------------------------------------------------------

 SCF Done:  E(RB2PLYPD3) =  -132.517215874     A.U. after   12 cycles
 E2(B2PLYPD3) =    -0.1807932691D+00 E(B2PLYPD3) =    -0.13269800914330D+03

 The electronic state is 1-A.
 Alpha  occ. eigenvalues --  -14.84136 -10.69005 -10.66284  -1.04567  -0.87710
 Alpha  occ. eigenvalues --   -0.59631  -0.54121  -0.50247  -0.44886  -0.39631
 Alpha  occ. eigenvalues --   -0.38822
 Alpha virt. eigenvalues --    0.03252   0.06507   0.07873   0.10060   0.11334
 Alpha virt. eigenvalues --    0.11978   0.15199   0.15801   0.17370   0.19949
 Alpha virt. eigenvalues --    0.20054   0.25180   0.30476   0.32689   0.35001

 Mulliken charges:
               1
     1  C   -0.105857
     2  C    0.006147
     3  N   -0.198608
     4  H    0.113847
     5  H    0.099899
     6  H    0.084572
 Sum of Mulliken charges =   0.00000

 Dipole moment (field-independent basis, Debye):
    X=             -4.0718    Y=             -0.0118    Z=             -0.0069  Tot=              4.0719
 Quadrupole moment (field-independent basis, Debye-Ang):
   XX=            -21.1087   YY=            -17.9734   ZZ=            -17.7115
   XY=              0.0709   XZ=              0.0001   YZ=             -0.0502

 Normal termination of Gaussian 09 at Wed Aug 26 21:40:18 2020.
