 Gaussian 09, Revision D.01,
 Gaussian 09:  ES64L-G09RevD.01 24-Apr-2013

 --------------------
 #p B2PLYPD3/Def2QZVP
 --------------------

 ------------
 cyanomethane
 ------------
 Symbolic Z-matrix:
 Charge =  0 Multiplicity = 1

                         Standard orientation:
 ---------------------------------------------------------------------
 Center     Atomic      Atomic             Coordinates (Angstroms)
 Number     Number       Type             X           Y           Z
 ---------------------------------------------------------------------
      1          6           0       -1.168116    0.018779   -0.007655
      2          6           0        0.274795    0.020458   -0.022304
      3          7           0        1.434097   -0.017071    0.015582
      4          1           0       -1.493167    0.951641   -0.343513
      5          1           0       -1.608408   -0.207658    1.055631
      6          1           0       -1.577177   -0.859902   -0.641437
 ---------------------------------------------------------------------

 SCF Done:  E(RB2PLYPD3) =  -132.525284068     A.U. after   12 cycles
 E2(B2PLYPD3) =    -0.1816025793D+00 E(B2PLYPD3) =    -0.13270688664759D+03

 The electronic state is 1-A.
 Alpha  occ. eigenvalues --  -14.84405 -10.68011 -10.66421  -1.03949  -0.88897
 Alpha  occ. eigenvalues --   -0.59609  -0.55062  -0.51420  -0.44873  -0.39015
 Alpha  occ. eigenvalues --   -0.38493
 Alpha virt. eigenvalues --    0.03391   0.06459   0.08098   0.10108   0.11172
 Alpha virt. eigenvalues --    0.11904   0.15388   0.16176   0.16508   0.19990
 Alpha virt. eigenvalues --    0.20227   0.25590   0.32267   0.32872   0.34904

 Mulliken charges:
               1
     1  C   -0.093658
     2  C    0.002036
     3  N   -0.207641
     4  H    0.108943
     5  H    0.093718
     6  H    0.096603
 Sum of Mulliken charges =   0.00000

 Dipole moment (field-independent basis, Debye):
    X=             -4.1080    Y=              0.0177    Z=             -0.0184  Tot=              4.1081
 Quadrupole moment (field-independent basis, Debye-Ang):
   XX=            -21.0915   YY=            -17.6636   ZZ=            -17.9468
   XY=              0.1908   XZ=             -0.1538   YZ=             -0.0651

 Normal termination of Gaussian 09 at Wed Aug 26 12:20:28 2020.
