 Gaussian 09, Revision D.01,
 Gaussian 09:  ES64L-G09RevD.01 24-Apr-2013

 --------------------
 #p B2PLYPD3/Def2QZVP
 --------------------

 ------------
 cyanomethane
 ------------
 Symbolic Z-matrix:
 Charge =  0 Multiplicity = 1

                         Standard orientation:
 ---------------------------------------------------------------------
 Center     Atomic      Atomic             Coordinates (Angstroms)
 Number     Number       Type             X           Y           Z
 ---------------------------------------------------------------------
      1          6           0       -1.192273    0.010774   -0.004914
      2          6           0        0.290566   -0.026794   -0.033016
      3          7           0        1.436236    0.009030    0.019597
      4          1           0       -1.491108    1.013474   -0.337310
      5          1           0       -1.578182   -0.168853    1.062138
      6          1           0       -1.574116   -0.811709   -0.634428
 ---------------------------------------------------------------------

 SCF Done:  E(RB2PLYPD3) =  -132.531863422     A.U. after   12 cycles
 E2(B2PLYPD3) =    -0.1802864446D+00 E(B2PLYPD3) =    -0.13271214986694D+03

 The electronic state is 1-A.
 Alpha  occ. eigenvalues --  -14.83977 -10.68220 -10.66096  -1.04317  -0.88187
 Alpha  occ. eigenvalues --   -0.58479  -0.54392  -0.52352  -0.44672  -0.39355
 Alpha  occ. eigenvalues --   -0.39114
 Alpha virt. eigenvalues --    0.03508   0.07535   0.08271   0.10210   0.11290
 Alpha virt. eigenvalues --    0.11623   0.15103   0.15998   0.16393   0.19968
 Alpha virt. eigenvalues --    0.20087   0.24954   0.32278   0.33553   0.34749

 Mulliken charges:
               1
     1  C   -0.102823
     2  C   -0.003285
     3  N   -0.201410
     4  H    0.107427
     5  H    0.097577
     6  H    0.102515
 Sum of Mulliken charges =   0.00000

 Dipole moment (field-independent basis, Debye):
    X=             -4.1020    Y=             -0.0150    Z=             -0.0224  Tot=              4.1021
 Quadrupole moment (field-independent basis, Debye-Ang):
   XX=            -21.2169   YY=            -17.6246   ZZ=            -17.8482
   XY=              0.0305   XZ=             -0.1636   YZ=             -0.0026

 Normal termination of Gaussian 09 at Wed Aug 26 12:37:26 2020.
