 Gaussian 09, Revision D.01,
 Gaussian 09:  ES64L-G09RevD.01 24-Apr-2013

 --------------------
 #p B2PLYPD3/Def2QZVP
 --------------------

 ------------
 cyanomethane
 ------------
 Symbolic Z-matrix:
 Charge =  0 Multiplicity = 1

                         Standard orientation:
 ---------------------------------------------------------------------
 Center     Atomic      Atomic             Coordinates (Angstroms)
 Number     Number       Type             X           Y           Z
 ---------------------------------------------------------------------
      1          6           0       -1.203560   -0.000079   -0.000345
      2          6           0        0.266595   -0.052813    0.024862
      3          7           0        1.453137    0.015310   -0.014348
      4          1           0       -1.489370    0.110851    0.963447
      5          1           0       -1.667800   -0.842901   -0.478608
      6          1           0       -1.392999    0.942226   -0.531510
 ---------------------------------------------------------------------

 SCF Done:  E(RB2PLYPD3) =  -132.523637182     A.U. after   12 cycles
 E2(B2PLYPD3) =    -0.1833352512D+00 E(B2PLYPD3) =    -0.13270697243283D+03

 The electronic state is 1-A.
 Alpha  occ. eigenvalues --  -14.85034 -10.67245 -10.66613  -1.02689  -0.89984
 Alpha  occ. eigenvalues --   -0.59553  -0.55686  -0.54186  -0.44733  -0.38411
 Alpha  occ. eigenvalues --   -0.38101
 Alpha virt. eigenvalues --    0.03687   0.07379   0.08165   0.10207   0.10789
 Alpha virt. eigenvalues --    0.11177   0.14905   0.15429   0.16546   0.20200
 Alpha virt. eigenvalues --    0.20295   0.25148   0.32170   0.33977   0.35637

 Mulliken charges:
               1
     1  C   -0.089226
     2  C    0.003162
     3  N   -0.223586
     4  H    0.103918
     5  H    0.102225
     6  H    0.103507
 Sum of Mulliken charges =   0.00000

 Dipole moment (field-independent basis, Debye):
    X=             -4.1883    Y=              0.0131    Z=              0.0347  Tot=              4.1885
 Quadrupole moment (field-independent basis, Debye-Ang):
   XX=            -21.1241   YY=            -17.7224   ZZ=            -17.8755
   XY=              0.0816   XZ=              0.0465   YZ=              0.0432

 Normal termination of Gaussian 09 at Wed Aug 26 22:57:11 2020.
