 Gaussian 09, Revision D.01,
 Gaussian 09:  ES64L-G09RevD.01 24-Apr-2013

 --------------------
 #p B2PLYPD3/Def2QZVP
 --------------------

 ------------
 cyanomethane
 ------------
 Symbolic Z-matrix:
 Charge =  0 Multiplicity = 1

                         Standard orientation:
 ---------------------------------------------------------------------
 Center     Atomic      Atomic             Coordinates (Angstroms)
 Number     Number       Type             X           Y           Z
 ---------------------------------------------------------------------
      1          6           0       -1.145734   -0.009363    0.027251
      2          6           0        0.276700    0.048563   -0.013756
      3          7           0        1.418929   -0.035508   -0.002744
      4          1           0       -1.749656   -0.849017   -0.561404
      5          1           0       -1.482026    0.922179   -0.450012
      6          1           0       -1.486617   -0.059804    0.949652
 ---------------------------------------------------------------------

 SCF Done:  E(RB2PLYPD3) =  -132.516604883     A.U. after   12 cycles
 E2(B2PLYPD3) =    -0.1801724589D+00 E(B2PLYPD3) =    -0.13269677734174D+03

 The electronic state is 1-A.
 Alpha  occ. eigenvalues --  -14.84079 -10.66629 -10.65997  -1.04722  -0.90005
 Alpha  occ. eigenvalues --   -0.61348  -0.55354  -0.51547  -0.44979  -0.39428
 Alpha  occ. eigenvalues --   -0.38825
 Alpha virt. eigenvalues --    0.03371   0.06751   0.08630   0.10012   0.11559
 Alpha virt. eigenvalues --    0.11994   0.15525   0.15953   0.17950   0.19956
 Alpha virt. eigenvalues --    0.20439   0.26196   0.32329   0.33460   0.35617

 Mulliken charges:
               1
     1  C   -0.080107
     2  C    0.006155
     3  N   -0.201159
     4  H    0.084808
     5  H    0.088647
     6  H    0.101656
 Sum of Mulliken charges =   0.00000

 Dipole moment (field-independent basis, Debye):
    X=             -4.0889    Y=              0.0972    Z=              0.0329  Tot=              4.0902
 Quadrupole moment (field-independent basis, Debye-Ang):
   XX=            -20.6825   YY=            -17.8247   ZZ=            -17.7765
   XY=              0.2909   XZ=              0.0690   YZ=             -0.0825

 Normal termination of Gaussian 09 at Wed Aug 26 23:29:00 2020.
