 Gaussian 09, Revision D.01,
 Gaussian 09:  ES64L-G09RevD.01 24-Apr-2013

 --------------------
 #p B2PLYPD3/Def2QZVP
 --------------------

 ------------
 cyanomethane
 ------------
 Symbolic Z-matrix:
 Charge =  0 Multiplicity = 1

                         Standard orientation:
 ---------------------------------------------------------------------
 Center     Atomic      Atomic             Coordinates (Angstroms)
 Number     Number       Type             X           Y           Z
 ---------------------------------------------------------------------
      1          6           0       -1.178905    0.003142   -0.003438
      2          6           0        0.276083    0.016646    0.004732
      3          7           0        1.441122   -0.009897   -0.004743
      4          1           0       -1.549050    1.034390   -0.080943
      5          1           0       -1.529286   -0.462935    0.943464
      6          1           0       -1.592586   -0.620908   -0.837085
 ---------------------------------------------------------------------

 SCF Done:  E(RB2PLYPD3) =  -132.532819195     A.U. after   12 cycles
 E2(B2PLYPD3) =    -0.1817127591D+00 E(B2PLYPD3) =    -0.13271453195382D+03

 The electronic state is 1-A.
 Alpha  occ. eigenvalues --  -14.84516 -10.67783 -10.66602  -1.03695  -0.88847
 Alpha  occ. eigenvalues --   -0.59557  -0.54033  -0.52957  -0.44840  -0.38816
 Alpha  occ. eigenvalues --   -0.38670
 Alpha virt. eigenvalues --    0.03615   0.07229   0.07673   0.10135   0.11272
 Alpha virt. eigenvalues --    0.11526   0.15330   0.15985   0.16530   0.20092
 Alpha virt. eigenvalues --    0.20179   0.25378   0.32436   0.33966   0.34529

 Mulliken charges:
               1
     1  C   -0.090766
     2  C    0.001496
     3  N   -0.210493
     4  H    0.102173
     5  H    0.099029
     6  H    0.098561
 Sum of Mulliken charges =   0.00000

 Dipole moment (field-independent basis, Debye):
    X=             -4.1355    Y=              0.0028    Z=              0.0149  Tot=              4.1355
 Quadrupole moment (field-independent basis, Debye-Ang):
   XX=            -21.0821   YY=            -17.7290   ZZ=            -17.8833
   XY=              0.0962   XZ=              0.0515   YZ=             -0.0100

 Normal termination of Gaussian 09 at Wed Aug 26 23:59:50 2020.
