 Gaussian 09, Revision D.01,
 Gaussian 09:  ES64L-G09RevD.01 24-Apr-2013

 --------------------
 #p B2PLYPD3/Def2QZVP
 --------------------

 ------------
 cyanomethane
 ------------
 Symbolic Z-matrix:
 Charge =  0 Multiplicity = 1

                         Standard orientation:
 ---------------------------------------------------------------------
 Center     Atomic      Atomic             Coordinates (Angstroms)
 Number     Number       Type             X           Y           Z
 ---------------------------------------------------------------------
      1          6           0        1.175060    0.009110    0.010789
      2          6           0       -0.277533   -0.000371   -0.013499
      3          7           0       -1.439275   -0.004495    0.001863
      4          1           0        1.518903    1.037069   -0.078461
      5          1           0        1.638996   -0.602750   -0.800168
      6          1           0        1.531862   -0.455287    0.881847
 ---------------------------------------------------------------------

 SCF Done:  E(RB2PLYPD3) =  -132.532383370     A.U. after   12 cycles
 E2(B2PLYPD3) =    -0.1811149905D+00 E(B2PLYPD3) =    -0.13271349836018D+03

 The electronic state is 1-A.
 Alpha  occ. eigenvalues --  -14.84454 -10.66945 -10.66524  -1.03875  -0.89436
 Alpha  occ. eigenvalues --   -0.60335  -0.54930  -0.52745  -0.44878  -0.39023
 Alpha  occ. eigenvalues --   -0.38776
 Alpha virt. eigenvalues --    0.03755   0.07392   0.08037   0.10170   0.11218
 Alpha virt. eigenvalues --    0.11620   0.15375   0.16347   0.16614   0.20048
 Alpha virt. eigenvalues --    0.20194   0.25443   0.32544   0.34383   0.35099

 Mulliken charges:
               1
     1  C   -0.075456
     2  C    0.001548
     3  N   -0.209528
     4  H    0.099470
     5  H    0.087665
     6  H    0.096301
 Sum of Mulliken charges =   0.00000

 Dipole moment (field-independent basis, Debye):
    X=              4.1479    Y=             -0.0194    Z=              0.0139  Tot=              4.1480
 Quadrupole moment (field-independent basis, Debye-Ang):
   XX=            -20.8771   YY=            -17.6318   ZZ=            -17.9806
   XY=             -0.1579   XZ=             -0.0240   YZ=             -0.0634

 Normal termination of Gaussian 09 at Wed Aug 26 14:21:04 2020.
