 Gaussian 09, Revision D.01,
 Gaussian 09:  ES64L-G09RevD.01 24-Apr-2013

 --------------------
 #p B2PLYPD3/Def2QZVP
 --------------------

 ------------
 cyanomethane
 ------------
 Symbolic Z-matrix:
 Charge =  0 Multiplicity = 1

                         Standard orientation:
 ---------------------------------------------------------------------
 Center     Atomic      Atomic             Coordinates (Angstroms)
 Number     Number       Type             X           Y           Z
 ---------------------------------------------------------------------
      1          6           0        1.168678   -0.009536   -0.010880
      2          6           0       -0.281961    0.019865   -0.008872
      3          7           0       -1.429706   -0.008610    0.006701
      4          1           0        1.547699   -0.589634   -0.833090
      5          1           0        1.567390   -0.451248    0.959802
      6          1           0        1.572548    1.039182   -0.055111
 ---------------------------------------------------------------------

 SCF Done:  E(RB2PLYPD3) =  -132.533264330     A.U. after   11 cycles
 E2(B2PLYPD3) =    -0.1802702984D+00 E(B2PLYPD3) =    -0.13271353462854D+03

 The electronic state is 1-A.
 Alpha  occ. eigenvalues --  -14.84058 -10.67715 -10.66094  -1.04415  -0.88784
 Alpha  occ. eigenvalues --   -0.59720  -0.54109  -0.52497  -0.44822  -0.39276
 Alpha  occ. eigenvalues --   -0.39004
 Alpha virt. eigenvalues --    0.03619   0.07391   0.07923   0.10152   0.11495
 Alpha virt. eigenvalues --    0.11787   0.15444   0.16241   0.16668   0.20012
 Alpha virt. eigenvalues --    0.20094   0.25499   0.32615   0.33675   0.34864

 Mulliken charges:
               1
     1  C   -0.089607
     2  C   -0.000379
     3  N   -0.201872
     4  H    0.102227
     5  H    0.094462
     6  H    0.095169
 Sum of Mulliken charges =   0.00000

 Dipole moment (field-independent basis, Debye):
    X=              4.1039    Y=              0.0114    Z=             -0.0075  Tot=              4.1039
 Quadrupole moment (field-independent basis, Debye-Ang):
   XX=            -21.0107   YY=            -17.7689   ZZ=            -17.7681
   XY=             -0.0371   XZ=              0.0649   YZ=              0.0639

 Normal termination of Gaussian 09 at Wed Aug 26 15:26:06 2020.
