 Gaussian 09, Revision D.01,
 Gaussian 09:  ES64L-G09RevD.01 24-Apr-2013

 --------------------
 #p B2PLYPD3/Def2QZVP
 --------------------

 ------------
 cyanomethane
 ------------
 Symbolic Z-matrix:
 Charge =  0 Multiplicity = 1

                         Standard orientation:
 ---------------------------------------------------------------------
 Center     Atomic      Atomic             Coordinates (Angstroms)
 Number     Number       Type             X           Y           Z
 ---------------------------------------------------------------------
      1          6           0        1.180557   -0.014026    0.000702
      2          6           0       -0.271215    0.029496   -0.000922
      3          7           0       -1.438617   -0.007135    0.000744
      4          1           0        1.518655   -0.290664    0.999233
      5          1           0        1.624058    0.998554   -0.264338
      6          1           0        1.471555   -0.750766   -0.738787
 ---------------------------------------------------------------------

 SCF Done:  E(RB2PLYPD3) =  -132.532109870     A.U. after   12 cycles
 E2(B2PLYPD3) =    -0.1818288948D+00 E(B2PLYPD3) =    -0.13271393876475D+03

 The electronic state is 1-A.
 Alpha  occ. eigenvalues --  -14.84505 -10.67577 -10.66583  -1.03565  -0.89142
 Alpha  occ. eigenvalues --   -0.59310  -0.54597  -0.53188  -0.44774  -0.38697
 Alpha  occ. eigenvalues --   -0.38592
 Alpha virt. eigenvalues --    0.03664   0.07247   0.07812   0.10155   0.11308
 Alpha virt. eigenvalues --    0.11405   0.15278   0.15983   0.16199   0.20143
 Alpha virt. eigenvalues --    0.20161   0.25446   0.32254   0.34192   0.34608

 Mulliken charges:
               1
     1  C   -0.094365
     2  C    0.000990
     3  N   -0.212844
     4  H    0.103418
     5  H    0.096881
     6  H    0.105919
 Sum of Mulliken charges =   0.00000

 Dipole moment (field-independent basis, Debye):
    X=              4.1325    Y=             -0.0051    Z=              0.0033  Tot=              4.1325
 Quadrupole moment (field-independent basis, Debye-Ang):
   XX=            -21.1783   YY=            -17.7870   ZZ=            -17.7538
   XY=              0.0557   XZ=              0.0219   YZ=              0.0341

 Normal termination of Gaussian 09 at Wed Aug 26 12:54:39 2020.
