 Gaussian 09, Revision D.01,
 Gaussian 09:  ES64L-G09RevD.01 24-Apr-2013

 --------------------
 #p B2PLYPD3/Def2QZVP
 --------------------

 ------------
 cyanomethane
 ------------
 Symbolic Z-matrix:
 Charge =  0 Multiplicity = 1

                         Standard orientation:
 ---------------------------------------------------------------------
 Center     Atomic      Atomic             Coordinates (Angstroms)
 Number     Number       Type             X           Y           Z
 ---------------------------------------------------------------------
      1          6           0        1.175243   -0.007372    0.005772
      2          6           0       -0.282027   -0.014777    0.002941
      3          7           0       -1.436146    0.013240   -0.003943
      4          1           0        1.632382    0.905412   -0.483957
      5          1           0        1.523005   -0.853182   -0.528535
      6          1           0        1.538335   -0.012021    0.987822
 ---------------------------------------------------------------------

 SCF Done:  E(RB2PLYPD3) =  -132.532416167     A.U. after   12 cycles
 E2(B2PLYPD3) =    -0.1804013593D+00 E(B2PLYPD3) =    -0.13271281752638D+03

 The electronic state is 1-A.
 Alpha  occ. eigenvalues --  -14.84266 -10.66777 -10.66326  -1.04170  -0.89465
 Alpha  occ. eigenvalues --   -0.60210  -0.55086  -0.52782  -0.44862  -0.39241
 Alpha  occ. eigenvalues --   -0.39004
 Alpha virt. eigenvalues --    0.03727   0.07497   0.08434   0.10182   0.11281
 Alpha virt. eigenvalues --    0.11616   0.15465   0.16227   0.16829   0.20032
 Alpha virt. eigenvalues --    0.20151   0.25364   0.32642   0.34321   0.35366

 Mulliken charges:
               1
     1  C   -0.074321
     2  C   -0.000403
     3  N   -0.205718
     4  H    0.088037
     5  H    0.096402
     6  H    0.096003
 Sum of Mulliken charges =   0.00000

 Dipole moment (field-independent basis, Debye):
    X=              4.1359    Y=             -0.0288    Z=              0.0177  Tot=              4.1360
 Quadrupole moment (field-independent basis, Debye-Ang):
   XX=            -20.8382   YY=            -17.7871   ZZ=            -17.7779
   XY=              0.1377   XZ=             -0.0269   YZ=              0.0647

 Normal termination of Gaussian 09 at Thu Aug 27 00:12:10 2020.
