 Gaussian 09, Revision D.01,
 Gaussian 09:  ES64L-G09RevD.01 24-Apr-2013

 --------------------
 #p B2PLYPD3/Def2QZVP
 --------------------

 ------------
 cyanomethane
 ------------
 Symbolic Z-matrix:
 Charge =  0 Multiplicity = 1

                         Standard orientation:
 ---------------------------------------------------------------------
 Center     Atomic      Atomic             Coordinates (Angstroms)
 Number     Number       Type             X           Y           Z
 ---------------------------------------------------------------------
      1          6           0        1.183151   -0.012081    0.012633
      2          6           0       -0.273758   -0.024017   -0.021230
      3          7           0       -1.424482    0.012161   -0.001682
      4          1           0        1.548531    1.015951   -0.363570
      5          1           0        1.616765   -0.793295   -0.578693
      6          1           0        1.349715   -0.091193    1.005613
 ---------------------------------------------------------------------

 SCF Done:  E(RB2PLYPD3) =  -132.526280153     A.U. after   12 cycles
 E2(B2PLYPD3) =    -0.1801629970D+00 E(B2PLYPD3) =    -0.13270644315043D+03

 The electronic state is 1-A.
 Alpha  occ. eigenvalues --  -14.83916 -10.66802 -10.65991  -1.04174  -0.89894
 Alpha  occ. eigenvalues --   -0.58975  -0.56155  -0.53143  -0.44593  -0.39183
 Alpha  occ. eigenvalues --   -0.38875
 Alpha virt. eigenvalues --    0.03704   0.07647   0.08890   0.10268   0.11293
 Alpha virt. eigenvalues --    0.11664   0.15222   0.15520   0.16602   0.20058
 Alpha virt. eigenvalues --    0.20167   0.25331   0.32225   0.33867   0.35736

 Mulliken charges:
               1
     1  C   -0.099531
     2  C   -0.003911
     3  N   -0.207085
     4  H    0.096102
     5  H    0.103041
     6  H    0.111385
 Sum of Mulliken charges =   0.00000

 Dipole moment (field-independent basis, Debye):
    X=              4.1041    Y=             -0.0223    Z=              0.0286  Tot=              4.1042
 Quadrupole moment (field-independent basis, Debye-Ang):
   XX=            -21.2274   YY=            -17.6304   ZZ=            -17.6778
   XY=              0.0309   XZ=             -0.1603   YZ=              0.0406

 Normal termination of Gaussian 09 at Wed Aug 26 20:51:23 2020.
