 Gaussian 09, Revision D.01,
 Gaussian 09:  ES64L-G09RevD.01 24-Apr-2013

 --------------------
 #p B2PLYPD3/Def2QZVP
 --------------------

 ------------
 cyanomethane
 ------------
 Symbolic Z-matrix:
 Charge =  0 Multiplicity = 1

                         Standard orientation:
 ---------------------------------------------------------------------
 Center     Atomic      Atomic             Coordinates (Angstroms)
 Number     Number       Type             X           Y           Z
 ---------------------------------------------------------------------
      1          6           0       -1.149102   -0.030030   -0.019895
      2          6           0        0.287423    0.076283    0.009810
      3          7           0        1.420405   -0.034132   -0.003399
      4          1           0       -1.574304   -0.179886    0.960847
      5          1           0       -1.564891   -0.751690   -0.575616
      6          1           0       -1.633564    0.892979   -0.300935
 ---------------------------------------------------------------------

 SCF Done:  E(RB2PLYPD3) =  -132.526034231     A.U. after   12 cycles
 E2(B2PLYPD3) =    -0.1790912966D+00 E(B2PLYPD3) =    -0.13270512552729D+03

 The electronic state is 1-A.
 Alpha  occ. eigenvalues --  -14.84000 -10.65954 -10.65631  -1.05022  -0.90114
 Alpha  occ. eigenvalues --   -0.62141  -0.54776  -0.52701  -0.45048  -0.39763
 Alpha  occ. eigenvalues --   -0.39374
 Alpha virt. eigenvalues --    0.03842   0.08007   0.08180   0.10024   0.11648
 Alpha virt. eigenvalues --    0.11864   0.15829   0.16355   0.17905   0.19953
 Alpha virt. eigenvalues --    0.20179   0.26173   0.33291   0.34593   0.36006

 Mulliken charges:
               1
     1  C   -0.048536
     2  C    0.008596
     3  N   -0.197242
     4  H    0.074756
     5  H    0.087442
     6  H    0.074984
 Sum of Mulliken charges =   0.00000

 Dipole moment (field-independent basis, Debye):
    X=             -4.0988    Y=              0.0528    Z=              0.0307  Tot=              4.0993
 Quadrupole moment (field-independent basis, Debye-Ang):
   XX=            -20.3960   YY=            -17.7354   ZZ=            -17.8642
   XY=              0.1526   XZ=             -0.0425   YZ=              0.0736

 Normal termination of Gaussian 09 at Wed Aug 26 22:11:16 2020.
