 Gaussian 09, Revision D.01,
 Gaussian 09:  ES64L-G09RevD.01 24-Apr-2013

 --------------------
 #p B2PLYPD3/Def2QZVP
 --------------------

 ------------
 cyanomethane
 ------------
 Symbolic Z-matrix:
 Charge =  0 Multiplicity = 1

                         Standard orientation:
 ---------------------------------------------------------------------
 Center     Atomic      Atomic             Coordinates (Angstroms)
 Number     Number       Type             X           Y           Z
 ---------------------------------------------------------------------
      1          6           0        1.170178    0.023872    0.004328
      2          6           0       -0.257930    0.002124   -0.068196
      3          7           0       -1.428993   -0.008214    0.022916
      4          1           0        1.469236    1.117855   -0.026307
      5          1           0        1.667791   -0.708975   -0.780452
      6          1           0        1.392437   -0.507354    1.029552
 ---------------------------------------------------------------------

 SCF Done:  E(RB2PLYPD3) =  -132.516331870     A.U. after   12 cycles
 E2(B2PLYPD3) =    -0.1835163931D+00 E(B2PLYPD3) =    -0.13269984826334D+03

 The electronic state is 1-A.
 Alpha  occ. eigenvalues --  -14.84525 -10.69185 -10.66599  -1.03306  -0.88552
 Alpha  occ. eigenvalues --   -0.58292  -0.54586  -0.51538  -0.44693  -0.38376
 Alpha  occ. eigenvalues --   -0.37779
 Alpha virt. eigenvalues --    0.03140   0.06209   0.07087   0.10082   0.11169
 Alpha virt. eigenvalues --    0.11898   0.15012   0.15213   0.16417   0.20080
 Alpha virt. eigenvalues --    0.20266   0.25839   0.31248   0.32484   0.34199

 Mulliken charges:
               1
     1  C   -0.123347
     2  C    0.009040
     3  N   -0.216927
     4  H    0.119082
     5  H    0.103372
     6  H    0.108780
 Sum of Mulliken charges =   0.00000

 Dipole moment (field-independent basis, Debye):
    X=              4.0873    Y=             -0.0227    Z=              0.0112  Tot=              4.0873
 Quadrupole moment (field-independent basis, Debye-Ang):
   XX=            -21.6166   YY=            -17.4382   ZZ=            -18.0787
   XY=             -0.2223   XZ=             -0.0029   YZ=             -0.0122

 Normal termination of Gaussian 09 at Wed Aug 26 18:31:37 2020.
