 Gaussian 09, Revision D.01,
 Gaussian 09:  ES64L-G09RevD.01 24-Apr-2013

 --------------------
 #p B2PLYPD3/Def2QZVP
 --------------------

 ------------
 cyanomethane
 ------------
 Symbolic Z-matrix:
 Charge =  0 Multiplicity = 1

                         Standard orientation:
 ---------------------------------------------------------------------
 Center     Atomic      Atomic             Coordinates (Angstroms)
 Number     Number       Type             X           Y           Z
 ---------------------------------------------------------------------
      1          6           0       -1.164995   -0.000981    0.023509
      2          6           0        0.292707    0.038613   -0.008160
      3          7           0        1.445936   -0.027129   -0.003421
      4          1           0       -1.747504   -0.707802   -0.698420
      5          1           0       -1.555168    0.937273   -0.270831
      6          1           0       -1.585155   -0.265363    0.901109
 ---------------------------------------------------------------------

 SCF Done:  E(RB2PLYPD3) =  -132.520887142     A.U. after   12 cycles
 E2(B2PLYPD3) =    -0.1808814552D+00 E(B2PLYPD3) =    -0.13270176859673D+03

 The electronic state is 1-A.
 Alpha  occ. eigenvalues --  -14.84620 -10.66741 -10.66616  -1.04370  -0.89469
 Alpha  occ. eigenvalues --   -0.61920  -0.54981  -0.51071  -0.45185  -0.39509
 Alpha  occ. eigenvalues --   -0.38984
 Alpha virt. eigenvalues --    0.03470   0.06933   0.08270   0.10050   0.11272
 Alpha virt. eigenvalues --    0.11845   0.15542   0.16607   0.17828   0.19921
 Alpha virt. eigenvalues --    0.20432   0.25450   0.32219   0.34013   0.35795

 Mulliken charges:
               1
     1  C   -0.054656
     2  C    0.010893
     3  N   -0.204257
     4  H    0.073219
     5  H    0.084528
     6  H    0.090274
 Sum of Mulliken charges =   0.00000

 Dipole moment (field-independent basis, Debye):
    X=             -4.1490    Y=              0.0633    Z=              0.0276  Tot=              4.1496
 Quadrupole moment (field-independent basis, Debye-Ang):
   XX=            -20.3241   YY=            -17.9466   ZZ=            -17.9858
   XY=              0.2156   XZ=              0.0628   YZ=             -0.1378

 Normal termination of Gaussian 09 at Wed Aug 26 20:13:45 2020.
