 Gaussian 09, Revision D.01,
 Gaussian 09:  ES64L-G09RevD.01 24-Apr-2013

 --------------------
 #p B2PLYPD3/Def2QZVP
 --------------------

 ------------
 cyanomethane
 ------------
 Symbolic Z-matrix:
 Charge =  0 Multiplicity = 1

                         Standard orientation:
 ---------------------------------------------------------------------
 Center     Atomic      Atomic             Coordinates (Angstroms)
 Number     Number       Type             X           Y           Z
 ---------------------------------------------------------------------
      1          6           0       -1.185234    0.006285   -0.004759
      2          6           0        0.281438   -0.036369    0.005077
      3          7           0        1.427929    0.014068   -0.000056
      4          1           0       -1.458538    0.996861   -0.277761
      5          1           0       -1.567322   -0.211720    0.961378
      6          1           0       -1.546866   -0.703110   -0.685134
 ---------------------------------------------------------------------

 SCF Done:  E(RB2PLYPD3) =  -132.534393788     A.U. after   11 cycles
 E2(B2PLYPD3) =    -0.1794630367D+00 E(B2PLYPD3) =    -0.13271385682476D+03

 The electronic state is 1-A.
 Alpha  occ. eigenvalues --  -14.83899 -10.66227 -10.65950  -1.04324  -0.89842
 Alpha  occ. eigenvalues --   -0.59451  -0.55196  -0.54442  -0.44653  -0.39330
 Alpha  occ. eigenvalues --   -0.39248
 Alpha virt. eigenvalues --    0.03894   0.08444   0.08669   0.10251   0.11323
 Alpha virt. eigenvalues --    0.11481   0.15344   0.16196   0.16282   0.20043
 Alpha virt. eigenvalues --    0.20090   0.25233   0.32948   0.34956   0.35296

 Mulliken charges:
               1
     1  C   -0.080410
     2  C   -0.005372
     3  N   -0.204148
     4  H    0.099589
     5  H    0.093642
     6  H    0.096698
 Sum of Mulliken charges =   0.00000

 Dipole moment (field-independent basis, Debye):
    X=             -4.1219    Y=             -0.0189    Z=              0.0053  Tot=              4.1220
 Quadrupole moment (field-independent basis, Debye-Ang):
   XX=            -21.0171   YY=            -17.6039   ZZ=            -17.7179
   XY=             -0.0017   XZ=             -0.0508   YZ=              0.0141

 Normal termination of Gaussian 09 at Wed Aug 26 11:23:56 2020.
