 Gaussian 09, Revision D.01,
 Gaussian 09:  ES64L-G09RevD.01 24-Apr-2013

 --------------------
 #p B2PLYPD3/Def2QZVP
 --------------------

 ------------
 cyanomethane
 ------------
 Symbolic Z-matrix:
 Charge =  0 Multiplicity = 1

                         Standard orientation:
 ---------------------------------------------------------------------
 Center     Atomic      Atomic             Coordinates (Angstroms)
 Number     Number       Type             X           Y           Z
 ---------------------------------------------------------------------
      1          6           0        1.168888   -0.021552    0.027868
      2          6           0       -0.263887    0.054725   -0.010535
      3          7           0       -1.443660   -0.021532   -0.000449
      4          1           0        1.629322    0.971844   -0.257726
      5          1           0        1.545428   -0.720727   -0.722626
      6          1           0        1.500868   -0.299432    0.879503
 ---------------------------------------------------------------------

 SCF Done:  E(RB2PLYPD3) =  -132.516017664     A.U. after   12 cycles
 E2(B2PLYPD3) =    -0.1827592753D+00 E(B2PLYPD3) =    -0.13269877693957D+03

 The electronic state is 1-A.
 Alpha  occ. eigenvalues --  -14.85066 -10.67079 -10.66018  -1.03201  -0.90498
 Alpha  occ. eigenvalues --   -0.61677  -0.55866  -0.52828  -0.45037  -0.38640
 Alpha  occ. eigenvalues --   -0.38216
 Alpha virt. eigenvalues --    0.03756   0.06836   0.07806   0.10013   0.11172
 Alpha virt. eigenvalues --    0.11430   0.15647   0.16170   0.16739   0.20138
 Alpha virt. eigenvalues --    0.20273   0.25925   0.32247   0.34056   0.35630

 Mulliken charges:
               1
     1  C   -0.069831
     2  C    0.008713
     3  N   -0.218613
     4  H    0.086243
     5  H    0.089400
     6  H    0.104088
 Sum of Mulliken charges =   0.00000

 Dipole moment (field-independent basis, Debye):
    X=              4.1581    Y=             -0.0028    Z=              0.0024  Tot=              4.1581
 Quadrupole moment (field-independent basis, Debye-Ang):
   XX=            -20.7802   YY=            -17.8258   ZZ=            -17.8523
   XY=             -0.0928   XZ=             -0.0599   YZ=             -0.0498

 Normal termination of Gaussian 09 at Wed Aug 26 19:31:46 2020.
