 Gaussian 09, Revision D.01,
 Gaussian 09:  ES64L-G09RevD.01 24-Apr-2013

 --------------------
 #p B2PLYPD3/Def2QZVP
 --------------------

 ------------
 cyanomethane
 ------------
 Symbolic Z-matrix:
 Charge =  0 Multiplicity = 1

                         Standard orientation:
 ---------------------------------------------------------------------
 Center     Atomic      Atomic             Coordinates (Angstroms)
 Number     Number       Type             X           Y           Z
 ---------------------------------------------------------------------
      1          6           0        1.183474   -0.012018    0.004721
      2          6           0       -0.281919    0.005245   -0.020725
      3          7           0       -1.435767   -0.002447    0.011380
      4          1           0        1.561607   -0.077863    1.017149
      5          1           0        1.529713    0.948702   -0.416241
      6          1           0        1.549717   -0.813075   -0.584540
 ---------------------------------------------------------------------

 SCF Done:  E(RB2PLYPD3) =  -132.534871331     A.U. after   12 cycles
 E2(B2PLYPD3) =    -0.1803669105D+00 E(B2PLYPD3) =    -0.13271523824162D+03

 The electronic state is 1-A.
 Alpha  occ. eigenvalues --  -14.84177 -10.67001 -10.66260  -1.04097  -0.89255
 Alpha  occ. eigenvalues --   -0.59608  -0.54674  -0.53465  -0.44760  -0.39206
 Alpha  occ. eigenvalues --   -0.39000
 Alpha virt. eigenvalues --    0.03774   0.07883   0.08241   0.10180   0.11287
 Alpha virt. eigenvalues --    0.11518   0.15363   0.15958   0.16676   0.20063
 Alpha virt. eigenvalues --    0.20115   0.25222   0.32680   0.34248   0.35202

 Mulliken charges:
               1
     1  C   -0.083698
     2  C   -0.001999
     3  N   -0.206191
     4  H    0.097662
     5  H    0.094396
     6  H    0.099830
 Sum of Mulliken charges =   0.00000

 Dipole moment (field-independent basis, Debye):
    X=              4.1300    Y=              0.0096    Z=             -0.0152  Tot=              4.1301
 Quadrupole moment (field-independent basis, Debye-Ang):
   XX=            -21.0115   YY=            -17.7371   ZZ=            -17.7444
   XY=             -0.0132   XZ=              0.0822   YZ=              0.0427

 Normal termination of Gaussian 09 at Wed Aug 26 12:50:46 2020.
