 Gaussian 09, Revision D.01,
 Gaussian 09:  ES64L-G09RevD.01 24-Apr-2013

 --------------------
 #p B2PLYPD3/Def2QZVP
 --------------------

 ------------
 cyanomethane
 ------------
 Symbolic Z-matrix:
 Charge =  0 Multiplicity = 1

                         Standard orientation:
 ---------------------------------------------------------------------
 Center     Atomic      Atomic             Coordinates (Angstroms)
 Number     Number       Type             X           Y           Z
 ---------------------------------------------------------------------
      1          6           0       -1.176926    0.007871   -0.000982
      2          6           0        0.285223   -0.009730   -0.029751
      3          7           0        1.441236    0.007691    0.014841
      4          1           0       -1.549294   -0.369090    0.956084
      5          1           0       -1.560114   -0.659931   -0.737426
      6          1           0       -1.629024    0.986332   -0.138147
 ---------------------------------------------------------------------

 SCF Done:  E(RB2PLYPD3) =  -132.534087926     A.U. after   12 cycles
 E2(B2PLYPD3) =    -0.1806915949D+00 E(B2PLYPD3) =    -0.13271477952119D+03

 The electronic state is 1-A.
 Alpha  occ. eigenvalues --  -14.84407 -10.66920 -10.66505  -1.04094  -0.89219
 Alpha  occ. eigenvalues --   -0.60426  -0.54121  -0.53178  -0.44928  -0.39199
 Alpha  occ. eigenvalues --   -0.39027
 Alpha virt. eigenvalues --    0.03739   0.07585   0.08083   0.10155   0.11303
 Alpha virt. eigenvalues --    0.11560   0.15453   0.16175   0.17115   0.20041
 Alpha virt. eigenvalues --    0.20150   0.25325   0.32717   0.34485   0.35146

 Mulliken charges:
               1
     1  C   -0.070520
     2  C    0.002051
     3  N   -0.206409
     4  H    0.089756
     5  H    0.091986
     6  H    0.093135
 Sum of Mulliken charges =   0.00000

 Dipole moment (field-independent basis, Debye):
    X=             -4.1466    Y=             -0.0308    Z=             -0.0113  Tot=              4.1468
 Quadrupole moment (field-independent basis, Debye-Ang):
   XX=            -20.7526   YY=            -17.7682   ZZ=            -17.8909
   XY=             -0.0511   XZ=             -0.0939   YZ=              0.0202

 Normal termination of Gaussian 09 at Wed Aug 26 15:51:44 2020.
