 Gaussian 09, Revision D.01,
 Gaussian 09:  ES64L-G09RevD.01 24-Apr-2013

 --------------------
 #p B2PLYPD3/Def2QZVP
 --------------------

 ------------
 cyanomethane
 ------------
 Symbolic Z-matrix:
 Charge =  0 Multiplicity = 1

                         Standard orientation:
 ---------------------------------------------------------------------
 Center     Atomic      Atomic             Coordinates (Angstroms)
 Number     Number       Type             X           Y           Z
 ---------------------------------------------------------------------
      1          6           0        1.190090    0.024827    0.011282
      2          6           0       -0.273475    0.045078    0.018854
      3          7           0       -1.422941   -0.032557   -0.017372
      4          1           0        1.407355    1.039399   -0.104581
      5          1           0        1.606521   -0.684825   -0.884750
      6          1           0        1.447022   -0.546101    0.930115
 ---------------------------------------------------------------------

 SCF Done:  E(RB2PLYPD3) =  -132.517100367     A.U. after   12 cycles
 E2(B2PLYPD3) =    -0.1811529985D+00 E(B2PLYPD3) =    -0.13269825336576D+03

 The electronic state is 1-A.
 Alpha  occ. eigenvalues --  -14.83897 -10.68258 -10.65938  -1.04058  -0.88980
 Alpha  occ. eigenvalues --   -0.57522  -0.56851  -0.51189  -0.44496  -0.39139
 Alpha  occ. eigenvalues --   -0.38470
 Alpha virt. eigenvalues --    0.03170   0.06778   0.08915   0.10145   0.11035
 Alpha virt. eigenvalues --    0.11902   0.14868   0.15432   0.16209   0.19975
 Alpha virt. eigenvalues --    0.20220   0.25116   0.31337   0.32866   0.35406

 Mulliken charges:
               1
     1  C   -0.116336
     2  C   -0.003025
     3  N   -0.206895
     4  H    0.120142
     5  H    0.095167
     6  H    0.110947
 Sum of Mulliken charges =   0.00000

 Dipole moment (field-independent basis, Debye):
    X=              4.0495    Y=              0.0127    Z=              0.0429  Tot=              4.0498
 Quadrupole moment (field-independent basis, Debye-Ang):
   XX=            -21.6497   YY=            -17.3778   ZZ=            -17.9015
   XY=             -0.3793   XZ=             -0.1802   YZ=             -0.1391

 Normal termination of Gaussian 09 at Wed Aug 26 16:39:57 2020.
