 Gaussian 09, Revision D.01,
 Gaussian 09:  ES64L-G09RevD.01 24-Apr-2013

 --------------------
 #p B2PLYPD3/Def2QZVP
 --------------------

 ------------
 cyanomethane
 ------------
 Symbolic Z-matrix:
 Charge =  0 Multiplicity = 1

                         Standard orientation:
 ---------------------------------------------------------------------
 Center     Atomic      Atomic             Coordinates (Angstroms)
 Number     Number       Type             X           Y           Z
 ---------------------------------------------------------------------
      1          6           0        1.177235   -0.015256   -0.004477
      2          6           0       -0.291259   -0.001310    0.029788
      3          7           0       -1.441348    0.017627   -0.013754
      4          1           0        1.773700    0.989041   -0.361047
      5          1           0        1.422416   -0.819554   -0.667189
      6          1           0        1.577464   -0.193478    0.972648
 ---------------------------------------------------------------------

 SCF Done:  E(RB2PLYPD3) =  -132.522424100     A.U. after   12 cycles
 E2(B2PLYPD3) =    -0.1808821599D+00 E(B2PLYPD3) =    -0.13270330626028D+03

 The electronic state is 1-A.
 Alpha  occ. eigenvalues --  -14.84283 -10.68078 -10.66419  -1.04365  -0.88529
 Alpha  occ. eigenvalues --   -0.59646  -0.54654  -0.51030  -0.44913  -0.39341
 Alpha  occ. eigenvalues --   -0.38998
 Alpha virt. eigenvalues --    0.03217   0.06634   0.08423   0.10258   0.11362
 Alpha virt. eigenvalues --    0.11754   0.15172   0.15902   0.17445   0.19981
 Alpha virt. eigenvalues --    0.20248   0.25210   0.31257   0.33716   0.34971

 Mulliken charges:
               1
     1  C   -0.090776
     2  C    0.002358
     3  N   -0.202163
     4  H    0.088828
     5  H    0.104369
     6  H    0.097385
 Sum of Mulliken charges =   0.00000

 Dipole moment (field-independent basis, Debye):
    X=              4.1195    Y=             -0.0769    Z=              0.0524  Tot=              4.1205
 Quadrupole moment (field-independent basis, Debye-Ang):
   XX=            -20.8362   YY=            -17.8442   ZZ=            -17.9057
   XY=              0.2557   XZ=              0.0306   YZ=              0.1073

 Normal termination of Gaussian 09 at Wed Aug 26 21:56:47 2020.
