 Gaussian 09, Revision D.01,
 Gaussian 09:  ES64L-G09RevD.01 24-Apr-2013

 --------------------
 #p B2PLYPD3/Def2QZVP
 --------------------

 ------------
 cyanomethane
 ------------
 Symbolic Z-matrix:
 Charge =  0 Multiplicity = 1

                         Standard orientation:
 ---------------------------------------------------------------------
 Center     Atomic      Atomic             Coordinates (Angstroms)
 Number     Number       Type             X           Y           Z
 ---------------------------------------------------------------------
      1          6           0       -1.171748   -0.012454    0.004049
      2          6           0        0.282277    0.028532   -0.018810
      3          7           0        1.436669   -0.015338    0.005223
      4          1           0       -1.553407    1.010268   -0.036226
      5          1           0       -1.528809   -0.449109    0.882153
      6          1           0       -1.637640   -0.550258   -0.793926
 ---------------------------------------------------------------------

 SCF Done:  E(RB2PLYPD3) =  -132.532977461     A.U. after   11 cycles
 E2(B2PLYPD3) =    -0.1804031972D+00 E(B2PLYPD3) =    -0.13271338065832D+03

 The electronic state is 1-A.
 Alpha  occ. eigenvalues --  -14.84346 -10.66435 -10.66379  -1.04177  -0.89669
 Alpha  occ. eigenvalues --   -0.60885  -0.54241  -0.53597  -0.44930  -0.39191
 Alpha  occ. eigenvalues --   -0.39093
 Alpha virt. eigenvalues --    0.03841   0.07810   0.08074   0.10135   0.11446
 Alpha virt. eigenvalues --    0.11496   0.15534   0.16253   0.17119   0.20043
 Alpha virt. eigenvalues --    0.20155   0.25504   0.32832   0.34692   0.35383

 Mulliken charges:
               1
     1  C   -0.064737
     2  C    0.002915
     3  N   -0.206411
     4  H    0.087965
     5  H    0.091896
     6  H    0.088373
 Sum of Mulliken charges =   0.00000

 Dipole moment (field-independent basis, Debye):
    X=             -4.1430    Y=              0.0124    Z=              0.0069  Tot=              4.1430
 Quadrupole moment (field-independent basis, Debye-Ang):
   XX=            -20.7017   YY=            -17.7506   ZZ=            -17.8599
   XY=              0.1339   XZ=              0.0088   YZ=             -0.0149

 Normal termination of Gaussian 09 at Wed Aug 26 12:05:10 2020.
