 Gaussian 09, Revision D.01,
 Gaussian 09:  ES64L-G09RevD.01 24-Apr-2013

 --------------------
 #p B2PLYPD3/Def2QZVP
 --------------------

 ------------
 cyanomethane
 ------------
 Symbolic Z-matrix:
 Charge =  0 Multiplicity = 1

                         Standard orientation:
 ---------------------------------------------------------------------
 Center     Atomic      Atomic             Coordinates (Angstroms)
 Number     Number       Type             X           Y           Z
 ---------------------------------------------------------------------
      1          6           0       -1.164946    0.017574    0.005933
      2          6           0        0.278504   -0.001195   -0.017500
      3          7           0        1.430408   -0.005327    0.006425
      4          1           0       -1.517075    1.015831   -0.142681
      5          1           0       -1.556540   -0.402900    0.948464
      6          1           0       -1.620585   -0.673913   -0.781354
 ---------------------------------------------------------------------

 SCF Done:  E(RB2PLYPD3) =  -132.532709363     A.U. after   11 cycles
 E2(B2PLYPD3) =    -0.1805413685D+00 E(B2PLYPD3) =    -0.13271325073194D+03

 The electronic state is 1-A.
 Alpha  occ. eigenvalues --  -14.84177 -10.67419 -10.66196  -1.04285  -0.89101
 Alpha  occ. eigenvalues --   -0.60063  -0.54741  -0.52201  -0.44861  -0.39218
 Alpha  occ. eigenvalues --   -0.38849
 Alpha virt. eigenvalues --    0.03667   0.07221   0.07982   0.10150   0.11386
 Alpha virt. eigenvalues --    0.11853   0.15466   0.16415   0.16620   0.20000
 Alpha virt. eigenvalues --    0.20151   0.25620   0.32555   0.33904   0.35073

 Mulliken charges:
               1
     1  C   -0.082647
     2  C    0.000402
     3  N   -0.204234
     4  H    0.102279
     5  H    0.094787
     6  H    0.089413
 Sum of Mulliken charges =   0.00000

 Dipole moment (field-independent basis, Debye):
    X=             -4.1169    Y=             -0.0056    Z=              0.0060  Tot=              4.1169
 Quadrupole moment (field-independent basis, Debye-Ang):
   XX=            -20.9359   YY=            -17.6427   ZZ=            -17.9304
   XY=              0.1401   XZ=             -0.0353   YZ=             -0.0546

 Normal termination of Gaussian 09 at Wed Aug 26 13:48:00 2020.
