 Gaussian 09, Revision D.01,
 Gaussian 09:  ES64L-G09RevD.01 24-Apr-2013

 --------------------
 #p B2PLYPD3/Def2QZVP
 --------------------

 ------------
 cyanomethane
 ------------
 Symbolic Z-matrix:
 Charge =  0 Multiplicity = 1

                         Standard orientation:
 ---------------------------------------------------------------------
 Center     Atomic      Atomic             Coordinates (Angstroms)
 Number     Number       Type             X           Y           Z
 ---------------------------------------------------------------------
      1          6           0        1.175345   -0.008926    0.007513
      2          6           0       -0.273236    0.006225   -0.017889
      3          7           0       -1.439953   -0.002222    0.005696
      4          1           0        1.566111    1.008054   -0.235454
      5          1           0        1.583548   -0.703852   -0.715685
      6          1           0        1.517357   -0.272442    0.973518
 ---------------------------------------------------------------------

 SCF Done:  E(RB2PLYPD3) =  -132.533358795     A.U. after   12 cycles
 E2(B2PLYPD3) =    -0.1815214096D+00 E(B2PLYPD3) =    -0.13271488020421D+03

 The electronic state is 1-A.
 Alpha  occ. eigenvalues --  -14.84567 -10.66964 -10.66626  -1.03664  -0.89489
 Alpha  occ. eigenvalues --   -0.60196  -0.54505  -0.53453  -0.44875  -0.38824
 Alpha  occ. eigenvalues --   -0.38683
 Alpha virt. eigenvalues --    0.03761   0.07481   0.07783   0.10139   0.11314
 Alpha virt. eigenvalues --    0.11423   0.15455   0.16206   0.16475   0.20142
 Alpha virt. eigenvalues --    0.20156   0.25512   0.32581   0.34292   0.35077

 Mulliken charges:
               1
     1  C   -0.078158
     2  C    0.001569
     3  N   -0.211969
     4  H    0.093286
     5  H    0.096137
     6  H    0.099135
 Sum of Mulliken charges =   0.00000

 Dipole moment (field-independent basis, Debye):
    X=              4.1484    Y=             -0.0023    Z=              0.0030  Tot=              4.1484
 Quadrupole moment (field-independent basis, Debye-Ang):
   XX=            -20.9461   YY=            -17.7961   ZZ=            -17.8009
   XY=             -0.0198   XZ=              0.0026   YZ=              0.0032

 Normal termination of Gaussian 09 at Wed Aug 26 23:56:52 2020.
