 Gaussian 09, Revision D.01,
 Gaussian 09:  ES64L-G09RevD.01 24-Apr-2013

 --------------------
 #p B2PLYPD3/Def2QZVP
 --------------------

 ------------
 cyanomethane
 ------------
 Symbolic Z-matrix:
 Charge =  0 Multiplicity = 1

                         Standard orientation:
 ---------------------------------------------------------------------
 Center     Atomic      Atomic             Coordinates (Angstroms)
 Number     Number       Type             X           Y           Z
 ---------------------------------------------------------------------
      1          6           0       -1.194285    0.032430    0.016147
      2          6           0        0.295609    0.046845    0.017269
      3          7           0        1.432660   -0.021820   -0.010030
      4          1           0       -1.521711   -0.545811    0.915939
      5          1           0       -1.488546   -0.725327   -0.885817
      6          1           0       -1.626314    0.948233   -0.160409
 ---------------------------------------------------------------------

 SCF Done:  E(RB2PLYPD3) =  -132.521775566     A.U. after   12 cycles
 E2(B2PLYPD3) =    -0.1798436571D+00 E(B2PLYPD3) =    -0.13270161922321D+03

 The electronic state is 1-A.
 Alpha  occ. eigenvalues --  -14.83735 -10.68364 -10.65945  -1.04632  -0.88156
 Alpha  occ. eigenvalues --   -0.59180  -0.55374  -0.50722  -0.44637  -0.39812
 Alpha  occ. eigenvalues --   -0.38884
 Alpha virt. eigenvalues --    0.03281   0.07342   0.08732   0.10250   0.11034
 Alpha virt. eigenvalues --    0.12134   0.15041   0.15650   0.17112   0.19849
 Alpha virt. eigenvalues --    0.20141   0.24711   0.31315   0.32532   0.35502

 Mulliken charges:
               1
     1  C   -0.107121
     2  C   -0.000682
     3  N   -0.197618
     4  H    0.103955
     5  H    0.089557
     6  H    0.111908
 Sum of Mulliken charges =   0.00000

 Dipole moment (field-independent basis, Debye):
    X=             -4.0965    Y=              0.0065    Z=              0.0170  Tot=              4.0965
 Quadrupole moment (field-independent basis, Debye-Ang):
   XX=            -21.2078   YY=            -17.5619   ZZ=            -17.9181
   XY=              0.0870   XZ=              0.0654   YZ=             -0.1575

 Normal termination of Gaussian 09 at Wed Aug 26 22:36:22 2020.
