 Gaussian 09, Revision D.01,
 Gaussian 09:  ES64L-G09RevD.01 24-Apr-2013

 --------------------
 #p B2PLYPD3/Def2QZVP
 --------------------

 ------------
 cyanomethane
 ------------
 Symbolic Z-matrix:
 Charge =  0 Multiplicity = 1

                         Standard orientation:
 ---------------------------------------------------------------------
 Center     Atomic      Atomic             Coordinates (Angstroms)
 Number     Number       Type             X           Y           Z
 ---------------------------------------------------------------------
      1          6           0        1.177809    0.001069   -0.010290
      2          6           0       -0.268945    0.021570    0.012988
      3          7           0       -1.433158   -0.012173   -0.003779
      4          1           0        1.555065   -0.391135    0.946160
      5          1           0        1.511044    0.992758   -0.147290
      6          1           0        1.512815   -0.652245   -0.788602
 ---------------------------------------------------------------------

 SCF Done:  E(RB2PLYPD3) =  -132.533475348     A.U. after   11 cycles
 E2(B2PLYPD3) =    -0.1811691883D+00 E(B2PLYPD3) =    -0.13271464453592D+03

 The electronic state is 1-A.
 Alpha  occ. eigenvalues --  -14.84379 -10.66642 -10.66408  -1.03691  -0.89847
 Alpha  occ. eigenvalues --   -0.59703  -0.55311  -0.53837  -0.44751  -0.38829
 Alpha  occ. eigenvalues --   -0.38669
 Alpha virt. eigenvalues --    0.03807   0.07675   0.08191   0.10141   0.11210
 Alpha virt. eigenvalues --    0.11470   0.15439   0.15968   0.16275   0.20120
 Alpha virt. eigenvalues --    0.20195   0.25532   0.32781   0.34408   0.35132

 Mulliken charges:
               1
     1  C   -0.083580
     2  C   -0.000991
     3  N   -0.212461
     4  H    0.095228
     5  H    0.101229
     6  H    0.100575
 Sum of Mulliken charges =   0.00000

 Dipole moment (field-independent basis, Debye):
    X=              4.1360    Y=              0.0110    Z=              0.0055  Tot=              4.1361
 Quadrupole moment (field-independent basis, Debye-Ang):
   XX=            -21.0962   YY=            -17.6615   ZZ=            -17.7780
   XY=             -0.0921   XZ=              0.0188   YZ=              0.0177

 Normal termination of Gaussian 09 at Thu Aug 27 00:01:55 2020.
