 Gaussian 09, Revision D.01,
 Gaussian 09:  ES64L-G09RevD.01 24-Apr-2013

 --------------------
 #p B2PLYPD3/Def2QZVP
 --------------------

 ------------
 cyanomethane
 ------------
 Symbolic Z-matrix:
 Charge =  0 Multiplicity = 1

                         Standard orientation:
 ---------------------------------------------------------------------
 Center     Atomic      Atomic             Coordinates (Angstroms)
 Number     Number       Type             X           Y           Z
 ---------------------------------------------------------------------
      1          6           0        1.156527    0.002071   -0.016896
      2          6           0       -0.273166   -0.010224    0.015926
      3          7           0       -1.434469    0.005594   -0.003456
      4          1           0        1.612191   -0.505756    0.889213
      5          1           0        1.586489    1.027462    0.007264
      6          1           0        1.542429   -0.511946   -0.866466
 ---------------------------------------------------------------------

 SCF Done:  E(RB2PLYPD3) =  -132.531798907     A.U. after   11 cycles
 E2(B2PLYPD3) =    -0.1813924600D+00 E(B2PLYPD3) =    -0.13271319136741D+03

 The electronic state is 1-A.
 Alpha  occ. eigenvalues --  -14.84513 -10.67252 -10.66507  -1.03996  -0.89340
 Alpha  occ. eigenvalues --   -0.60858  -0.54204  -0.52458  -0.44996  -0.38938
 Alpha  occ. eigenvalues --   -0.38662
 Alpha virt. eigenvalues --    0.03675   0.06997   0.07556   0.10086   0.11463
 Alpha virt. eigenvalues --    0.11739   0.15605   0.16415   0.16859   0.20097
 Alpha virt. eigenvalues --    0.20161   0.25875   0.32648   0.33986   0.35005

 Mulliken charges:
               1
     1  C   -0.072901
     2  C    0.003858
     3  N   -0.208364
     4  H    0.087045
     5  H    0.092828
     6  H    0.097534
 Sum of Mulliken charges =   0.00000

 Dipole moment (field-independent basis, Debye):
    X=              4.1369    Y=             -0.0118    Z=              0.0022  Tot=              4.1369
 Quadrupole moment (field-independent basis, Debye-Ang):
   XX=            -20.7890   YY=            -17.8362   ZZ=            -17.8673
   XY=              0.0296   XZ=              0.0340   YZ=              0.0693

 Normal termination of Gaussian 09 at Wed Aug 26 11:32:33 2020.
