 Gaussian 09, Revision D.01,
 Gaussian 09:  ES64L-G09RevD.01 24-Apr-2013

 --------------------
 #p B2PLYPD3/Def2QZVP
 --------------------

 ------------
 cyanomethane
 ------------
 Symbolic Z-matrix:
 Charge =  0 Multiplicity = 1

                         Standard orientation:
 ---------------------------------------------------------------------
 Center     Atomic      Atomic             Coordinates (Angstroms)
 Number     Number       Type             X           Y           Z
 ---------------------------------------------------------------------
      1          6           0        1.183978    0.023902   -0.001785
      2          6           0       -0.291298   -0.003611    0.021584
      3          7           0       -1.434154   -0.000831   -0.010657
      4          1           0        1.558322    1.027606   -0.080604
      5          1           0        1.555546   -0.630047   -0.876640
      6          1           0        1.569131   -0.513487    0.913041
 ---------------------------------------------------------------------

 SCF Done:  E(RB2PLYPD3) =  -132.531354466     A.U. after   12 cycles
 E2(B2PLYPD3) =    -0.1799714425D+00 E(B2PLYPD3) =    -0.13271132590827D+03

 The electronic state is 1-A.
 Alpha  occ. eigenvalues --  -14.83903 -10.68169 -10.66022  -1.04532  -0.88236
 Alpha  occ. eigenvalues --   -0.58998  -0.54466  -0.51868  -0.44729  -0.39546
 Alpha  occ. eigenvalues --   -0.39088
 Alpha virt. eigenvalues --    0.03546   0.07530   0.08131   0.10193   0.11338
 Alpha virt. eigenvalues --    0.11845   0.15203   0.15959   0.16841   0.19943
 Alpha virt. eigenvalues --    0.20090   0.25046   0.32320   0.33189   0.35064

 Mulliken charges:
               1
     1  C   -0.097879
     2  C   -0.002298
     3  N   -0.199021
     4  H    0.107721
     5  H    0.095028
     6  H    0.096448
 Sum of Mulliken charges =   0.00000

 Dipole moment (field-independent basis, Debye):
    X=              4.1029    Y=             -0.0173    Z=              0.0186  Tot=              4.1030
 Quadrupole moment (field-independent basis, Debye-Ang):
   XX=            -21.1117   YY=            -17.5930   ZZ=            -17.9182
   XY=             -0.0620   XZ=             -0.0496   YZ=             -0.0330

 Normal termination of Gaussian 09 at Wed Aug 26 14:05:14 2020.
