 Gaussian 09, Revision D.01,
 Gaussian 09:  ES64L-G09RevD.01 24-Apr-2013

 --------------------
 #p B2PLYPD3/Def2QZVP
 --------------------

 ------------
 cyanomethane
 ------------
 Symbolic Z-matrix:
 Charge =  0 Multiplicity = 1

                         Standard orientation:
 ---------------------------------------------------------------------
 Center     Atomic      Atomic             Coordinates (Angstroms)
 Number     Number       Type             X           Y           Z
 ---------------------------------------------------------------------
      1          6           0        1.172276   -0.003153   -0.020565
      2          6           0       -0.266745    0.023184    0.002320
      3          7           0       -1.427196   -0.012334    0.003959
      4          1           0        1.561942   -0.035158    1.021694
      5          1           0        1.491563    0.907099   -0.450021
      6          1           0        1.503678   -0.905792   -0.489918
 ---------------------------------------------------------------------

 SCF Done:  E(RB2PLYPD3) =  -132.532258449     A.U. after   11 cycles
 E2(B2PLYPD3) =    -0.1809380237D+00 E(B2PLYPD3) =    -0.13271319647305D+03

 The electronic state is 1-A.
 Alpha  occ. eigenvalues --  -14.84226 -10.66693 -10.66226  -1.03844  -0.89921
 Alpha  occ. eigenvalues --   -0.59640  -0.56034  -0.53113  -0.44715  -0.38941
 Alpha  occ. eigenvalues --   -0.38574
 Alpha virt. eigenvalues --    0.03785   0.07555   0.08293   0.10130   0.11183
 Alpha virt. eigenvalues --    0.11698   0.15356   0.15943   0.16390   0.20066
 Alpha virt. eigenvalues --    0.20230   0.25656   0.32810   0.33920   0.35477

 Mulliken charges:
               1
     1  C   -0.085637
     2  C   -0.001125
     3  N   -0.211298
     4  H    0.090792
     5  H    0.103621
     6  H    0.103647
 Sum of Mulliken charges =   0.00000

 Dipole moment (field-independent basis, Debye):
    X=              4.1249    Y=              0.0137    Z=              0.0197  Tot=              4.1250
 Quadrupole moment (field-independent basis, Debye-Ang):
   XX=            -21.1441   YY=            -17.5067   ZZ=            -17.8875
   XY=             -0.0821   XZ=              0.1431   YZ=             -0.0069

 Normal termination of Gaussian 09 at Wed Aug 26 15:14:03 2020.
