 Gaussian 09, Revision D.01,
 Gaussian 09:  ES64L-G09RevD.01 24-Apr-2013

 --------------------
 #p B2PLYPD3/Def2QZVP
 --------------------

 ------------
 cyanomethane
 ------------
 Symbolic Z-matrix:
 Charge =  0 Multiplicity = 1

                         Standard orientation:
 ---------------------------------------------------------------------
 Center     Atomic      Atomic             Coordinates (Angstroms)
 Number     Number       Type             X           Y           Z
 ---------------------------------------------------------------------
      1          6           0        1.209577    0.042854    0.022902
      2          6           0       -0.267320   -0.018065   -0.062612
      3          7           0       -1.453899   -0.003049    0.019725
      4          1           0        1.448008    0.982528   -0.311977
      5          1           0        1.681333   -0.857527   -0.658202
      6          1           0        1.394408   -0.252395    1.070362
 ---------------------------------------------------------------------

 SCF Done:  E(RB2PLYPD3) =  -132.512256462     A.U. after   12 cycles
 E2(B2PLYPD3) =    -0.1843049549D+00 E(B2PLYPD3) =    -0.13269656141730D+03

 The electronic state is 1-A.
 Alpha  occ. eigenvalues --  -14.85005 -10.68435 -10.67202  -1.02614  -0.88878
 Alpha  occ. eigenvalues --   -0.58138  -0.56630  -0.51389  -0.44617  -0.38383
 Alpha  occ. eigenvalues --   -0.37812
 Alpha virt. eigenvalues --    0.03323   0.06226   0.08147   0.10088   0.10580
 Alpha virt. eigenvalues --    0.11303   0.14571   0.15448   0.15847   0.20154
 Alpha virt. eigenvalues --    0.20250   0.25033   0.30340   0.33180   0.35090

 Mulliken charges:
               1
     1  C   -0.112224
     2  C    0.004117
     3  N   -0.223156
     4  H    0.121496
     5  H    0.092925
     6  H    0.116842
 Sum of Mulliken charges =   0.00000

 Dipole moment (field-independent basis, Debye):
    X=              4.1319    Y=             -0.0001    Z=              0.0167  Tot=              4.1319
 Quadrupole moment (field-independent basis, Debye-Ang):
   XX=            -21.5766   YY=            -17.6971   ZZ=            -17.9048
   XY=             -0.1836   XZ=             -0.0265   YZ=             -0.1913

 Normal termination of Gaussian 09 at Wed Aug 26 21:46:46 2020.
