 Gaussian 09, Revision D.01,
 Gaussian 09:  ES64L-G09RevD.01 24-Apr-2013

 --------------------
 #p B2PLYPD3/Def2QZVP
 --------------------

 ------------
 cyanomethane
 ------------
 Symbolic Z-matrix:
 Charge =  0 Multiplicity = 1

                         Standard orientation:
 ---------------------------------------------------------------------
 Center     Atomic      Atomic             Coordinates (Angstroms)
 Number     Number       Type             X           Y           Z
 ---------------------------------------------------------------------
      1          6           0        1.212548    0.029232   -0.014257
      2          6           0       -0.296957    0.013025   -0.039093
      3          7           0       -1.435855   -0.017697    0.029708
      4          1           0        1.659119   -0.353877    0.966665
      5          1           0        1.387064    0.958554   -0.163152
      6          1           0        1.511254   -0.734345   -0.691374
 ---------------------------------------------------------------------

 SCF Done:  E(RB2PLYPD3) =  -132.511954685     A.U. after   12 cycles
 E2(B2PLYPD3) =    -0.1793601417D+00 E(B2PLYPD3) =    -0.13269131482632D+03

 The electronic state is 1-A.
 Alpha  occ. eigenvalues --  -14.83743 -10.66590 -10.65844  -1.04486  -0.89704
 Alpha  occ. eigenvalues --   -0.58700  -0.57934  -0.51547  -0.44507  -0.39825
 Alpha  occ. eigenvalues --   -0.39200
 Alpha virt. eigenvalues --    0.03592   0.07803   0.09832   0.10349   0.10818
 Alpha virt. eigenvalues --    0.11626   0.14966   0.15687   0.16713   0.19909
 Alpha virt. eigenvalues --    0.20137   0.24342   0.32073   0.33592   0.36498

 Mulliken charges:
               1
     1  C   -0.098150
     2  C   -0.011122
     3  N   -0.199489
     4  H    0.087226
     5  H    0.119020
     6  H    0.102514
 Sum of Mulliken charges =   0.00000

 Dipole moment (field-independent basis, Debye):
    X=              4.1190    Y=             -0.0168    Z=             -0.0402  Tot=              4.1192
 Quadrupole moment (field-independent basis, Debye-Ang):
   XX=            -21.0935   YY=            -17.3734   ZZ=            -17.9535
   XY=             -0.3430   XZ=              0.3235   YZ=              0.0214

 Normal termination of Gaussian 09 at Wed Aug 26 23:23:31 2020.
