 Gaussian 09, Revision D.01,
 Gaussian 09:  ES64L-G09RevD.01 24-Apr-2013

 --------------------
 #p B2PLYPD3/Def2QZVP
 --------------------

 ------------
 cyanomethane
 ------------
 Symbolic Z-matrix:
 Charge =  0 Multiplicity = 1

                         Standard orientation:
 ---------------------------------------------------------------------
 Center     Atomic      Atomic             Coordinates (Angstroms)
 Number     Number       Type             X           Y           Z
 ---------------------------------------------------------------------
      1          6           0        1.178364    0.005665    0.004302
      2          6           0       -0.268968   -0.018974   -0.006918
      3          7           0       -1.433191    0.011208    0.002714
      4          1           0        1.509179   -0.792602   -0.644141
      5          1           0        1.515176   -0.164000    1.003223
      6          1           0        1.551612    0.957998   -0.362387
 ---------------------------------------------------------------------

 SCF Done:  E(RB2PLYPD3) =  -132.534119815     A.U. after   12 cycles
 E2(B2PLYPD3) =    -0.1811866469D+00 E(B2PLYPD3) =    -0.13271530646192D+03

 The electronic state is 1-A.
 Alpha  occ. eigenvalues --  -14.84366 -10.66745 -10.66402  -1.03689  -0.89769
 Alpha  occ. eigenvalues --   -0.59626  -0.54717  -0.54305  -0.44740  -0.38774
 Alpha  occ. eigenvalues --   -0.38711
 Alpha virt. eigenvalues --    0.03803   0.07748   0.08090   0.10135   0.11325
 Alpha virt. eigenvalues --    0.11370   0.15438   0.15778   0.16415   0.20153
 Alpha virt. eigenvalues --    0.20170   0.25513   0.32799   0.34556   0.34854

 Mulliken charges:
               1
     1  C   -0.085800
     2  C   -0.000959
     3  N   -0.212420
     4  H    0.099008
     5  H    0.100653
     6  H    0.099517
 Sum of Mulliken charges =   0.00000

 Dipole moment (field-independent basis, Debye):
    X=              4.1349    Y=             -0.0202    Z=             -0.0021  Tot=              4.1350
 Quadrupole moment (field-independent basis, Debye-Ang):
   XX=            -21.1218   YY=            -17.7177   ZZ=            -17.7184
   XY=              0.0807   XZ=              0.0094   YZ=             -0.0039

 Normal termination of Gaussian 09 at Wed Aug 26 09:52:29 2020.
