 Gaussian 09, Revision D.01,
 Gaussian 09:  ES64L-G09RevD.01 24-Apr-2013

 --------------------
 #p B2PLYPD3/Def2QZVP
 --------------------

 ------------
 cyanomethane
 ------------
 Symbolic Z-matrix:
 Charge =  0 Multiplicity = 1

                         Standard orientation:
 ---------------------------------------------------------------------
 Center     Atomic      Atomic             Coordinates (Angstroms)
 Number     Number       Type             X           Y           Z
 ---------------------------------------------------------------------
      1          6           0       -1.178961   -0.001646    0.008620
      2          6           0        0.270445   -0.021468    0.003351
      3          7           0        1.435034    0.007992   -0.003102
      4          1           0       -1.523488    0.062278    1.009748
      5          1           0       -1.573674   -0.891951   -0.501466
      6          1           0       -1.496974    0.912407   -0.558389
 ---------------------------------------------------------------------

 SCF Done:  E(RB2PLYPD3) =  -132.533101731     A.U. after   11 cycles
 E2(B2PLYPD3) =    -0.1814174202D+00 E(B2PLYPD3) =    -0.13271451915086D+03

 The electronic state is 1-A.
 Alpha  occ. eigenvalues --  -14.84392 -10.67247 -10.66452  -1.03674  -0.89394
 Alpha  occ. eigenvalues --   -0.59490  -0.54765  -0.53473  -0.44750  -0.38819
 Alpha  occ. eigenvalues --   -0.38601
 Alpha virt. eigenvalues --    0.03699   0.07523   0.07944   0.10150   0.11242
 Alpha virt. eigenvalues --    0.11507   0.15362   0.15943   0.16241   0.20121
 Alpha virt. eigenvalues --    0.20181   0.25456   0.32594   0.33854   0.34985

 Mulliken charges:
               1
     1  C   -0.091453
     2  C   -0.000069
     3  N   -0.211981
     4  H    0.103740
     5  H    0.100445
     6  H    0.099318
 Sum of Mulliken charges =   0.00000

 Dipole moment (field-independent basis, Debye):
    X=             -4.1313    Y=             -0.0019    Z=              0.0069  Tot=              4.1313
 Quadrupole moment (field-independent basis, Debye-Ang):
   XX=            -21.1657   YY=            -17.7503   ZZ=            -17.7308
   XY=             -0.0039   XZ=              0.0200   YZ=              0.0256

 Normal termination of Gaussian 09 at Wed Aug 26 09:44:40 2020.
