 Gaussian 09, Revision D.01,
 Gaussian 09:  ES64L-G09RevD.01 24-Apr-2013

 --------------------
 #p B2PLYPD3/Def2QZVP
 --------------------

 ------------
 cyanomethane
 ------------
 Symbolic Z-matrix:
 Charge =  0 Multiplicity = 1

                         Standard orientation:
 ---------------------------------------------------------------------
 Center     Atomic      Atomic             Coordinates (Angstroms)
 Number     Number       Type             X           Y           Z
 ---------------------------------------------------------------------
      1          6           0        1.179933    0.001272   -0.016438
      2          6           0       -0.291289    0.000139    0.034619
      3          7           0       -1.438859    0.001299   -0.017431
      4          1           0        1.602323    1.022058   -0.150202
      5          1           0        1.577079   -0.659409   -0.772893
      6          1           0        1.560748   -0.380208    0.936024
 ---------------------------------------------------------------------

 SCF Done:  E(RB2PLYPD3) =  -132.534328715     A.U. after   12 cycles
 E2(B2PLYPD3) =    -0.1801576925D+00 E(B2PLYPD3) =    -0.13271448640776D+03

 The electronic state is 1-A.
 Alpha  occ. eigenvalues --  -14.84170 -10.67413 -10.66279  -1.04397  -0.88715
 Alpha  occ. eigenvalues --   -0.59897  -0.53643  -0.53044  -0.44871  -0.39399
 Alpha  occ. eigenvalues --   -0.39220
 Alpha virt. eigenvalues --    0.03679   0.07729   0.08037   0.10165   0.11437
 Alpha virt. eigenvalues --    0.11556   0.15370   0.16027   0.17236   0.20025
 Alpha virt. eigenvalues --    0.20069   0.25217   0.32601   0.34236   0.34976

 Mulliken charges:
               1
     1  C   -0.079593
     2  C    0.000271
     3  N   -0.201819
     4  H    0.094748
     5  H    0.096145
     6  H    0.090248
 Sum of Mulliken charges =   0.00000

 Dipole moment (field-independent basis, Debye):
    X=              4.1265    Y=             -0.0228    Z=              0.0418  Tot=              4.1268
 Quadrupole moment (field-independent basis, Debye-Ang):
   XX=            -20.8393   YY=            -17.7198   ZZ=            -17.8978
   XY=             -0.0164   XZ=             -0.0741   YZ=              0.0258

 Normal termination of Gaussian 09 at Wed Aug 26 15:54:54 2020.
