 Gaussian 09, Revision D.01,
 Gaussian 09:  ES64L-G09RevD.01 24-Apr-2013

 --------------------
 #p B2PLYPD3/Def2QZVP
 --------------------

 ------------
 cyanomethane
 ------------
 Symbolic Z-matrix:
 Charge =  0 Multiplicity = 1

                         Standard orientation:
 ---------------------------------------------------------------------
 Center     Atomic      Atomic             Coordinates (Angstroms)
 Number     Number       Type             X           Y           Z
 ---------------------------------------------------------------------
      1          6           0       -1.174025    0.000196   -0.018754
      2          6           0        0.263830   -0.028840    0.009298
      3          7           0        1.432684    0.012876   -0.003160
      4          1           0       -1.520045   -0.006121    0.975150
      5          1           0       -1.548554   -0.813452   -0.475708
      6          1           0       -1.499020    0.901305   -0.420591
 ---------------------------------------------------------------------

 SCF Done:  E(RB2PLYPD3) =  -132.526418303     A.U. after   12 cycles
 E2(B2PLYPD3) =    -0.1811490220D+00 E(B2PLYPD3) =    -0.13270756732480D+03

 The electronic state is 1-A.
 Alpha  occ. eigenvalues --  -14.84518 -10.66530 -10.65207  -1.03562  -0.91005
 Alpha  occ. eigenvalues --   -0.60745  -0.56619  -0.54362  -0.44807  -0.38862
 Alpha  occ. eigenvalues --   -0.38538
 Alpha virt. eigenvalues --    0.03968   0.08037   0.08399   0.10154   0.11036
 Alpha virt. eigenvalues --    0.11495   0.15570   0.15879   0.16701   0.20130
 Alpha virt. eigenvalues --    0.20264   0.25717   0.33095   0.34757   0.35982

 Mulliken charges:
               1
     1  C   -0.061377
     2  C    0.001463
     3  N   -0.215860
     4  H    0.086028
     5  H    0.095023
     6  H    0.094723
 Sum of Mulliken charges =   0.00000

 Dipole moment (field-independent basis, Debye):
    X=             -4.1660    Y=             -0.0090    Z=              0.0382  Tot=              4.1662
 Quadrupole moment (field-independent basis, Debye-Ang):
   XX=            -20.8620   YY=            -17.5747   ZZ=            -17.8407
   XY=             -0.0445   XZ=             -0.0638   YZ=              0.0287

 Normal termination of Gaussian 09 at Wed Aug 26 14:16:53 2020.
