 Gaussian 09, Revision D.01,
 Gaussian 09:  ES64L-G09RevD.01 24-Apr-2013

 --------------------
 #p B2PLYPD3/Def2QZVP
 --------------------

 ------------
 cyanomethane
 ------------
 Symbolic Z-matrix:
 Charge =  0 Multiplicity = 1

                         Standard orientation:
 ---------------------------------------------------------------------
 Center     Atomic      Atomic             Coordinates (Angstroms)
 Number     Number       Type             X           Y           Z
 ---------------------------------------------------------------------
      1          6           0       -1.181705   -0.005410   -0.002293
      2          6           0        0.271138    0.003192    0.028230
      3          7           0        1.429787   -0.002570   -0.016754
      4          1           0       -1.485381   -0.096517    0.975603
      5          1           0       -1.549169   -0.825712   -0.595805
      6          1           0       -1.510558    0.953530   -0.418149
 ---------------------------------------------------------------------

 SCF Done:  E(RB2PLYPD3) =  -132.532198915     A.U. after   12 cycles
 E2(B2PLYPD3) =    -0.1806240134D+00 E(B2PLYPD3) =    -0.13271282292880D+03

 The electronic state is 1-A.
 Alpha  occ. eigenvalues --  -14.84194 -10.66430 -10.66222  -1.03866  -0.89996
 Alpha  occ. eigenvalues --   -0.59436  -0.55363  -0.54291  -0.44682  -0.38940
 Alpha  occ. eigenvalues --   -0.38847
 Alpha virt. eigenvalues --    0.03811   0.07830   0.08626   0.10157   0.11257
 Alpha virt. eigenvalues --    0.11418   0.15416   0.15631   0.16509   0.20126
 Alpha virt. eigenvalues --    0.20159   0.25432   0.32864   0.34545   0.35121

 Mulliken charges:
               1
     1  C   -0.086465
     2  C   -0.002647
     3  N   -0.210565
     4  H    0.101063
     5  H    0.099775
     6  H    0.098839
 Sum of Mulliken charges =   0.00000

 Dipole moment (field-independent basis, Debye):
    X=             -4.1257    Y=              0.0027    Z=              0.0385  Tot=              4.1258
 Quadrupole moment (field-independent basis, Debye-Ang):
   XX=            -21.1341   YY=            -17.6364   ZZ=            -17.7154
   XY=              0.0417   XZ=              0.0910   YZ=              0.0047

 Normal termination of Gaussian 09 at Wed Aug 26 13:39:38 2020.
