 Gaussian 09, Revision D.01,
 Gaussian 09:  ES64L-G09RevD.01 24-Apr-2013

 --------------------
 #p B2PLYPD3/Def2QZVP
 --------------------

 ------------
 cyanomethane
 ------------
 Symbolic Z-matrix:
 Charge =  0 Multiplicity = 1

                         Standard orientation:
 ---------------------------------------------------------------------
 Center     Atomic      Atomic             Coordinates (Angstroms)
 Number     Number       Type             X           Y           Z
 ---------------------------------------------------------------------
      1          6           0        1.178748    0.006211    0.002506
      2          6           0       -0.272517    0.020354   -0.015677
      3          7           0       -1.430302   -0.009339    0.009425
      4          1           0        1.541236   -0.207029    0.962392
      5          1           0        1.542277    0.908722   -0.324871
      6          1           0        1.491212   -0.795709   -0.624472
 ---------------------------------------------------------------------

 SCF Done:  E(RB2PLYPD3) =  -132.531631064     A.U. after   11 cycles
 E2(B2PLYPD3) =    -0.1802793063D+00 E(B2PLYPD3) =    -0.13271191037060D+03

 The electronic state is 1-A.
 Alpha  occ. eigenvalues --  -14.84213 -10.66245 -10.65746  -1.03949  -0.90404
 Alpha  occ. eigenvalues --   -0.60157  -0.55842  -0.54336  -0.44741  -0.39100
 Alpha  occ. eigenvalues --   -0.38889
 Alpha virt. eigenvalues --    0.03940   0.08180   0.08574   0.10184   0.11162
 Alpha virt. eigenvalues --    0.11508   0.15524   0.16037   0.16479   0.20077
 Alpha virt. eigenvalues --    0.20189   0.25458   0.33053   0.34799   0.35653

 Mulliken charges:
               1
     1  C   -0.070862
     2  C   -0.001948
     3  N   -0.209967
     4  H    0.092457
     5  H    0.096718
     6  H    0.093603
 Sum of Mulliken charges =   0.00000

 Dipole moment (field-independent basis, Debye):
    X=              4.1420    Y=             -0.0032    Z=             -0.0054  Tot=              4.1420
 Quadrupole moment (field-independent basis, Debye-Ang):
   XX=            -20.9404   YY=            -17.6066   ZZ=            -17.7664
   XY=             -0.0543   XZ=              0.0960   YZ=             -0.0259

 Normal termination of Gaussian 09 at Wed Aug 26 11:15:36 2020.
