 Gaussian 09, Revision D.01,
 Gaussian 09:  ES64L-G09RevD.01 24-Apr-2013

 --------------------
 #p B2PLYPD3/Def2QZVP
 --------------------

 ------------
 cyanomethane
 ------------
 Symbolic Z-matrix:
 Charge =  0 Multiplicity = 1

                         Standard orientation:
 ---------------------------------------------------------------------
 Center     Atomic      Atomic             Coordinates (Angstroms)
 Number     Number       Type             X           Y           Z
 ---------------------------------------------------------------------
      1          6           0       -1.181712    0.009052   -0.005766
      2          6           0        0.282800   -0.014372   -0.018302
      3          7           0        1.427871    0.004867    0.011147
      4          1           0       -1.507520    0.984196   -0.286623
      5          1           0       -1.551330   -0.223934    1.020630
      6          1           0       -1.542777   -0.762405   -0.667627
 ---------------------------------------------------------------------

 SCF Done:  E(RB2PLYPD3) =  -132.535186806     A.U. after   11 cycles
 E2(B2PLYPD3) =    -0.1796544092D+00 E(B2PLYPD3) =    -0.13271484121571D+03

 The electronic state is 1-A.
 Alpha  occ. eigenvalues --  -14.83864 -10.67095 -10.65917  -1.04410  -0.89195
 Alpha  occ. eigenvalues --   -0.59152  -0.54981  -0.53304  -0.44668  -0.39371
 Alpha  occ. eigenvalues --   -0.39160
 Alpha virt. eigenvalues --    0.03756   0.07970   0.08483   0.10208   0.11376
 Alpha virt. eigenvalues --    0.11644   0.15345   0.16110   0.16373   0.20012
 Alpha virt. eigenvalues --    0.20096   0.25227   0.32767   0.34152   0.35164

 Mulliken charges:
               1
     1  C   -0.090465
     2  C   -0.004907
     3  N   -0.202051
     4  H    0.102817
     5  H    0.095244
     6  H    0.099362
 Sum of Mulliken charges =   0.00000

 Dipole moment (field-independent basis, Debye):
    X=             -4.1071    Y=             -0.0104    Z=             -0.0121  Tot=              4.1071
 Quadrupole moment (field-independent basis, Debye-Ang):
   XX=            -21.1118   YY=            -17.6106   ZZ=            -17.7589
   XY=              0.0137   XZ=             -0.0941   YZ=              0.0041

 Normal termination of Gaussian 09 at Thu Aug 27 00:04:08 2020.
