 Gaussian 09, Revision D.01,
 Gaussian 09:  ES64L-G09RevD.01 24-Apr-2013

 --------------------
 #p B2PLYPD3/Def2QZVP
 --------------------

 ------------
 cyanomethane
 ------------
 Symbolic Z-matrix:
 Charge =  0 Multiplicity = 1

                         Standard orientation:
 ---------------------------------------------------------------------
 Center     Atomic      Atomic             Coordinates (Angstroms)
 Number     Number       Type             X           Y           Z
 ---------------------------------------------------------------------
      1          6           0       -1.208082   -0.004388    0.031277
      2          6           0        0.282761    0.040618   -0.045089
      3          7           0        1.438505   -0.027458    0.019353
      4          1           0       -1.420397    1.003320   -0.168075
      5          1           0       -1.520142   -0.371075    0.908267
      6          1           0       -1.577072   -0.657423   -0.792794
 ---------------------------------------------------------------------

 SCF Done:  E(RB2PLYPD3) =  -132.523429170     A.U. after   12 cycles
 E2(B2PLYPD3) =    -0.1807618962D+00 E(B2PLYPD3) =    -0.13270419106642D+03

 The electronic state is 1-A.
 Alpha  occ. eigenvalues --  -14.84236 -10.66499 -10.66336  -1.03791  -0.89747
 Alpha  occ. eigenvalues --   -0.59541  -0.55639  -0.53670  -0.44593  -0.39154
 Alpha  occ. eigenvalues --   -0.38892
 Alpha virt. eigenvalues --    0.03776   0.07928   0.08976   0.10015   0.11050
 Alpha virt. eigenvalues --    0.11311   0.14958   0.15410   0.16714   0.20036
 Alpha virt. eigenvalues --    0.20181   0.24927   0.32372   0.34274   0.35542

 Mulliken charges:
               1
     1  C   -0.091930
     2  C   -0.003237
     3  N   -0.210120
     4  H    0.105386
     5  H    0.105923
     6  H    0.093978
 Sum of Mulliken charges =   0.00000

 Dipole moment (field-independent basis, Debye):
    X=             -4.1149    Y=              0.0367    Z=             -0.0258  Tot=              4.1152
 Quadrupole moment (field-independent basis, Debye-Ang):
   XX=            -21.2173   YY=            -17.6199   ZZ=            -17.7284
   XY=              0.2748   XZ=             -0.0774   YZ=             -0.0797

 Normal termination of Gaussian 09 at Wed Aug 26 21:23:29 2020.
