 Gaussian 09, Revision D.01,
 Gaussian 09:  ES64L-G09RevD.01 24-Apr-2013

 --------------------
 #p B2PLYPD3/Def2QZVP
 --------------------

 ------------
 cyanomethane
 ------------
 Symbolic Z-matrix:
 Charge =  0 Multiplicity = 1

                         Standard orientation:
 ---------------------------------------------------------------------
 Center     Atomic      Atomic             Coordinates (Angstroms)
 Number     Number       Type             X           Y           Z
 ---------------------------------------------------------------------
      1          6           0       -1.175199    0.008288    0.004572
      2          6           0        0.280625   -0.007258   -0.044174
      3          7           0        1.421590    0.005966    0.023778
      4          1           0       -1.539085   -0.102463    1.003376
      5          1           0       -1.487348   -0.879896   -0.535042
      6          1           0       -1.557252    0.934416   -0.397164
 ---------------------------------------------------------------------

 SCF Done:  E(RB2PLYPD3) =  -132.534451828     A.U. after   11 cycles
 E2(B2PLYPD3) =    -0.1794047962D+00 E(B2PLYPD3) =    -0.13271385662429D+03

 The electronic state is 1-A.
 Alpha  occ. eigenvalues --  -14.83788 -10.66709 -10.65795  -1.04546  -0.89510
 Alpha  occ. eigenvalues --   -0.59584  -0.54982  -0.53506  -0.44683  -0.39413
 Alpha  occ. eigenvalues --   -0.39186
 Alpha virt. eigenvalues --    0.03808   0.08042   0.08528   0.10148   0.11418
 Alpha virt. eigenvalues --    0.11715   0.15478   0.15866   0.16768   0.19990
 Alpha virt. eigenvalues --    0.20103   0.25497   0.32989   0.34466   0.35135

 Mulliken charges:
               1
     1  C   -0.086344
     2  C   -0.003785
     3  N   -0.201185
     4  H    0.094687
     5  H    0.096930
     6  H    0.099697
 Sum of Mulliken charges =   0.00000

 Dipole moment (field-independent basis, Debye):
    X=             -4.0930    Y=             -0.0235    Z=             -0.0074  Tot=              4.0931
 Quadrupole moment (field-independent basis, Debye-Ang):
   XX=            -21.0711   YY=            -17.5064   ZZ=            -17.8197
   XY=             -0.0524   XZ=             -0.2252   YZ=             -0.0151

 Normal termination of Gaussian 09 at Wed Aug 26 12:28:45 2020.
