 Gaussian 09, Revision D.01,
 Gaussian 09:  ES64L-G09RevD.01 24-Apr-2013

 --------------------
 #p B2PLYPD3/Def2QZVP
 --------------------

 ------------
 cyanomethane
 ------------
 Symbolic Z-matrix:
 Charge =  0 Multiplicity = 1

                         Standard orientation:
 ---------------------------------------------------------------------
 Center     Atomic      Atomic             Coordinates (Angstroms)
 Number     Number       Type             X           Y           Z
 ---------------------------------------------------------------------
      1          6           0        1.170092   -0.006151    0.007005
      2          6           0       -0.266533   -0.006089   -0.032556
      3          7           0       -1.429843   -0.001456    0.008684
      4          1           0        1.501684    0.949156   -0.334549
      5          1           0        1.652930   -0.755596   -0.563201
      6          1           0        1.432938   -0.109925    0.990266
 ---------------------------------------------------------------------

 SCF Done:  E(RB2PLYPD3) =  -132.530052460     A.U. after   12 cycles
 E2(B2PLYPD3) =    -0.1808528429D+00 E(B2PLYPD3) =    -0.13271090530337D+03

 The electronic state is 1-A.
 Alpha  occ. eigenvalues --  -14.84371 -10.66409 -10.65713  -1.03794  -0.90607
 Alpha  occ. eigenvalues --   -0.60658  -0.55427  -0.54506  -0.44802  -0.38858
 Alpha  occ. eigenvalues --   -0.38734
 Alpha virt. eigenvalues --    0.03945   0.07852   0.08340   0.10198   0.11336
 Alpha virt. eigenvalues --    0.11457   0.15565   0.15801   0.16853   0.20161
 Alpha virt. eigenvalues --    0.20189   0.25755   0.32937   0.34884   0.35592

 Mulliken charges:
               1
     1  C   -0.070301
     2  C    0.001711
     3  N   -0.213182
     4  H    0.092454
     5  H    0.091786
     6  H    0.097532
 Sum of Mulliken charges =   0.00000

 Dipole moment (field-independent basis, Debye):
    X=              4.1541    Y=              0.0146    Z=              0.0122  Tot=              4.1541
 Quadrupole moment (field-independent basis, Debye-Ang):
   XX=            -20.8696   YY=            -17.7108   ZZ=            -17.7389
   XY=             -0.0678   XZ=             -0.0316   YZ=             -0.0042

 Normal termination of Gaussian 09 at Wed Aug 26 13:02:14 2020.
