 Gaussian 09, Revision D.01,
 Gaussian 09:  ES64L-G09RevD.01 24-Apr-2013

 --------------------
 #p B2PLYPD3/Def2QZVP
 --------------------

 ------------
 cyanomethane
 ------------
 Symbolic Z-matrix:
 Charge =  0 Multiplicity = 1

                         Standard orientation:
 ---------------------------------------------------------------------
 Center     Atomic      Atomic             Coordinates (Angstroms)
 Number     Number       Type             X           Y           Z
 ---------------------------------------------------------------------
      1          6           0        1.143442   -0.021906   -0.001108
      2          6           0       -0.251247    0.064608    0.031087
      3          7           0       -1.435320   -0.029364   -0.010153
      4          1           0        1.635502   -0.219855    1.031189
      5          1           0        1.557689    1.026307   -0.406006
      6          1           0        1.500876   -0.857120   -0.733988
 ---------------------------------------------------------------------

 SCF Done:  E(RB2PLYPD3) =  -132.513283170     A.U. after   12 cycles
 E2(B2PLYPD3) =    -0.1849921256D+00 E(B2PLYPD3) =    -0.13269827529568D+03

 The electronic state is 1-A.
 Alpha  occ. eigenvalues --  -14.85184 -10.69079 -10.67068  -1.03035  -0.88776
 Alpha  occ. eigenvalues --   -0.59928  -0.52639  -0.52190  -0.45078  -0.37870
 Alpha  occ. eigenvalues --   -0.37664
 Alpha virt. eigenvalues --    0.03110   0.05673   0.05876   0.09851   0.11525
 Alpha virt. eigenvalues --    0.11712   0.15512   0.15645   0.16697   0.20182
 Alpha virt. eigenvalues --    0.20284   0.26463   0.31557   0.33087   0.33503

 Mulliken charges:
               1
     1  C   -0.108069
     2  C    0.014056
     3  N   -0.218250
     4  H    0.104485
     5  H    0.098746
     6  H    0.109032
 Sum of Mulliken charges =   0.00000

 Dipole moment (field-independent basis, Debye):
    X=              4.1051    Y=              0.0156    Z=              0.0058  Tot=              4.1051
 Quadrupole moment (field-independent basis, Debye-Ang):
   XX=            -21.2213   YY=            -17.8827   ZZ=            -17.9284
   XY=             -0.1527   XZ=              0.0420   YZ=              0.0150

 Normal termination of Gaussian 09 at Wed Aug 26 22:09:44 2020.
