 Gaussian 09, Revision D.01,
 Gaussian 09:  ES64L-G09RevD.01 24-Apr-2013

 --------------------
 #p B2PLYPD3/Def2QZVP
 --------------------

 ------------
 cyanomethane
 ------------
 Symbolic Z-matrix:
 Charge =  0 Multiplicity = 1

                         Standard orientation:
 ---------------------------------------------------------------------
 Center     Atomic      Atomic             Coordinates (Angstroms)
 Number     Number       Type             X           Y           Z
 ---------------------------------------------------------------------
      1          6           0       -1.172092    0.003218   -0.000164
      2          6           0        0.280018   -0.019702    0.000948
      3          7           0        1.430803    0.009513   -0.003465
      4          1           0       -1.552189    1.033482   -0.107938
      5          1           0       -1.519431   -0.399565    0.933458
      6          1           0       -1.591565   -0.601610   -0.805963
 ---------------------------------------------------------------------

 SCF Done:  E(RB2PLYPD3) =  -132.535551264     A.U. after   12 cycles
 E2(B2PLYPD3) =    -0.1801895862D+00 E(B2PLYPD3) =    -0.13271574085032D+03

 The electronic state is 1-A.
 Alpha  occ. eigenvalues --  -14.84111 -10.67050 -10.66150  -1.04277  -0.89273
 Alpha  occ. eigenvalues --   -0.59911  -0.54072  -0.53605  -0.44805  -0.39137
 Alpha  occ. eigenvalues --   -0.39121
 Alpha virt. eigenvalues --    0.03752   0.07726   0.08129   0.10176   0.11507
 Alpha virt. eigenvalues --    0.11561   0.15466   0.16153   0.16703   0.20068
 Alpha virt. eigenvalues --    0.20088   0.25473   0.32837   0.34555   0.34742

 Mulliken charges:
               1
     1  C   -0.081757
     2  C   -0.001305
     3  N   -0.204346
     4  H    0.096161
     5  H    0.096613
     6  H    0.094633
 Sum of Mulliken charges =   0.00000

 Dipole moment (field-independent basis, Debye):
    X=             -4.1216    Y=             -0.0203    Z=              0.0141  Tot=              4.1217
 Quadrupole moment (field-independent basis, Debye-Ang):
   XX=            -20.9506   YY=            -17.7243   ZZ=            -17.7757
   XY=             -0.0296   XZ=              0.0504   YZ=             -0.0102

 Normal termination of Gaussian 09 at Wed Aug 26 23:58:42 2020.
