 Gaussian 09, Revision D.01,
 Gaussian 09:  ES64L-G09RevD.01 24-Apr-2013

 --------------------
 #p B2PLYPD3/Def2QZVP
 --------------------

 ------------
 cyanomethane
 ------------
 Symbolic Z-matrix:
 Charge =  0 Multiplicity = 1

                         Standard orientation:
 ---------------------------------------------------------------------
 Center     Atomic      Atomic             Coordinates (Angstroms)
 Number     Number       Type             X           Y           Z
 ---------------------------------------------------------------------
      1          6           0       -1.168546    0.004209    0.004212
      2          6           0        0.275359   -0.013490   -0.002577
      3          7           0        1.432829    0.006576   -0.000848
      4          1           0       -1.534640   -0.341871    0.952863
      5          1           0       -1.575464   -0.656531   -0.774921
      6          1           0       -1.560578    1.008054   -0.181814
 ---------------------------------------------------------------------

 SCF Done:  E(RB2PLYPD3) =  -132.535138981     A.U. after   11 cycles
 E2(B2PLYPD3) =    -0.1807433586D+00 E(B2PLYPD3) =    -0.13271588233964D+03

 The electronic state is 1-A.
 Alpha  occ. eigenvalues --  -14.84302 -10.66968 -10.66327  -1.04047  -0.89441
 Alpha  occ. eigenvalues --   -0.60210  -0.54186  -0.53546  -0.44855  -0.38983
 Alpha  occ. eigenvalues --   -0.38912
 Alpha virt. eigenvalues --    0.03765   0.07602   0.07893   0.10146   0.11461
 Alpha virt. eigenvalues --    0.11546   0.15519   0.16278   0.16579   0.20100
 Alpha virt. eigenvalues --    0.20123   0.25602   0.32833   0.34506   0.34808

 Mulliken charges:
               1
     1  C   -0.078221
     2  C    0.000284
     3  N   -0.207562
     4  H    0.096611
     5  H    0.093247
     6  H    0.095641
 Sum of Mulliken charges =   0.00000

 Dipole moment (field-independent basis, Debye):
    X=             -4.1326    Y=             -0.0123    Z=              0.0051  Tot=              4.1326
 Quadrupole moment (field-independent basis, Debye-Ang):
   XX=            -20.9220   YY=            -17.7684   ZZ=            -17.7794
   XY=             -0.0275   XZ=              0.0277   YZ=             -0.0212

 Normal termination of Gaussian 09 at Thu Aug 27 00:12:17 2020.
