 Gaussian 09, Revision D.01,
 Gaussian 09:  ES64L-G09RevD.01 24-Apr-2013

 --------------------
 #p B2PLYPD3/Def2QZVP
 --------------------

 ------------
 cyanomethane
 ------------
 Symbolic Z-matrix:
 Charge =  0 Multiplicity = 1

                         Standard orientation:
 ---------------------------------------------------------------------
 Center     Atomic      Atomic             Coordinates (Angstroms)
 Number     Number       Type             X           Y           Z
 ---------------------------------------------------------------------
      1          6           0        1.180318    0.019046   -0.004780
      2          6           0       -0.289109   -0.039420    0.005435
      3          7           0       -1.439168    0.017835    0.000266
      4          1           0        1.612510   -0.064746    1.011438
      5          1           0        1.548372    0.934251   -0.453866
      6          1           0        1.566037   -0.872109   -0.563359
 ---------------------------------------------------------------------

 SCF Done:  E(RB2PLYPD3) =  -132.533823051     A.U. after   12 cycles
 E2(B2PLYPD3) =    -0.1804893168D+00 E(B2PLYPD3) =    -0.13271431236784D+03

 The electronic state is 1-A.
 Alpha  occ. eigenvalues --  -14.84229 -10.67668 -10.66332  -1.04278  -0.88571
 Alpha  occ. eigenvalues --   -0.59717  -0.53909  -0.52625  -0.44861  -0.39306
 Alpha  occ. eigenvalues --   -0.39098
 Alpha virt. eigenvalues --    0.03647   0.07672   0.07798   0.10151   0.11417
 Alpha virt. eigenvalues --    0.11566   0.15322   0.16090   0.16973   0.20003
 Alpha virt. eigenvalues --    0.20091   0.25272   0.32479   0.34002   0.34932

 Mulliken charges:
               1
     1  C   -0.084521
     2  C    0.000632
     3  N   -0.203155
     4  H    0.092871
     5  H    0.101136
     6  H    0.093037
 Sum of Mulliken charges =   0.00000

 Dipole moment (field-independent basis, Debye):
    X=              4.1215    Y=             -0.0290    Z=              0.0088  Tot=              4.1216
 Quadrupole moment (field-independent basis, Debye-Ang):
   XX=            -20.9190   YY=            -17.7195   ZZ=            -17.9010
   XY=              0.0711   XZ=              0.0714   YZ=             -0.0375

 Normal termination of Gaussian 09 at Wed Aug 26 12:02:14 2020.
