 Gaussian 09, Revision D.01,
 Gaussian 09:  ES64L-G09RevD.01 24-Apr-2013

 --------------------
 #p B2PLYPD3/Def2QZVP
 --------------------

 ------------
 cyanomethane
 ------------
 Symbolic Z-matrix:
 Charge =  0 Multiplicity = 1

                         Standard orientation:
 ---------------------------------------------------------------------
 Center     Atomic      Atomic             Coordinates (Angstroms)
 Number     Number       Type             X           Y           Z
 ---------------------------------------------------------------------
      1          6           0        1.176995   -0.009542   -0.007670
      2          6           0       -0.276920    0.011023   -0.007011
      3          7           0       -1.430432   -0.004267    0.007416
      4          1           0        1.575171   -0.245545    0.984038
      5          1           0        1.533284    0.989868   -0.259021
      6          1           0        1.504124   -0.723340   -0.688843
 ---------------------------------------------------------------------

 SCF Done:  E(RB2PLYPD3) =  -132.534166295     A.U. after   11 cycles
 E2(B2PLYPD3) =    -0.1802040549D+00 E(B2PLYPD3) =    -0.13271437034984D+03

 The electronic state is 1-A.
 Alpha  occ. eigenvalues --  -14.84115 -10.66637 -10.66152  -1.04135  -0.89671
 Alpha  occ. eigenvalues --   -0.59784  -0.55265  -0.53468  -0.44746  -0.39177
 Alpha  occ. eigenvalues --   -0.38966
 Alpha virt. eigenvalues --    0.03825   0.07839   0.08412   0.10182   0.11311
 Alpha virt. eigenvalues --    0.11579   0.15447   0.16113   0.16478   0.20060
 Alpha virt. eigenvalues --    0.20140   0.25406   0.32838   0.34352   0.35312

 Mulliken charges:
               1
     1  C   -0.081216
     2  C   -0.002463
     3  N   -0.206589
     4  H    0.093354
     5  H    0.095736
     6  H    0.101179
 Sum of Mulliken charges =   0.00000

 Dipole moment (field-independent basis, Debye):
    X=              4.1264    Y=              0.0054    Z=             -0.0053  Tot=              4.1264
 Quadrupole moment (field-independent basis, Debye-Ang):
   XX=            -21.0082   YY=            -17.6632   ZZ=            -17.7620
   XY=             -0.0151   XZ=              0.1085   YZ=              0.0566

 Normal termination of Gaussian 09 at Wed Aug 26 23:58:44 2020.
