 Gaussian 09, Revision D.01,
 Gaussian 09:  ES64L-G09RevD.01 24-Apr-2013

 --------------------
 #p B2PLYPD3/Def2QZVP
 --------------------

 ------------
 cyanomethane
 ------------
 Symbolic Z-matrix:
 Charge =  0 Multiplicity = 1

                         Standard orientation:
 ---------------------------------------------------------------------
 Center     Atomic      Atomic             Coordinates (Angstroms)
 Number     Number       Type             X           Y           Z
 ---------------------------------------------------------------------
      1          6           0       -1.165916    0.003454    0.003374
      2          6           0        0.270753    0.012146   -0.017993
      3          7           0        1.435408   -0.006536    0.006422
      4          1           0       -1.584839   -0.674229   -0.750240
      5          1           0       -1.568492    0.981717   -0.166421
      6          1           0       -1.523544   -0.355336    0.959428
 ---------------------------------------------------------------------

 SCF Done:  E(RB2PLYPD3) =  -132.534091805     A.U. after   11 cycles
 E2(B2PLYPD3) =    -0.1813398227D+00 E(B2PLYPD3) =    -0.13271543162784D+03

 The electronic state is 1-A.
 Alpha  occ. eigenvalues --  -14.84520 -10.66743 -10.66534  -1.03786  -0.89704
 Alpha  occ. eigenvalues --   -0.60600  -0.54390  -0.53573  -0.44911  -0.38824
 Alpha  occ. eigenvalues --   -0.38701
 Alpha virt. eigenvalues --    0.03782   0.07477   0.07741   0.10124   0.11352
 Alpha virt. eigenvalues --    0.11551   0.15569   0.16379   0.16510   0.20117
 Alpha virt. eigenvalues --    0.20179   0.25734   0.32855   0.34525   0.34948

 Mulliken charges:
               1
     1  C   -0.072520
     2  C    0.002031
     3  N   -0.211156
     4  H    0.091886
     5  H    0.095247
     6  H    0.094513
 Sum of Mulliken charges =   0.00000

 Dipole moment (field-independent basis, Debye):
    X=             -4.1479    Y=              0.0020    Z=              0.0010  Tot=              4.1479
 Quadrupole moment (field-independent basis, Debye-Ang):
   XX=            -20.8647   YY=            -17.7612   ZZ=            -17.8385
   XY=              0.0500   XZ=             -0.0110   YZ=             -0.0181

 Normal termination of Gaussian 09 at Wed Aug 26 11:33:05 2020.
