 Gaussian 09, Revision D.01,
 Gaussian 09:  ES64L-G09RevD.01 24-Apr-2013

 --------------------
 #p B2PLYPD3/Def2QZVP
 --------------------

 ------------
 cyanomethane
 ------------
 Symbolic Z-matrix:
 Charge =  0 Multiplicity = 1

                         Standard orientation:
 ---------------------------------------------------------------------
 Center     Atomic      Atomic             Coordinates (Angstroms)
 Number     Number       Type             X           Y           Z
 ---------------------------------------------------------------------
      1          6           0        1.170397   -0.009045   -0.006034
      2          6           0       -0.281253    0.008227    0.032803
      3          7           0       -1.428511   -0.000381   -0.017485
      4          1           0        1.595956    1.023269   -0.224488
      5          1           0        1.537116   -0.697994   -0.754403
      6          1           0        1.531645   -0.317701    0.940665
 ---------------------------------------------------------------------

 SCF Done:  E(RB2PLYPD3) =  -132.533776971     A.U. after   11 cycles
 E2(B2PLYPD3) =    -0.1800241669D+00 E(B2PLYPD3) =    -0.13271380113745D+03

 The electronic state is 1-A.
 Alpha  occ. eigenvalues --  -14.84047 -10.67108 -10.66067  -1.04401  -0.89230
 Alpha  occ. eigenvalues --   -0.59874  -0.54350  -0.53151  -0.44808  -0.39248
 Alpha  occ. eigenvalues --   -0.39135
 Alpha virt. eigenvalues --    0.03692   0.07539   0.08322   0.10157   0.11493
 Alpha virt. eigenvalues --    0.11648   0.15491   0.16052   0.16840   0.20032
 Alpha virt. eigenvalues --    0.20087   0.25537   0.32696   0.34316   0.34920

 Mulliken charges:
               1
     1  C   -0.083577
     2  C   -0.001168
     3  N   -0.202718
     4  H    0.092878
     5  H    0.098049
     6  H    0.096537
 Sum of Mulliken charges =   0.00000

 Dipole moment (field-independent basis, Debye):
    X=              4.1087    Y=             -0.0205    Z=              0.0394  Tot=              4.1089
 Quadrupole moment (field-independent basis, Debye-Ang):
   XX=            -20.9575   YY=            -17.7043   ZZ=            -17.7806
   XY=              0.0028   XZ=             -0.0821   YZ=              0.0124

 Normal termination of Gaussian 09 at Wed Aug 26 15:39:30 2020.
