 Gaussian 09, Revision D.01,
 Gaussian 09:  ES64L-G09RevD.01 24-Apr-2013

 --------------------
 #p B2PLYPD3/Def2QZVP
 --------------------

 ------------
 cyanomethane
 ------------
 Symbolic Z-matrix:
 Charge =  0 Multiplicity = 1

                         Standard orientation:
 ---------------------------------------------------------------------
 Center     Atomic      Atomic             Coordinates (Angstroms)
 Number     Number       Type             X           Y           Z
 ---------------------------------------------------------------------
      1          6           0       -1.171264   -0.002254    0.005768
      2          6           0        0.282384    0.018913    0.001469
      3          7           0        1.431886   -0.006424   -0.000173
      4          1           0       -1.568425   -0.288481    0.999171
      5          1           0       -1.520647   -0.775091   -0.750399
      6          1           0       -1.600849    1.008587   -0.290983
 ---------------------------------------------------------------------

 SCF Done:  E(RB2PLYPD3) =  -132.532371031     A.U. after   12 cycles
 E2(B2PLYPD3) =    -0.1805884007D+00 E(B2PLYPD3) =    -0.13271295943167D+03

 The electronic state is 1-A.
 Alpha  occ. eigenvalues --  -14.84096 -10.68192 -10.66159  -1.04337  -0.88436
 Alpha  occ. eigenvalues --   -0.59386  -0.53264  -0.52802  -0.44810  -0.39138
 Alpha  occ. eigenvalues --   -0.39011
 Alpha virt. eigenvalues --    0.03551   0.07392   0.07574   0.10164   0.11578
 Alpha virt. eigenvalues --    0.11718   0.15356   0.16203   0.16558   0.20040
 Alpha virt. eigenvalues --    0.20076   0.25420   0.32420   0.33717   0.34343

 Mulliken charges:
               1
     1  C   -0.097256
     2  C    0.000524
     3  N   -0.202317
     4  H    0.101365
     5  H    0.099267
     6  H    0.098417
 Sum of Mulliken charges =   0.00000

 Dipole moment (field-independent basis, Debye):
    X=             -4.1015    Y=             -0.0028    Z=              0.0029  Tot=              4.1015
 Quadrupole moment (field-independent basis, Debye-Ang):
   XX=            -21.0903   YY=            -17.7629   ZZ=            -17.7960
   XY=              0.0085   XZ=             -0.0246   YZ=             -0.0153

 Normal termination of Gaussian 09 at Wed Aug 26 23:54:20 2020.
