 Gaussian 09, Revision D.01,
 Gaussian 09:  ES64L-G09RevD.01 24-Apr-2013

 --------------------
 #p B2PLYPD3/Def2QZVP
 --------------------

 ------------
 cyanomethane
 ------------
 Symbolic Z-matrix:
 Charge =  0 Multiplicity = 1

                         Standard orientation:
 ---------------------------------------------------------------------
 Center     Atomic      Atomic             Coordinates (Angstroms)
 Number     Number       Type             X           Y           Z
 ---------------------------------------------------------------------
      1          6           0        1.192125    0.012607    0.000535
      2          6           0       -0.283454    0.009465   -0.024434
      3          7           0       -1.438087   -0.004810    0.016404
      4          1           0        1.587173   -0.183060    0.961984
      5          1           0        1.536995    0.910479   -0.341557
      6          1           0        1.490411   -0.826181   -0.591856
 ---------------------------------------------------------------------

 SCF Done:  E(RB2PLYPD3) =  -132.530638695     A.U. after   12 cycles
 E2(B2PLYPD3) =    -0.1801226846D+00 E(B2PLYPD3) =    -0.13271076137971D+03

 The electronic state is 1-A.
 Alpha  occ. eigenvalues --  -14.84197 -10.66303 -10.66085  -1.04027  -0.89928
 Alpha  occ. eigenvalues --   -0.59848  -0.56073  -0.53519  -0.44730  -0.39322
 Alpha  occ. eigenvalues --   -0.39016
 Alpha virt. eigenvalues --    0.03895   0.08122   0.08799   0.10207   0.11019
 Alpha virt. eigenvalues --    0.11521   0.15336   0.15934   0.16749   0.20024
 Alpha virt. eigenvalues --    0.20176   0.25013   0.32787   0.34598   0.35819

 Mulliken charges:
               1
     1  C   -0.072978
     2  C   -0.002572
     3  N   -0.207545
     4  H    0.089891
     5  H    0.099346
     6  H    0.093857
 Sum of Mulliken charges =   0.00000

 Dipole moment (field-independent basis, Debye):
    X=              4.1481    Y=             -0.0151    Z=             -0.0081  Tot=              4.1482
 Quadrupole moment (field-independent basis, Debye-Ang):
   XX=            -20.9122   YY=            -17.5635   ZZ=            -17.8690
   XY=             -0.0529   XZ=              0.1916   YZ=             -0.0339

 Normal termination of Gaussian 09 at Wed Aug 26 13:23:17 2020.
