 Gaussian 09, Revision D.01,
 Gaussian 09:  ES64L-G09RevD.01 24-Apr-2013

 --------------------
 #p B2PLYPD3/Def2QZVP
 --------------------

 ------------
 cyanomethane
 ------------
 Symbolic Z-matrix:
 Charge =  0 Multiplicity = 1

                         Standard orientation:
 ---------------------------------------------------------------------
 Center     Atomic      Atomic             Coordinates (Angstroms)
 Number     Number       Type             X           Y           Z
 ---------------------------------------------------------------------
      1          6           0        1.177738    0.006275   -0.002370
      2          6           0       -0.273765   -0.016131   -0.003067
      3          7           0       -1.435766    0.011839    0.001807
      4          1           0        1.496457   -0.867002   -0.546650
      5          1           0        1.538495   -0.065174    1.015858
      6          1           0        1.591573    0.908437   -0.449229
 ---------------------------------------------------------------------

 SCF Done:  E(RB2PLYPD3) =  -132.534343480     A.U. after   12 cycles
 E2(B2PLYPD3) =    -0.1810751745D+00 E(B2PLYPD3) =    -0.13271541865444D+03

 The electronic state is 1-A.
 Alpha  occ. eigenvalues --  -14.84376 -10.66901 -10.66434  -1.03806  -0.89535
 Alpha  occ. eigenvalues --   -0.59852  -0.54413  -0.53921  -0.44795  -0.38878
 Alpha  occ. eigenvalues --   -0.38804
 Alpha virt. eigenvalues --    0.03778   0.07619   0.08088   0.10138   0.11340
 Alpha virt. eigenvalues --    0.11433   0.15419   0.15820   0.16713   0.20118
 Alpha virt. eigenvalues --    0.20170   0.25457   0.32757   0.34541   0.34836

 Mulliken charges:
               1
     1  C   -0.082822
     2  C   -0.000215
     3  N   -0.210505
     4  H    0.098686
     5  H    0.096655
     6  H    0.098202
 Sum of Mulliken charges =   0.00000

 Dipole moment (field-independent basis, Debye):
    X=              4.1387    Y=             -0.0255    Z=              0.0059  Tot=              4.1388
 Quadrupole moment (field-independent basis, Debye-Ang):
   XX=            -21.0225   YY=            -17.7133   ZZ=            -17.7957
   XY=              0.1135   XZ=              0.0312   YZ=              0.0073

 Normal termination of Gaussian 09 at Thu Aug 27 00:10:49 2020.
