 Gaussian 09, Revision D.01,
 Gaussian 09:  ES64L-G09RevD.01 24-Apr-2013

 --------------------
 #p B2PLYPD3/Def2QZVP
 --------------------

 ------------
 cyanomethane
 ------------
 Symbolic Z-matrix:
 Charge =  0 Multiplicity = 1

                         Standard orientation:
 ---------------------------------------------------------------------
 Center     Atomic      Atomic             Coordinates (Angstroms)
 Number     Number       Type             X           Y           Z
 ---------------------------------------------------------------------
      1          6           0       -1.172853   -0.002629   -0.007302
      2          6           0        0.257270   -0.065938    0.010477
      3          7           0        1.426999    0.022074   -0.007788
      4          1           0       -1.446398    0.123412    0.935388
      5          1           0       -1.671005   -0.768903   -0.419955
      6          1           0       -1.378092    0.902372   -0.479967
 ---------------------------------------------------------------------

 SCF Done:  E(RB2PLYPD3) =  -132.516812917     A.U. after   12 cycles
 E2(B2PLYPD3) =    -0.1813543354D+00 E(B2PLYPD3) =    -0.13269816725218D+03

 The electronic state is 1-A.
 Alpha  occ. eigenvalues --  -14.84523 -10.66596 -10.64510  -1.03482  -0.91753
 Alpha  occ. eigenvalues --   -0.61239  -0.56616  -0.55435  -0.44766  -0.38742
 Alpha  occ. eigenvalues --   -0.38385
 Alpha virt. eigenvalues --    0.03952   0.08134   0.08644   0.10263   0.11018
 Alpha virt. eigenvalues --    0.11548   0.15336   0.15730   0.16947   0.20138
 Alpha virt. eigenvalues --    0.20310   0.25974   0.33142   0.34935   0.36256

 Mulliken charges:
               1
     1  C   -0.065303
     2  C    0.006239
     3  N   -0.219641
     4  H    0.092719
     5  H    0.091503
     6  H    0.094484
 Sum of Mulliken charges =   0.00000

 Dipole moment (field-independent basis, Debye):
    X=             -4.1726    Y=              0.0154    Z=              0.0428  Tot=              4.1728
 Quadrupole moment (field-independent basis, Debye-Ang):
   XX=            -20.8243   YY=            -17.5911   ZZ=            -17.7761
   XY=              0.0097   XZ=              0.0127   YZ=              0.0388

 Normal termination of Gaussian 09 at Wed Aug 26 23:39:53 2020.
