 Gaussian 09, Revision D.01,
 Gaussian 09:  ES64L-G09RevD.01 24-Apr-2013

 --------------------
 #p B2PLYPD3/Def2QZVP
 --------------------

 ------------
 cyanomethane
 ------------
 Symbolic Z-matrix:
 Charge =  0 Multiplicity = 1

                         Standard orientation:
 ---------------------------------------------------------------------
 Center     Atomic      Atomic             Coordinates (Angstroms)
 Number     Number       Type             X           Y           Z
 ---------------------------------------------------------------------
      1          6           0       -1.178419   -0.015884    0.014798
      2          6           0        0.276367    0.017398   -0.002189
      3          7           0        1.427228   -0.005022   -0.004640
      4          1           0       -1.458494   -0.335266    0.916408
      5          1           0       -1.550107   -0.652979   -0.768933
      6          1           0       -1.569682    1.014316   -0.190651
 ---------------------------------------------------------------------

 SCF Done:  E(RB2PLYPD3) =  -132.529271292     A.U. after   12 cycles
 E2(B2PLYPD3) =    -0.1798722295D+00 E(B2PLYPD3) =    -0.13270914352104D+03

 The electronic state is 1-A.
 Alpha  occ. eigenvalues --  -14.84005 -10.66319 -10.66027  -1.04227  -0.90014
 Alpha  occ. eigenvalues --   -0.59699  -0.56095  -0.53330  -0.44699  -0.39295
 Alpha  occ. eigenvalues --   -0.38987
 Alpha virt. eigenvalues --    0.03850   0.07827   0.08799   0.10196   0.11269
 Alpha virt. eigenvalues --    0.11614   0.15460   0.16088   0.16380   0.20060
 Alpha virt. eigenvalues --    0.20126   0.25391   0.32636   0.34236   0.35689

 Mulliken charges:
               1
     1  C   -0.083436
     2  C   -0.003525
     3  N   -0.205965
     4  H    0.104647
     5  H    0.096052
     6  H    0.092228
 Sum of Mulliken charges =   0.00000

 Dipole moment (field-independent basis, Debye):
    X=             -4.1173    Y=             -0.0033    Z=              0.0070  Tot=              4.1173
 Quadrupole moment (field-independent basis, Debye-Ang):
   XX=            -21.0373   YY=            -17.6981   ZZ=            -17.6493
   XY=              0.0077   XZ=              0.1013   YZ=             -0.0341

 Normal termination of Gaussian 09 at Wed Aug 26 14:39:42 2020.
