 Gaussian 09, Revision D.01,
 Gaussian 09:  ES64L-G09RevD.01 24-Apr-2013

 --------------------
 #p B2PLYPD3/Def2QZVP
 --------------------

 ------------
 cyanomethane
 ------------
 Symbolic Z-matrix:
 Charge =  0 Multiplicity = 1

                         Standard orientation:
 ---------------------------------------------------------------------
 Center     Atomic      Atomic             Coordinates (Angstroms)
 Number     Number       Type             X           Y           Z
 ---------------------------------------------------------------------
      1          6           0        1.181372   -0.003772   -0.011222
      2          6           0       -0.282521    0.008367   -0.019117
      3          7           0       -1.433462   -0.004867    0.013604
      4          1           0        1.581455   -0.081313    1.006586
      5          1           0        1.521984    0.913838   -0.388963
      6          1           0        1.537691   -0.826024   -0.530816
 ---------------------------------------------------------------------

 SCF Done:  E(RB2PLYPD3) =  -132.532811884     A.U. after   11 cycles
 E2(B2PLYPD3) =    -0.1798799039D+00 E(B2PLYPD3) =    -0.13271269178805D+03

 The electronic state is 1-A.
 Alpha  occ. eigenvalues --  -14.84110 -10.66278 -10.66165  -1.04230  -0.89798
 Alpha  occ. eigenvalues --   -0.60005  -0.55754  -0.53251  -0.44773  -0.39371
 Alpha  occ. eigenvalues --   -0.39080
 Alpha virt. eigenvalues --    0.03851   0.07984   0.08686   0.10208   0.11177
 Alpha virt. eigenvalues --    0.11604   0.15440   0.16284   0.16594   0.20009
 Alpha virt. eigenvalues --    0.20145   0.25235   0.32882   0.34475   0.35733

 Mulliken charges:
               1
     1  C   -0.072218
     2  C   -0.002687
     3  N   -0.205141
     4  H    0.087174
     5  H    0.095914
     6  H    0.096959
 Sum of Mulliken charges =   0.00000

 Dipole moment (field-independent basis, Debye):
    X=              4.1366    Y=              0.0080    Z=             -0.0065  Tot=              4.1366
 Quadrupole moment (field-independent basis, Debye-Ang):
   XX=            -20.8774   YY=            -17.6035   ZZ=            -17.8447
   XY=             -0.0404   XZ=              0.1555   YZ=              0.0231

 Normal termination of Gaussian 09 at Thu Aug 27 00:06:52 2020.
