 Gaussian 09, Revision D.01,
 Gaussian 09:  ES64L-G09RevD.01 24-Apr-2013

 --------------------
 #p B2PLYPD3/Def2QZVP
 --------------------

 ------------
 cyanomethane
 ------------
 Symbolic Z-matrix:
 Charge =  0 Multiplicity = 1

                         Standard orientation:
 ---------------------------------------------------------------------
 Center     Atomic      Atomic             Coordinates (Angstroms)
 Number     Number       Type             X           Y           Z
 ---------------------------------------------------------------------
      1          6           0        1.197155   -0.000670    0.000363
      2          6           0       -0.286416    0.005978   -0.023228
      3          7           0       -1.438878    0.001683    0.015129
      4          1           0        1.560807   -0.256607    0.979279
      5          1           0        1.586080    0.969356   -0.269506
      6          1           0        1.460822   -0.756378   -0.678488
 ---------------------------------------------------------------------

 SCF Done:  E(RB2PLYPD3) =  -132.533532156     A.U. after   12 cycles
 E2(B2PLYPD3) =    -0.1801127945D+00 E(B2PLYPD3) =    -0.13271364495047D+03

 The electronic state is 1-A.
 Alpha  occ. eigenvalues --  -14.84105 -10.66765 -10.66228  -1.04076  -0.89364
 Alpha  occ. eigenvalues --   -0.59145  -0.55090  -0.53843  -0.44667  -0.39250
 Alpha  occ. eigenvalues --   -0.39158
 Alpha virt. eigenvalues --    0.03820   0.08060   0.08730   0.10234   0.11175
 Alpha virt. eigenvalues --    0.11389   0.15195   0.15811   0.16632   0.20049
 Alpha virt. eigenvalues --    0.20119   0.24857   0.32572   0.34784   0.35196

 Mulliken charges:
               1
     1  C   -0.085537
     2  C   -0.004669
     3  N   -0.206002
     4  H    0.096168
     5  H    0.098383
     6  H    0.101658
 Sum of Mulliken charges =   0.00000

 Dipole moment (field-independent basis, Debye):
    X=              4.1383    Y=             -0.0162    Z=             -0.0142  Tot=              4.1383
 Quadrupole moment (field-independent basis, Debye-Ang):
   XX=            -21.0466   YY=            -17.6418   ZZ=            -17.7816
   XY=              0.0625   XZ=              0.1575   YZ=              0.0302

 Normal termination of Gaussian 09 at Wed Aug 26 14:42:04 2020.
