 Gaussian 09, Revision D.01,
 Gaussian 09:  ES64L-G09RevD.01 24-Apr-2013

 --------------------
 #p B2PLYPD3/Def2QZVP
 --------------------

 ------------
 cyanomethane
 ------------
 Symbolic Z-matrix:
 Charge =  0 Multiplicity = 1

                         Standard orientation:
 ---------------------------------------------------------------------
 Center     Atomic      Atomic             Coordinates (Angstroms)
 Number     Number       Type             X           Y           Z
 ---------------------------------------------------------------------
      1          6           0       -1.175479   -0.004828   -0.013871
      2          6           0        0.276562    0.017410    0.009828
      3          7           0        1.428686   -0.005337   -0.002547
      4          1           0       -1.545122   -0.165730    0.998247
      5          1           0       -1.491152   -0.815946   -0.605911
      6          1           0       -1.571027    0.943547   -0.350248
 ---------------------------------------------------------------------

 SCF Done:  E(RB2PLYPD3) =  -132.534971281     A.U. after   11 cycles
 E2(B2PLYPD3) =    -0.1800863054D+00 E(B2PLYPD3) =    -0.13271505758651D+03

 The electronic state is 1-A.
 Alpha  occ. eigenvalues --  -14.84066 -10.66609 -10.66097  -1.04185  -0.89690
 Alpha  occ. eigenvalues --   -0.59764  -0.55183  -0.53607  -0.44735  -0.39200
 Alpha  occ. eigenvalues --   -0.38981
 Alpha virt. eigenvalues --    0.03843   0.08013   0.08274   0.10189   0.11342
 Alpha virt. eigenvalues --    0.11606   0.15440   0.16063   0.16550   0.20050
 Alpha virt. eigenvalues --    0.20137   0.25459   0.32882   0.34378   0.35358

 Mulliken charges:
               1
     1  C   -0.081029
     2  C   -0.002573
     3  N   -0.206149
     4  H    0.091937
     5  H    0.100693
     6  H    0.097122
 Sum of Mulliken charges =   0.00000

 Dipole moment (field-independent basis, Debye):
    X=             -4.1248    Y=             -0.0023    Z=              0.0210  Tot=              4.1249
 Quadrupole moment (field-independent basis, Debye-Ang):
   XX=            -21.0092   YY=            -17.6052   ZZ=            -17.8051
   XY=             -0.0059   XZ=             -0.0520   YZ=              0.0326

 Normal termination of Gaussian 09 at Wed Aug 26 09:55:49 2020.
