 Gaussian 09, Revision D.01,
 Gaussian 09:  ES64L-G09RevD.01 24-Apr-2013

 --------------------
 #p B2PLYPD3/Def2QZVP
 --------------------

 ------------
 cyanomethane
 ------------
 Symbolic Z-matrix:
 Charge =  0 Multiplicity = 1

                         Standard orientation:
 ---------------------------------------------------------------------
 Center     Atomic      Atomic             Coordinates (Angstroms)
 Number     Number       Type             X           Y           Z
 ---------------------------------------------------------------------
      1          6           0       -1.159164    0.006268    0.004252
      2          6           0        0.292075   -0.034569   -0.016934
      3          7           0        1.423199    0.013647   -0.000906
      4          1           0       -1.556041    1.057048   -0.146120
      5          1           0       -1.478505   -0.334510    0.953082
      6          1           0       -1.725315   -0.648264   -0.724528
 ---------------------------------------------------------------------

 SCF Done:  E(RB2PLYPD3) =  -132.530675121     A.U. after   12 cycles
 E2(B2PLYPD3) =    -0.1790065373D+00 E(B2PLYPD3) =    -0.13270968165866D+03

 The electronic state is 1-A.
 Alpha  occ. eigenvalues --  -14.83707 -10.67446 -10.65762  -1.05146  -0.88811
 Alpha  occ. eigenvalues --   -0.60289  -0.53750  -0.52224  -0.44866  -0.39638
 Alpha  occ. eigenvalues --   -0.39546
 Alpha virt. eigenvalues --    0.03632   0.07343   0.08353   0.10253   0.11811
 Alpha virt. eigenvalues --    0.11917   0.15477   0.16280   0.17469   0.19962
 Alpha virt. eigenvalues --    0.20046   0.25584   0.32539   0.34195   0.34910

 Mulliken charges:
               1
     1  C   -0.081787
     2  C    0.000416
     3  N   -0.193120
     4  H    0.092458
     5  H    0.095156
     6  H    0.086877
 Sum of Mulliken charges =   0.00000

 Dipole moment (field-independent basis, Debye):
    X=             -4.0945    Y=             -0.0363    Z=              0.0425  Tot=              4.0949
 Quadrupole moment (field-independent basis, Debye-Ang):
   XX=            -20.7237   YY=            -17.6980   ZZ=            -17.8936
   XY=              0.0121   XZ=              0.0636   YZ=             -0.0545

 Normal termination of Gaussian 09 at Wed Aug 26 23:40:26 2020.
