 Gaussian 09, Revision D.01,
 Gaussian 09:  ES64L-G09RevD.01 24-Apr-2013

 --------------------
 #p B2PLYPD3/Def2QZVP
 --------------------

 ------------
 cyanomethane
 ------------
 Symbolic Z-matrix:
 Charge =  0 Multiplicity = 1

                         Standard orientation:
 ---------------------------------------------------------------------
 Center     Atomic      Atomic             Coordinates (Angstroms)
 Number     Number       Type             X           Y           Z
 ---------------------------------------------------------------------
      1          6           0       -1.174824    0.000644   -0.002040
      2          6           0        0.286508    0.007782    0.017377
      3          7           0        1.436119   -0.004337   -0.011324
      4          1           0       -1.593624   -0.861356   -0.541185
      5          1           0       -1.587813    0.890866   -0.468901
      6          1           0       -1.541499   -0.049704    0.997334
 ---------------------------------------------------------------------

 SCF Done:  E(RB2PLYPD3) =  -132.535140662     A.U. after   11 cycles
 E2(B2PLYPD3) =    -0.1800700635D+00 E(B2PLYPD3) =    -0.13271521072535D+03

 The electronic state is 1-A.
 Alpha  occ. eigenvalues --  -14.84178 -10.66944 -10.66254  -1.04355  -0.89179
 Alpha  occ. eigenvalues --   -0.60237  -0.54055  -0.53285  -0.44875  -0.39292
 Alpha  occ. eigenvalues --   -0.39232
 Alpha virt. eigenvalues --    0.03760   0.07718   0.08224   0.10182   0.11436
 Alpha virt. eigenvalues --    0.11569   0.15464   0.16309   0.16944   0.20028
 Alpha virt. eigenvalues --    0.20098   0.25318   0.32794   0.34671   0.34939

 Mulliken charges:
               1
     1  C   -0.073289
     2  C   -0.000386
     3  N   -0.203067
     4  H    0.091134
     5  H    0.092399
     6  H    0.093209
 Sum of Mulliken charges =   0.00000

 Dipole moment (field-independent basis, Debye):
    X=             -4.1331    Y=              0.0054    Z=              0.0266  Tot=              4.1332
 Quadrupole moment (field-independent basis, Debye-Ang):
   XX=            -20.7939   YY=            -17.7939   ZZ=            -17.7926
   XY=              0.0310   XZ=              0.0830   YZ=             -0.0153

 Normal termination of Gaussian 09 at Wed Aug 26 10:05:10 2020.
