 Gaussian 09, Revision D.01,
 Gaussian 09:  ES64L-G09RevD.01 24-Apr-2013

 --------------------
 #p B2PLYPD3/Def2QZVP
 --------------------

 ------------
 cyanomethane
 ------------
 Symbolic Z-matrix:
 Charge =  0 Multiplicity = 1

                         Standard orientation:
 ---------------------------------------------------------------------
 Center     Atomic      Atomic             Coordinates (Angstroms)
 Number     Number       Type             X           Y           Z
 ---------------------------------------------------------------------
      1          6           0        1.183166    0.009577   -0.000763
      2          6           0       -0.285404   -0.023826   -0.000953
      3          7           0       -1.434094    0.011371   -0.000600
      4          1           0        1.550384    1.038248   -0.127079
      5          1           0        1.564961   -0.632913   -0.807128
      6          1           0        1.536741   -0.399438    0.948701
 ---------------------------------------------------------------------

 SCF Done:  E(RB2PLYPD3) =  -132.535529501     A.U. after   12 cycles
 E2(B2PLYPD3) =    -0.1801124279D+00 E(B2PLYPD3) =    -0.13271564192897D+03

 The electronic state is 1-A.
 Alpha  occ. eigenvalues --  -14.84038 -10.67468 -10.66124  -1.04291  -0.88830
 Alpha  occ. eigenvalues --   -0.59246  -0.53917  -0.53545  -0.44736  -0.39251
 Alpha  occ. eigenvalues --   -0.39167
 Alpha virt. eigenvalues --    0.03701   0.07890   0.08113   0.10196   0.11450
 Alpha virt. eigenvalues --    0.11512   0.15302   0.16010   0.16626   0.20045
 Alpha virt. eigenvalues --    0.20069   0.25181   0.32623   0.34368   0.34665

 Mulliken charges:
               1
     1  C   -0.090253
     2  C   -0.002858
     3  N   -0.203072
     4  H    0.100967
     5  H    0.097307
     6  H    0.097909
 Sum of Mulliken charges =   0.00000

 Dipole moment (field-independent basis, Debye):
    X=              4.1169    Y=             -0.0263    Z=              0.0073  Tot=              4.1170
 Quadrupole moment (field-independent basis, Debye-Ang):
   XX=            -21.0638   YY=            -17.6790   ZZ=            -17.7963
   XY=              0.0353   XZ=             -0.0087   YZ=             -0.0066

 Normal termination of Gaussian 09 at Wed Aug 26 23:37:02 2020.
