 Gaussian 09, Revision D.01,
 Gaussian 09:  ES64L-G09RevD.01 24-Apr-2013

 --------------------
 #p B2PLYPD3/Def2QZVP
 --------------------

 ------------
 cyanomethane
 ------------
 Symbolic Z-matrix:
 Charge =  0 Multiplicity = 1

                         Standard orientation:
 ---------------------------------------------------------------------
 Center     Atomic      Atomic             Coordinates (Angstroms)
 Number     Number       Type             X           Y           Z
 ---------------------------------------------------------------------
      1          6           0        1.170323   -0.003105   -0.017237
      2          6           0       -0.279126   -0.006624    0.008643
      3          7           0       -1.428707    0.005099   -0.002752
      4          1           0        1.568427    1.026852   -0.119575
      5          1           0        1.541610   -0.629911   -0.759501
      6          1           0        1.543731   -0.374263    0.949898
 ---------------------------------------------------------------------

 SCF Done:  E(RB2PLYPD3) =  -132.533999029     A.U. after   11 cycles
 E2(B2PLYPD3) =    -0.1799983416D+00 E(B2PLYPD3) =    -0.13271399737052D+03

 The electronic state is 1-A.
 Alpha  occ. eigenvalues --  -14.84055 -10.66819 -10.66084  -1.04337  -0.89494
 Alpha  occ. eigenvalues --   -0.60109  -0.54861  -0.53104  -0.44797  -0.39306
 Alpha  occ. eigenvalues --   -0.39006
 Alpha virt. eigenvalues --    0.03781   0.07751   0.08271   0.10167   0.11392
 Alpha virt. eigenvalues --    0.11716   0.15504   0.16079   0.16842   0.20042
 Alpha virt. eigenvalues --    0.20115   0.25509   0.32862   0.34066   0.35332

 Mulliken charges:
               1
     1  C   -0.079298
     2  C   -0.001261
     3  N   -0.203999
     4  H    0.094729
     5  H    0.099362
     6  H    0.090467
 Sum of Mulliken charges =   0.00000

 Dipole moment (field-independent basis, Debye):
    X=              4.1210    Y=             -0.0204    Z=              0.0193  Tot=              4.1211
 Quadrupole moment (field-independent basis, Debye-Ang):
   XX=            -20.9339   YY=            -17.6727   ZZ=            -17.7987
   XY=              0.0208   XZ=              0.0241   YZ=              0.0657

 Normal termination of Gaussian 09 at Thu Aug 27 00:09:35 2020.
