 Gaussian 09, Revision D.01,
 Gaussian 09:  ES64L-G09RevD.01 24-Apr-2013

 --------------------
 #p B2PLYPD3/Def2QZVP
 --------------------

 ------------
 cyanomethane
 ------------
 Symbolic Z-matrix:
 Charge =  0 Multiplicity = 1

                         Standard orientation:
 ---------------------------------------------------------------------
 Center     Atomic      Atomic             Coordinates (Angstroms)
 Number     Number       Type             X           Y           Z
 ---------------------------------------------------------------------
      1          6           0       -1.175750    0.004846    0.020726
      2          6           0        0.275337   -0.071602   -0.016887
      3          7           0        1.457265    0.041582    0.007181
      4          1           0       -1.611532    0.046932    0.960106
      5          1           0       -1.538065   -0.839679   -0.503674
      6          1           0       -1.648776    0.902208   -0.529736
 ---------------------------------------------------------------------

 SCF Done:  E(RB2PLYPD3) =  -132.521548269     A.U. after   12 cycles
 E2(B2PLYPD3) =    -0.1837660987D+00 E(B2PLYPD3) =    -0.13270531436776D+03

 The electronic state is 1-A.
 Alpha  occ. eigenvalues --  -14.85429 -10.67506 -10.66892  -1.03034  -0.89463
 Alpha  occ. eigenvalues --   -0.61396  -0.54830  -0.51956  -0.45202  -0.38587
 Alpha  occ. eigenvalues --   -0.38242
 Alpha virt. eigenvalues --    0.03307   0.06504   0.07533   0.09831   0.11090
 Alpha virt. eigenvalues --    0.11481   0.15470   0.15959   0.17526   0.20037
 Alpha virt. eigenvalues --    0.20482   0.25759   0.32443   0.33638   0.35417

 Mulliken charges:
               1
     1  C   -0.063437
     2  C    0.011542
     3  N   -0.217332
     4  H    0.094688
     5  H    0.090780
     6  H    0.083759
 Sum of Mulliken charges =   0.00000

 Dipole moment (field-independent basis, Debye):
    X=             -4.1669    Y=             -0.0665    Z=             -0.0051  Tot=              4.1674
 Quadrupole moment (field-independent basis, Debye-Ang):
   XX=            -20.6151   YY=            -17.9938   ZZ=            -17.9640
   XY=             -0.2612   XZ=             -0.0404   YZ=              0.0750

 Normal termination of Gaussian 09 at Wed Aug 26 23:48:48 2020.
