 Gaussian 09, Revision D.01,
 Gaussian 09:  ES64L-G09RevD.01 24-Apr-2013

 --------------------
 #p B2PLYPD3/Def2QZVP
 --------------------

 ------------
 cyanomethane
 ------------
 Symbolic Z-matrix:
 Charge =  0 Multiplicity = 1

                         Standard orientation:
 ---------------------------------------------------------------------
 Center     Atomic      Atomic             Coordinates (Angstroms)
 Number     Number       Type             X           Y           Z
 ---------------------------------------------------------------------
      1          6           0       -1.196745   -0.016856    0.010695
      2          6           0        0.290407    0.026771   -0.013386
      3          7           0        1.429627   -0.008774    0.005803
      4          1           0       -1.506045   -0.283052    0.950011
      5          1           0       -1.490727   -0.708537   -0.728923
      6          1           0       -1.572590    0.993522   -0.245568
 ---------------------------------------------------------------------

 SCF Done:  E(RB2PLYPD3) =  -132.532220167     A.U. after   11 cycles
 E2(B2PLYPD3) =    -0.1788963067D+00 E(B2PLYPD3) =    -0.13271111647410D+03

 The electronic state is 1-A.
 Alpha  occ. eigenvalues --  -14.83673 -10.66577 -10.65762  -1.04566  -0.89442
 Alpha  occ. eigenvalues --   -0.58828  -0.55585  -0.53812  -0.44564  -0.39632
 Alpha  occ. eigenvalues --   -0.39429
 Alpha virt. eigenvalues --    0.03876   0.08487   0.08986   0.10247   0.11305
 Alpha virt. eigenvalues --    0.11509   0.15215   0.16005   0.16372   0.20018
 Alpha virt. eigenvalues --    0.20035   0.24823   0.32574   0.34548   0.35594

 Mulliken charges:
               1
     1  C   -0.088428
     2  C   -0.009008
     3  N   -0.199471
     4  H    0.102301
     5  H    0.100903
     6  H    0.093704
 Sum of Mulliken charges =   0.00000

 Dipole moment (field-independent basis, Debye):
    X=             -4.1118    Y=              0.0048    Z=             -0.0064  Tot=              4.1118
 Quadrupole moment (field-independent basis, Debye-Ang):
   XX=            -21.1038   YY=            -17.6497   ZZ=            -17.6217
   XY=              0.0043   XZ=             -0.0365   YZ=              0.0150

 Normal termination of Gaussian 09 at Wed Aug 26 12:24:37 2020.
