 Gaussian 09, Revision D.01,
 Gaussian 09:  ES64L-G09RevD.01 24-Apr-2013

 --------------------
 #p B2PLYPD3/Def2QZVP
 --------------------

 ------------
 cyanomethane
 ------------
 Symbolic Z-matrix:
 Charge =  0 Multiplicity = 1

                         Standard orientation:
 ---------------------------------------------------------------------
 Center     Atomic      Atomic             Coordinates (Angstroms)
 Number     Number       Type             X           Y           Z
 ---------------------------------------------------------------------
      1          6           0        1.179192   -0.008924   -0.025082
      2          6           0       -0.289253   -0.022148    0.011708
      3          7           0       -1.437977    0.015529   -0.003577
      4          1           0        1.612761    1.021542   -0.220480
      5          1           0        1.550611   -0.698251   -0.675572
      6          1           0        1.562830   -0.245561    1.001331
 ---------------------------------------------------------------------

 SCF Done:  E(RB2PLYPD3) =  -132.529472715     A.U. after   12 cycles
 E2(B2PLYPD3) =    -0.1801911822D+00 E(B2PLYPD3) =    -0.13270966389756D+03

 The electronic state is 1-A.
 Alpha  occ. eigenvalues --  -14.84172 -10.67240 -10.66276  -1.04369  -0.88997
 Alpha  occ. eigenvalues --   -0.60091  -0.55035  -0.51971  -0.44864  -0.39512
 Alpha  occ. eigenvalues --   -0.39017
 Alpha virt. eigenvalues --    0.03633   0.07392   0.08463   0.10177   0.11199
 Alpha virt. eigenvalues --    0.11774   0.15384   0.16054   0.17209   0.19982
 Alpha virt. eigenvalues --    0.20132   0.25198   0.32518   0.33536   0.35414

 Mulliken charges:
               1
     1  C   -0.079056
     2  C    0.000380
     3  N   -0.202511
     4  H    0.091929
     5  H    0.101916
     6  H    0.087342
 Sum of Mulliken charges =   0.00000

 Dipole moment (field-independent basis, Debye):
    X=              4.1273    Y=             -0.0308    Z=              0.0283  Tot=              4.1275
 Quadrupole moment (field-independent basis, Debye-Ang):
   XX=            -20.8456   YY=            -17.7380   ZZ=            -17.8640
   XY=              0.1230   XZ=              0.0394   YZ=              0.1143

 Normal termination of Gaussian 09 at Wed Aug 26 11:33:29 2020.
