 Gaussian 09, Revision D.01,
 Gaussian 09:  ES64L-G09RevD.01 24-Apr-2013

 --------------------
 #p B2PLYPD3/Def2QZVP
 --------------------

 ------------
 cyanomethane
 ------------
 Symbolic Z-matrix:
 Charge =  0 Multiplicity = 1

                         Standard orientation:
 ---------------------------------------------------------------------
 Center     Atomic      Atomic             Coordinates (Angstroms)
 Number     Number       Type             X           Y           Z
 ---------------------------------------------------------------------
      1          6           0       -1.191914    0.000178    0.010277
      2          6           0        0.276734   -0.018830   -0.013078
      3          7           0        1.442386    0.012679    0.001418
      4          1           0       -1.555395   -0.655692   -0.747039
      5          1           0       -1.585794    0.998762   -0.189776
      6          1           0       -1.464434   -0.319910    0.943704
 ---------------------------------------------------------------------

 SCF Done:  E(RB2PLYPD3) =  -132.531069603     A.U. after   12 cycles
 E2(B2PLYPD3) =    -0.1811421252D+00 E(B2PLYPD3) =    -0.13271221172782D+03

 The electronic state is 1-A.
 Alpha  occ. eigenvalues --  -14.84478 -10.66582 -10.66411  -1.03607  -0.89849
 Alpha  occ. eigenvalues --   -0.59584  -0.55634  -0.53891  -0.44752  -0.38922
 Alpha  occ. eigenvalues --   -0.38806
 Alpha virt. eigenvalues --    0.03834   0.07776   0.08509   0.10202   0.11104
 Alpha virt. eigenvalues --    0.11282   0.15302   0.15850   0.16502   0.20131
 Alpha virt. eigenvalues --    0.20171   0.25125   0.32564   0.34669   0.35422

 Mulliken charges:
               1
     1  C   -0.079269
     2  C   -0.001701
     3  N   -0.212642
     4  H    0.095854
     5  H    0.095330
     6  H    0.102429
 Sum of Mulliken charges =   0.00000

 Dipole moment (field-independent basis, Debye):
    X=             -4.1561    Y=             -0.0250    Z=              0.0016  Tot=              4.1561
 Quadrupole moment (field-independent basis, Debye-Ang):
   XX=            -21.0023   YY=            -17.7645   ZZ=            -17.7214
   XY=             -0.0996   XZ=              0.0661   YZ=             -0.0225

 Normal termination of Gaussian 09 at Wed Aug 26 15:37:49 2020.
