 Gaussian 09, Revision D.01,
 Gaussian 09:  ES64L-G09RevD.01 24-Apr-2013

 --------------------
 #p B2PLYPD3/Def2QZVP
 --------------------

 ------------
 cyanomethane
 ------------
 Symbolic Z-matrix:
 Charge =  0 Multiplicity = 1

                         Standard orientation:
 ---------------------------------------------------------------------
 Center     Atomic      Atomic             Coordinates (Angstroms)
 Number     Number       Type             X           Y           Z
 ---------------------------------------------------------------------
      1          6           0        1.180920   -0.024895    0.020461
      2          6           0       -0.278474    0.014274   -0.075344
      3          7           0       -1.420510   -0.004394    0.043877
      4          1           0        1.599275    0.014665    0.986495
      5          1           0        1.473343    0.987875   -0.463771
      6          1           0        1.456277   -0.908056   -0.500564
 ---------------------------------------------------------------------

 SCF Done:  E(RB2PLYPD3) =  -132.524551348     A.U. after   12 cycles
 E2(B2PLYPD3) =    -0.1803724418D+00 E(B2PLYPD3) =    -0.13270492378943D+03

 The electronic state is 1-A.
 Alpha  occ. eigenvalues --  -14.83942 -10.67228 -10.65955  -1.04348  -0.89235
 Alpha  occ. eigenvalues --   -0.59695  -0.55590  -0.52019  -0.44681  -0.39316
 Alpha  occ. eigenvalues --   -0.38784
 Alpha virt. eigenvalues --    0.03631   0.07196   0.08645   0.09931   0.11285
 Alpha virt. eigenvalues --    0.11819   0.15227   0.15449   0.17045   0.20027
 Alpha virt. eigenvalues --    0.20150   0.25689   0.31935   0.33910   0.35257

 Mulliken charges:
               1
     1  C   -0.100780
     2  C    0.002660
     3  N   -0.204090
     4  H    0.100004
     5  H    0.094339
     6  H    0.107866
 Sum of Mulliken charges =   0.00000

 Dipole moment (field-independent basis, Debye):
    X=              4.0478    Y=              0.0125    Z=             -0.0227  Tot=              4.0479
 Quadrupole moment (field-independent basis, Debye-Ang):
   XX=            -21.2921   YY=            -17.4490   ZZ=            -17.8872
   XY=              0.0022   XZ=              0.4539   YZ=              0.1081

 Normal termination of Gaussian 09 at Wed Aug 26 22:23:48 2020.
