 Gaussian 09, Revision D.01,
 Gaussian 09:  ES64L-G09RevD.01 24-Apr-2013

 --------------------
 #p B2PLYPD3/Def2QZVP
 --------------------

 ------------
 cyanomethane
 ------------
 Symbolic Z-matrix:
 Charge =  0 Multiplicity = 1

                         Standard orientation:
 ---------------------------------------------------------------------
 Center     Atomic      Atomic             Coordinates (Angstroms)
 Number     Number       Type             X           Y           Z
 ---------------------------------------------------------------------
      1          6           0       -1.176879    0.012125    0.008238
      2          6           0        0.279961   -0.003599   -0.013301
      3          7           0        1.432151   -0.000442    0.005172
      4          1           0       -1.534541    1.021926   -0.050258
      5          1           0       -1.542802   -0.492807    0.902375
      6          1           0       -1.566209   -0.577175   -0.857947
 ---------------------------------------------------------------------

 SCF Done:  E(RB2PLYPD3) =  -132.535022728     A.U. after   11 cycles
 E2(B2PLYPD3) =    -0.1803294201D+00 E(B2PLYPD3) =    -0.13271535214778D+03

 The electronic state is 1-A.
 Alpha  occ. eigenvalues --  -14.84111 -10.67242 -10.66167  -1.04193  -0.89146
 Alpha  occ. eigenvalues --   -0.59575  -0.54675  -0.53070  -0.44763  -0.39206
 Alpha  occ. eigenvalues --   -0.38966
 Alpha virt. eigenvalues --    0.03739   0.07747   0.08084   0.10178   0.11357
 Alpha virt. eigenvalues --    0.11642   0.15384   0.16114   0.16543   0.20043
 Alpha virt. eigenvalues --    0.20118   0.25362   0.32665   0.34096   0.35067

 Mulliken charges:
               1
     1  C   -0.086635
     2  C   -0.001887
     3  N   -0.205066
     4  H    0.102032
     5  H    0.098100
     6  H    0.093455
 Sum of Mulliken charges =   0.00000

 Dipole moment (field-independent basis, Debye):
    X=             -4.1203    Y=             -0.0110    Z=             -0.0055  Tot=              4.1203
 Quadrupole moment (field-independent basis, Debye-Ang):
   XX=            -21.0424   YY=            -17.6511   ZZ=            -17.8278
   XY=              0.0532   XZ=             -0.0148   YZ=             -0.0326

 Normal termination of Gaussian 09 at Thu Aug 27 00:01:23 2020.
