 Gaussian 09, Revision D.01,
 Gaussian 09:  ES64L-G09RevD.01 24-Apr-2013

 --------------------
 #p B2PLYPD3/Def2QZVP
 --------------------

 ------------
 cyanomethane
 ------------
 Symbolic Z-matrix:
 Charge =  0 Multiplicity = 1

                         Standard orientation:
 ---------------------------------------------------------------------
 Center     Atomic      Atomic             Coordinates (Angstroms)
 Number     Number       Type             X           Y           Z
 ---------------------------------------------------------------------
      1          6           0        1.148719   -0.024295    0.006620
      2          6           0       -0.268760   -0.047674   -0.017200
      3          7           0       -1.426521    0.036215    0.010492
      4          1           0        1.658898    0.931695   -0.439209
      5          1           0        1.452003   -0.757158   -0.526959
      6          1           0        1.594996    0.003768    0.956210
 ---------------------------------------------------------------------

 SCF Done:  E(RB2PLYPD3) =  -132.510973429     A.U. after   12 cycles
 E2(B2PLYPD3) =    -0.1811224207D+00 E(B2PLYPD3) =    -0.13269209584984D+03

 The electronic state is 1-A.
 Alpha  occ. eigenvalues --  -14.84523 -10.66409 -10.65631  -1.04114  -0.90902
 Alpha  occ. eigenvalues --   -0.61823  -0.57279  -0.51456  -0.45047  -0.39188
 Alpha  occ. eigenvalues --   -0.38458
 Alpha virt. eigenvalues --    0.03409   0.06739   0.08862   0.09969   0.11059
 Alpha virt. eigenvalues --    0.12045   0.15708   0.16435   0.17333   0.19919
 Alpha virt. eigenvalues --    0.20413   0.26142   0.32393   0.34119   0.36101

 Mulliken charges:
               1
     1  C   -0.065713
     2  C    0.006418
     3  N   -0.209055
     4  H    0.075760
     5  H    0.103240
     6  H    0.089350
 Sum of Mulliken charges =   0.00000

 Dipole moment (field-independent basis, Debye):
    X=              4.1339    Y=             -0.0588    Z=              0.0037  Tot=              4.1343
 Quadrupole moment (field-independent basis, Debye-Ang):
   XX=            -20.5591   YY=            -17.8104   ZZ=            -17.8214
   XY=              0.3379   XZ=              0.1275   YZ=              0.1823

 Normal termination of Gaussian 09 at Wed Aug 26 23:40:13 2020.
