 Gaussian 09, Revision D.01,
 Gaussian 09:  ES64L-G09RevD.01 24-Apr-2013

 --------------------
 #p B2PLYPD3/Def2QZVP
 --------------------

 ------------
 cyanomethane
 ------------
 Symbolic Z-matrix:
 Charge =  0 Multiplicity = 1

                         Standard orientation:
 ---------------------------------------------------------------------
 Center     Atomic      Atomic             Coordinates (Angstroms)
 Number     Number       Type             X           Y           Z
 ---------------------------------------------------------------------
      1          6           0        1.181203   -0.003692   -0.010231
      2          6           0       -0.286628   -0.001801   -0.027962
      3          7           0       -1.438947    0.003981    0.020036
      4          1           0        1.508022   -0.867257   -0.546143
      5          1           0        1.621851   -0.068561    1.062195
      6          1           0        1.575306    0.940904   -0.427150
 ---------------------------------------------------------------------

 SCF Done:  E(RB2PLYPD3) =  -132.530882470     A.U. after   12 cycles
 E2(B2PLYPD3) =    -0.1807486760D+00 E(B2PLYPD3) =    -0.13271163114588D+03

 The electronic state is 1-A.
 Alpha  occ. eigenvalues --  -14.84244 -10.67867 -10.66338  -1.04185  -0.88580
 Alpha  occ. eigenvalues --   -0.59391  -0.54669  -0.51922  -0.44830  -0.39267
 Alpha  occ. eigenvalues --   -0.38937
 Alpha virt. eigenvalues --    0.03512   0.07132   0.08250   0.10179   0.11234
 Alpha virt. eigenvalues --    0.11702   0.15296   0.16163   0.16683   0.19985
 Alpha virt. eigenvalues --    0.20142   0.25187   0.32304   0.33573   0.35025

 Mulliken charges:
               1
     1  C   -0.090035
     2  C   -0.000484
     3  N   -0.203910
     4  H    0.103531
     5  H    0.091546
     6  H    0.099352
 Sum of Mulliken charges =   0.00000

 Dipole moment (field-independent basis, Debye):
    X=              4.1183    Y=             -0.0073    Z=             -0.0314  Tot=              4.1184
 Quadrupole moment (field-independent basis, Debye-Ang):
   XX=            -21.0079   YY=            -17.6980   ZZ=            -17.9048
   XY=              0.0666   XZ=              0.1906   YZ=              0.0433

 Normal termination of Gaussian 09 at Wed Aug 26 15:50:47 2020.
