 Gaussian 09, Revision D.01,
 Gaussian 09:  ES64L-G09RevD.01 24-Apr-2013

 --------------------
 #p B2PLYPD3/Def2QZVP
 --------------------

 ------------
 cyanomethane
 ------------
 Symbolic Z-matrix:
 Charge =  0 Multiplicity = 1

                         Standard orientation:
 ---------------------------------------------------------------------
 Center     Atomic      Atomic             Coordinates (Angstroms)
 Number     Number       Type             X           Y           Z
 ---------------------------------------------------------------------
      1          6           0        1.187997    0.001699   -0.000612
      2          6           0       -0.267724   -0.008590   -0.036093
      3          7           0       -1.442223    0.003277    0.011690
      4          1           0        1.556855    0.930270   -0.410579
      5          1           0        1.589010   -0.863139   -0.499226
      6          1           0        1.428057   -0.048725    1.048199
 ---------------------------------------------------------------------

 SCF Done:  E(RB2PLYPD3) =  -132.532038028     A.U. after   12 cycles
 E2(B2PLYPD3) =    -0.1821747294D+00 E(B2PLYPD3) =    -0.13271421275778D+03

 The electronic state is 1-A.
 Alpha  occ. eigenvalues --  -14.84666 -10.66894 -10.66775  -1.03242  -0.89692
 Alpha  occ. eigenvalues --   -0.59506  -0.54838  -0.54275  -0.44748  -0.38615
 Alpha  occ. eigenvalues --   -0.38406
 Alpha virt. eigenvalues --    0.03772   0.07704   0.07819   0.10173   0.11030
 Alpha virt. eigenvalues --    0.11361   0.15268   0.15642   0.16406   0.20153
 Alpha virt. eigenvalues --    0.20242   0.25366   0.32465   0.34334   0.35113

 Mulliken charges:
               1
     1  C   -0.087564
     2  C    0.000666
     3  N   -0.217321
     4  H    0.101547
     5  H    0.100606
     6  H    0.102066
 Sum of Mulliken charges =   0.00000

 Dipole moment (field-independent basis, Debye):
    X=              4.1581    Y=             -0.0046    Z=              0.0153  Tot=              4.1581
 Quadrupole moment (field-independent basis, Debye-Ang):
   XX=            -21.1440   YY=            -17.6863   ZZ=            -17.8344
   XY=             -0.0039   XZ=             -0.0002   YZ=             -0.0009

 Normal termination of Gaussian 09 at Wed Aug 26 11:51:49 2020.
