 Gaussian 09, Revision D.01,
 Gaussian 09:  ES64L-G09RevD.01 24-Apr-2013

 --------------------
 #p B2PLYPD3/Def2QZVP
 --------------------

 ------------
 cyanomethane
 ------------
 Symbolic Z-matrix:
 Charge =  0 Multiplicity = 1

                         Standard orientation:
 ---------------------------------------------------------------------
 Center     Atomic      Atomic             Coordinates (Angstroms)
 Number     Number       Type             X           Y           Z
 ---------------------------------------------------------------------
      1          6           0       -1.171143    0.014156   -0.001964
      2          6           0        0.267822    0.006865    0.025720
      3          7           0        1.433733   -0.011954   -0.010406
      4          1           0       -1.443928    1.014712   -0.083990
      5          1           0       -1.615655   -0.474070    0.842063
      6          1           0       -1.556619   -0.583088   -0.827764
 ---------------------------------------------------------------------

 SCF Done:  E(RB2PLYPD3) =  -132.530529003     A.U. after   12 cycles
 E2(B2PLYPD3) =    -0.1813381395D+00 E(B2PLYPD3) =    -0.13271186714229D+03

 The electronic state is 1-A.
 Alpha  occ. eigenvalues --  -14.84480 -10.66511 -10.66295  -1.03685  -0.90149
 Alpha  occ. eigenvalues --   -0.60532  -0.55964  -0.53026  -0.44830  -0.38856
 Alpha  occ. eigenvalues --   -0.38554
 Alpha virt. eigenvalues --    0.03820   0.07435   0.08247   0.10150   0.11104
 Alpha virt. eigenvalues --    0.11650   0.15383   0.16281   0.16457   0.20070
 Alpha virt. eigenvalues --    0.20262   0.25693   0.32894   0.34373   0.35457

 Mulliken charges:
               1
     1  C   -0.072629
     2  C    0.001292
     3  N   -0.213316
     4  H    0.102898
     5  H    0.090810
     6  H    0.090945
 Sum of Mulliken charges =   0.00000

 Dipole moment (field-independent basis, Debye):
    X=             -4.1531    Y=             -0.0113    Z=              0.0102  Tot=              4.1531
 Quadrupole moment (field-independent basis, Debye-Ang):
   XX=            -20.9181   YY=            -17.5551   ZZ=            -17.9691
   XY=              0.2613   XZ=              0.0178   YZ=             -0.0244

 Normal termination of Gaussian 09 at Wed Aug 26 15:06:21 2020.
