 Gaussian 09, Revision D.01,
 Gaussian 09:  ES64L-G09RevD.01 24-Apr-2013

 --------------------
 #p B2PLYPD3/Def2QZVP
 --------------------

 ------------
 cyanomethane
 ------------
 Symbolic Z-matrix:
 Charge =  0 Multiplicity = 1

                         Standard orientation:
 ---------------------------------------------------------------------
 Center     Atomic      Atomic             Coordinates (Angstroms)
 Number     Number       Type             X           Y           Z
 ---------------------------------------------------------------------
      1          6           0       -1.207035   -0.018259    0.005619
      2          6           0        0.281434    0.036671   -0.024103
      3          7           0        1.438354   -0.025643    0.018921
      4          1           0       -1.382987    0.986085   -0.057304
      5          1           0       -1.647594   -0.407808    0.828420
      6          1           0       -1.484297   -0.509247   -0.792656
 ---------------------------------------------------------------------

 SCF Done:  E(RB2PLYPD3) =  -132.512805864     A.U. after   12 cycles
 E2(B2PLYPD3) =    -0.1802737138D+00 E(B2PLYPD3) =    -0.13269307957806D+03

 The electronic state is 1-A.
 Alpha  occ. eigenvalues --  -14.84267 -10.66406 -10.64806  -1.03865  -0.91121
 Alpha  occ. eigenvalues --   -0.60452  -0.56840  -0.54620  -0.44652  -0.39279
 Alpha  occ. eigenvalues --   -0.38985
 Alpha virt. eigenvalues --    0.03996   0.08304   0.09593   0.10025   0.11026
 Alpha virt. eigenvalues --    0.11330   0.14928   0.15478   0.17348   0.20147
 Alpha virt. eigenvalues --    0.20225   0.24861   0.32787   0.35259   0.36357

 Mulliken charges:
               1
     1  C   -0.075636
     2  C   -0.000243
     3  N   -0.210575
     4  H    0.097836
     5  H    0.090187
     6  H    0.098432
 Sum of Mulliken charges =   0.00000

 Dipole moment (field-independent basis, Debye):
    X=             -4.1453    Y=              0.0507    Z=             -0.0331  Tot=              4.1457
 Quadrupole moment (field-independent basis, Debye-Ang):
   XX=            -20.8888   YY=            -17.6114   ZZ=            -17.7084
   XY=              0.2536   XZ=             -0.1977   YZ=              0.0435

 Normal termination of Gaussian 09 at Wed Aug 26 19:07:02 2020.
