 Gaussian 09, Revision D.01,
 Gaussian 09:  ES64L-G09RevD.01 24-Apr-2013

 --------------------
 #p B2PLYPD3/Def2QZVP
 --------------------

 ------------
 cyanomethane
 ------------
 Symbolic Z-matrix:
 Charge =  0 Multiplicity = 1

                         Standard orientation:
 ---------------------------------------------------------------------
 Center     Atomic      Atomic             Coordinates (Angstroms)
 Number     Number       Type             X           Y           Z
 ---------------------------------------------------------------------
      1          6           0        1.172735   -0.010047   -0.015948
      2          6           0       -0.262643   -0.009482    0.049592
      3          7           0       -1.433216    0.007723   -0.021796
      4          1           0        1.554074   -0.019547    0.987531
      5          1           0        1.530187    0.956362   -0.482790
      6          1           0        1.487695   -0.873704   -0.554037
 ---------------------------------------------------------------------

 SCF Done:  E(RB2PLYPD3) =  -132.530608305     A.U. after   11 cycles
 E2(B2PLYPD3) =    -0.1821352023D+00 E(B2PLYPD3) =    -0.13271274350745D+03

 The electronic state is 1-A.
 Alpha  occ. eigenvalues --  -14.84595 -10.67007 -10.66594  -1.03412  -0.89745
 Alpha  occ. eigenvalues --   -0.59675  -0.55262  -0.53415  -0.44792  -0.38587
 Alpha  occ. eigenvalues --   -0.38346
 Alpha virt. eigenvalues --    0.03619   0.07276   0.07880   0.10087   0.11199
 Alpha virt. eigenvalues --    0.11449   0.15314   0.15726   0.16477   0.20151
 Alpha virt. eigenvalues --    0.20214   0.25821   0.32755   0.33786   0.35030

 Mulliken charges:
               1
     1  C   -0.089205
     2  C    0.002246
     3  N   -0.216000
     4  H    0.097229
     5  H    0.099383
     6  H    0.106348
 Sum of Mulliken charges =   0.00000

 Dipole moment (field-independent basis, Debye):
    X=              4.1310    Y=             -0.0088    Z=              0.0493  Tot=              4.1313
 Quadrupole moment (field-independent basis, Debye-Ang):
   XX=            -21.1703   YY=            -17.6353   ZZ=            -17.8536
   XY=              0.0797   XZ=             -0.0148   YZ=              0.0646

 Normal termination of Gaussian 09 at Wed Aug 26 13:31:11 2020.
