 Gaussian 09, Revision D.01,
 Gaussian 09:  ES64L-G09RevD.01 24-Apr-2013

 --------------------
 #p B2PLYPD3/Def2QZVP
 --------------------

 ------------
 cyanomethane
 ------------
 Symbolic Z-matrix:
 Charge =  0 Multiplicity = 1

                         Standard orientation:
 ---------------------------------------------------------------------
 Center     Atomic      Atomic             Coordinates (Angstroms)
 Number     Number       Type             X           Y           Z
 ---------------------------------------------------------------------
      1          6           0       -1.194508    0.006545   -0.022835
      2          6           0        0.274601    0.006452    0.074797
      3          7           0        1.447962   -0.001283   -0.038571
      4          1           0       -1.508862   -0.167788    1.004841
      5          1           0       -1.527565   -0.914240   -0.636392
      6          1           0       -1.579865    1.013026   -0.410217
 ---------------------------------------------------------------------

 SCF Done:  E(RB2PLYPD3) =  -132.523353981     A.U. after   12 cycles
 E2(B2PLYPD3) =    -0.1834341743D+00 E(B2PLYPD3) =    -0.13270678815542D+03

 The electronic state is 1-A.
 Alpha  occ. eigenvalues --  -14.84860 -10.68582 -10.66967  -1.03103  -0.88321
 Alpha  occ. eigenvalues --   -0.58419  -0.53713  -0.52880  -0.44779  -0.38507
 Alpha  occ. eigenvalues --   -0.38266
 Alpha virt. eigenvalues --    0.03157   0.06685   0.07768   0.10002   0.11013
 Alpha virt. eigenvalues --    0.11229   0.14769   0.15263   0.16977   0.20117
 Alpha virt. eigenvalues --    0.20209   0.25414   0.32043   0.33209   0.34119

 Mulliken charges:
               1
     1  C   -0.108913
     2  C    0.006536
     3  N   -0.216187
     4  H    0.102951
     5  H    0.106116
     6  H    0.109497
 Sum of Mulliken charges =   0.00000

 Dipole moment (field-independent basis, Debye):
    X=             -4.1197    Y=             -0.0148    Z=              0.0852  Tot=              4.1206
 Quadrupole moment (field-independent basis, Debye-Ang):
   XX=            -21.3612   YY=            -17.6123   ZZ=            -18.0111
   XY=              0.0003   XZ=              0.1325   YZ=             -0.0305

 Normal termination of Gaussian 09 at Wed Aug 26 23:00:06 2020.
