 Gaussian 09, Revision D.01,
 Gaussian 09:  ES64L-G09RevD.01 24-Apr-2013

 --------------------
 #p B2PLYPD3/Def2QZVP
 --------------------

 ------------
 cyanomethane
 ------------
 Symbolic Z-matrix:
 Charge =  0 Multiplicity = 1

                         Standard orientation:
 ---------------------------------------------------------------------
 Center     Atomic      Atomic             Coordinates (Angstroms)
 Number     Number       Type             X           Y           Z
 ---------------------------------------------------------------------
      1          6           0        1.162860   -0.011947    0.003487
      2          6           0       -0.285423   -0.005657    0.028239
      3          7           0       -1.421641    0.009379   -0.015077
      4          1           0        1.628179    1.009442   -0.234868
      5          1           0        1.513126   -0.672633   -0.755256
      6          1           0        1.545559   -0.296835    0.905304
 ---------------------------------------------------------------------

 SCF Done:  E(RB2PLYPD3) =  -132.530509159     A.U. after   11 cycles
 E2(B2PLYPD3) =    -0.1789280112D+00 E(B2PLYPD3) =    -0.13270943716994D+03

 The electronic state is 1-A.
 Alpha  occ. eigenvalues --  -14.83763 -10.66515 -10.65755  -1.04895  -0.89630
 Alpha  occ. eigenvalues --   -0.60449  -0.55156  -0.52629  -0.44817  -0.39666
 Alpha  occ. eigenvalues --   -0.39352
 Alpha virt. eigenvalues --    0.03714   0.07656   0.08839   0.10202   0.11500
 Alpha virt. eigenvalues --    0.11887   0.15607   0.16393   0.16988   0.19948
 Alpha virt. eigenvalues --    0.20082   0.25582   0.32776   0.34351   0.35479

 Mulliken charges:
               1
     1  C   -0.074001
     2  C   -0.002367
     3  N   -0.196801
     4  H    0.085265
     5  H    0.093371
     6  H    0.094532
 Sum of Mulliken charges =   0.00000

 Dipole moment (field-independent basis, Debye):
    X=              4.1006    Y=             -0.0401    Z=              0.0309  Tot=              4.1010
 Quadrupole moment (field-independent basis, Debye-Ang):
   XX=            -20.7818   YY=            -17.7397   ZZ=            -17.7051
   XY=              0.0880   XZ=             -0.0696   YZ=              0.0166

 Normal termination of Gaussian 09 at Wed Aug 26 14:41:49 2020.
