 Gaussian 09, Revision D.01,
 Gaussian 09:  ES64L-G09RevD.01 24-Apr-2013

 --------------------
 #p B2PLYPD3/Def2QZVP
 --------------------

 ------------
 cyanomethane
 ------------
 Symbolic Z-matrix:
 Charge =  0 Multiplicity = 1

                         Standard orientation:
 ---------------------------------------------------------------------
 Center     Atomic      Atomic             Coordinates (Angstroms)
 Number     Number       Type             X           Y           Z
 ---------------------------------------------------------------------
      1          6           0       -1.164686    0.009988   -0.013804
      2          6           0        0.286446    0.017993    0.051482
      3          7           0        1.424662   -0.007389   -0.038000
      4          1           0       -1.694754   -0.556639   -0.857473
      5          1           0       -1.610019    1.015355    0.020063
      6          1           0       -1.398423   -0.574886    0.877340
 ---------------------------------------------------------------------

 SCF Done:  E(RB2PLYPD3) =  -132.526628778     A.U. after   12 cycles
 E2(B2PLYPD3) =    -0.1801319875D+00 E(B2PLYPD3) =    -0.13270676076561D+03

 The electronic state is 1-A.
 Alpha  occ. eigenvalues --  -14.83946 -10.67660 -10.66009  -1.04739  -0.88836
 Alpha  occ. eigenvalues --   -0.59977  -0.54263  -0.51769  -0.44870  -0.39474
 Alpha  occ. eigenvalues --   -0.38994
 Alpha virt. eigenvalues --    0.03459   0.06933   0.08446   0.10070   0.11538
 Alpha virt. eigenvalues --    0.11922   0.15203   0.15682   0.17988   0.19970
 Alpha virt. eigenvalues --    0.20390   0.25758   0.32763   0.33515   0.34856

 Mulliken charges:
               1
     1  C   -0.093469
     2  C    0.004038
     3  N   -0.198525
     4  H    0.092536
     5  H    0.099208
     6  H    0.096212
 Sum of Mulliken charges =   0.00000

 Dipole moment (field-independent basis, Debye):
    X=             -4.0864    Y=             -0.0196    Z=              0.0898  Tot=              4.0875
 Quadrupole moment (field-independent basis, Debye-Ang):
   XX=            -20.8759   YY=            -17.6505   ZZ=            -17.9520
   XY=              0.0587   XZ=              0.3632   YZ=             -0.0560

 Normal termination of Gaussian 09 at Wed Aug 26 23:48:31 2020.
