 Gaussian 09, Revision D.01,
 Gaussian 09:  ES64L-G09RevD.01 24-Apr-2013

 --------------------
 #p B2PLYPD3/Def2QZVP
 --------------------

 ------------
 cyanomethane
 ------------
 Symbolic Z-matrix:
 Charge =  0 Multiplicity = 1

                         Standard orientation:
 ---------------------------------------------------------------------
 Center     Atomic      Atomic             Coordinates (Angstroms)
 Number     Number       Type             X           Y           Z
 ---------------------------------------------------------------------
      1          6           0        1.164840   -0.022636   -0.015748
      2          6           0       -0.277604   -0.017197   -0.011041
      3          7           0       -1.442801    0.007285    0.000574
      4          1           0        1.605271    0.846087   -0.536026
      5          1           0        1.692977   -0.848465   -0.306432
      6          1           0        1.477949    0.190378    0.999172
 ---------------------------------------------------------------------

 SCF Done:  E(RB2PLYPD3) =  -132.526807785     A.U. after   12 cycles
 E2(B2PLYPD3) =    -0.1815211185D+00 E(B2PLYPD3) =    -0.13270832890301D+03

 The electronic state is 1-A.
 Alpha  occ. eigenvalues --  -14.84682 -10.66843 -10.66380  -1.03860  -0.89923
 Alpha  occ. eigenvalues --   -0.62041  -0.54630  -0.52504  -0.45063  -0.39097
 Alpha  occ. eigenvalues --   -0.38574
 Alpha virt. eigenvalues --    0.03748   0.07361   0.07806   0.10106   0.11242
 Alpha virt. eigenvalues --    0.11802   0.15522   0.15940   0.18000   0.20203
 Alpha virt. eigenvalues --    0.20356   0.25585   0.32743   0.34013   0.35539

 Mulliken charges:
               1
     1  C   -0.057912
     2  C    0.011294
     3  N   -0.211640
     4  H    0.082508
     5  H    0.092607
     6  H    0.083144
 Sum of Mulliken charges =   0.00000

 Dipole moment (field-independent basis, Debye):
    X=              4.1826    Y=              0.0197    Z=              0.0526  Tot=              4.1830
 Quadrupole moment (field-independent basis, Debye-Ang):
   XX=            -20.5109   YY=            -17.7979   ZZ=            -18.0214
   XY=              0.0510   XZ=              0.0167   YZ=              0.0582

 Normal termination of Gaussian 09 at Wed Aug 26 21:39:54 2020.
