 Gaussian 09, Revision D.01,
 Gaussian 09:  ES64L-G09RevD.01 24-Apr-2013

 --------------------
 #p B2PLYPD3/Def2QZVP
 --------------------

 ------------
 cyanomethane
 ------------
 Symbolic Z-matrix:
 Charge =  0 Multiplicity = 1

                         Standard orientation:
 ---------------------------------------------------------------------
 Center     Atomic      Atomic             Coordinates (Angstroms)
 Number     Number       Type             X           Y           Z
 ---------------------------------------------------------------------
      1          6           0       -1.207741   -0.009296   -0.028018
      2          6           0        0.299171    0.053668    0.002048
      3          7           0        1.430605   -0.019296    0.004848
      4          1           0       -1.531969   -0.358772    1.004139
      5          1           0       -1.413994   -0.749637   -0.706980
      6          1           0       -1.616852    0.977249   -0.175276
 ---------------------------------------------------------------------

 SCF Done:  E(RB2PLYPD3) =  -132.528392718     A.U. after   12 cycles
 E2(B2PLYPD3) =    -0.1787469859D+00 E(B2PLYPD3) =    -0.13270713970377D+03

 The electronic state is 1-A.
 Alpha  occ. eigenvalues --  -14.83468 -10.67361 -10.65613  -1.04753  -0.88752
 Alpha  occ. eigenvalues --   -0.57893  -0.56294  -0.52452  -0.44459  -0.39892
 Alpha  occ. eigenvalues --   -0.39434
 Alpha virt. eigenvalues --    0.03696   0.08325   0.09092   0.10293   0.11174
 Alpha virt. eigenvalues --    0.11734   0.14925   0.15907   0.16385   0.19875
 Alpha virt. eigenvalues --    0.20084   0.24518   0.32268   0.33430   0.36133

 Mulliken charges:
               1
     1  C   -0.100341
     2  C   -0.011681
     3  N   -0.195416
     4  H    0.092087
     5  H    0.111475
     6  H    0.103876
 Sum of Mulliken charges =   0.00000

 Dipole moment (field-independent basis, Debye):
    X=             -4.1053    Y=              0.0179    Z=              0.0116  Tot=              4.1053
 Quadrupole moment (field-independent basis, Debye-Ang):
   XX=            -21.2142   YY=            -17.4954   ZZ=            -17.7837
   XY=             -0.0064   XZ=             -0.1433   YZ=              0.1027

 Normal termination of Gaussian 09 at Wed Aug 26 21:50:49 2020.
