 Gaussian 09, Revision D.01,
 Gaussian 09:  ES64L-G09RevD.01 24-Apr-2013

 --------------------
 #p B2PLYPD3/Def2QZVP
 --------------------

 ------------
 cyanomethane
 ------------
 Symbolic Z-matrix:
 Charge =  0 Multiplicity = 1

                         Standard orientation:
 ---------------------------------------------------------------------
 Center     Atomic      Atomic             Coordinates (Angstroms)
 Number     Number       Type             X           Y           Z
 ---------------------------------------------------------------------
      1          6           0       -1.185993   -0.003506    0.006495
      2          6           0        0.276311    0.001011    0.017604
      3          7           0        1.438380    0.001535   -0.014518
      4          1           0       -1.467823   -0.357384    0.918659
      5          1           0       -1.572311   -0.651172   -0.782722
      6          1           0       -1.570438    1.012779   -0.178901
 ---------------------------------------------------------------------

 SCF Done:  E(RB2PLYPD3) =  -132.530948371     A.U. after   12 cycles
 E2(B2PLYPD3) =    -0.1809522800D+00 E(B2PLYPD3) =    -0.13271190065086D+03

 The electronic state is 1-A.
 Alpha  occ. eigenvalues --  -14.84376 -10.66637 -10.66447  -1.03769  -0.89735
 Alpha  occ. eigenvalues --   -0.59594  -0.55562  -0.53469  -0.44758  -0.38983
 Alpha  occ. eigenvalues --   -0.38825
 Alpha virt. eigenvalues --    0.03777   0.07561   0.08591   0.10182   0.11129
 Alpha virt. eigenvalues --    0.11432   0.15359   0.15847   0.16566   0.20096
 Alpha virt. eigenvalues --    0.20178   0.25237   0.32603   0.34410   0.35282

 Mulliken charges:
               1
     1  C   -0.082763
     2  C   -0.001706
     3  N   -0.210745
     4  H    0.103212
     5  H    0.095433
     6  H    0.096569
 Sum of Mulliken charges =   0.00000

 Dipole moment (field-independent basis, Debye):
    X=             -4.1428    Y=             -0.0127    Z=              0.0251  Tot=              4.1429
 Quadrupole moment (field-independent basis, Debye-Ang):
   XX=            -21.0242   YY=            -17.7303   ZZ=            -17.7451
   XY=             -0.0129   XZ=              0.1498   YZ=             -0.0462

 Normal termination of Gaussian 09 at Wed Aug 26 09:47:24 2020.
