 Gaussian 09, Revision D.01,
 Gaussian 09:  ES64L-G09RevD.01 24-Apr-2013

 --------------------
 #p B2PLYPD3/Def2QZVP
 --------------------

 ------------
 cyanomethane
 ------------
 Symbolic Z-matrix:
 Charge =  0 Multiplicity = 1

                         Standard orientation:
 ---------------------------------------------------------------------
 Center     Atomic      Atomic             Coordinates (Angstroms)
 Number     Number       Type             X           Y           Z
 ---------------------------------------------------------------------
      1          6           0       -1.146238    0.016480   -0.009783
      2          6           0        0.278585   -0.036357    0.032516
      3          7           0        1.417848    0.015644   -0.025075
      4          1           0       -1.568178    1.037433   -0.116189
      5          1           0       -1.465880   -0.391926    0.943649
      6          1           0       -1.684954   -0.635750   -0.788335
 ---------------------------------------------------------------------

 SCF Done:  E(RB2PLYPD3) =  -132.529016210     A.U. after   12 cycles
 E2(B2PLYPD3) =    -0.1800326485D+00 E(B2PLYPD3) =    -0.13270904885872D+03

 The electronic state is 1-A.
 Alpha  occ. eigenvalues --  -14.83938 -10.67428 -10.65878  -1.04804  -0.89191
 Alpha  occ. eigenvalues --   -0.60476  -0.53872  -0.52292  -0.44921  -0.39283
 Alpha  occ. eigenvalues --   -0.39037
 Alpha virt. eigenvalues --    0.03556   0.06898   0.08088   0.10035   0.11788
 Alpha virt. eigenvalues --    0.11962   0.15529   0.15813   0.17864   0.19964
 Alpha virt. eigenvalues --    0.20262   0.26155   0.32898   0.33951   0.34648

 Mulliken charges:
               1
     1  C   -0.085011
     2  C    0.003821
     3  N   -0.198848
     4  H    0.097263
     5  H    0.093069
     6  H    0.089706
 Sum of Mulliken charges =   0.00000

 Dipole moment (field-independent basis, Debye):
    X=             -4.0860    Y=             -0.0342    Z=              0.0775  Tot=              4.0868
 Quadrupole moment (field-independent basis, Debye-Ang):
   XX=            -20.8082   YY=            -17.7063   ZZ=            -17.8807
   XY=             -0.0380   XZ=              0.2095   YZ=             -0.0401

 Normal termination of Gaussian 09 at Wed Aug 26 20:45:56 2020.
