 Gaussian 09, Revision D.01,
 Gaussian 09:  ES64L-G09RevD.01 24-Apr-2013

 --------------------
 #p B2PLYPD3/Def2QZVP
 --------------------

 ------------
 cyanomethane
 ------------
 Symbolic Z-matrix:
 Charge =  0 Multiplicity = 1

                         Standard orientation:
 ---------------------------------------------------------------------
 Center     Atomic      Atomic             Coordinates (Angstroms)
 Number     Number       Type             X           Y           Z
 ---------------------------------------------------------------------
      1          6           0        1.174419   -0.007019   -0.027066
      2          6           0       -0.264969    0.056721    0.025143
      3          7           0       -1.424597   -0.029105   -0.015611
      4          1           0        1.522114    0.991851   -0.299342
      5          1           0        1.554122   -0.842776   -0.644762
      6          1           0        1.439250   -0.243553    1.064922
 ---------------------------------------------------------------------

 SCF Done:  E(RB2PLYPD3) =  -132.527646654     A.U. after   13 cycles
 E2(B2PLYPD3) =    -0.1817972223D+00 E(B2PLYPD3) =    -0.13270944387630D+03

 The electronic state is 1-A.
 Alpha  occ. eigenvalues --  -14.84258 -10.67827 -10.66281  -1.03729  -0.89182
 Alpha  occ. eigenvalues --   -0.58934  -0.54989  -0.52758  -0.44679  -0.38779
 Alpha  occ. eigenvalues --   -0.38298
 Alpha virt. eigenvalues --    0.03486   0.07069   0.07986   0.09977   0.11220
 Alpha virt. eigenvalues --    0.11777   0.14968   0.15405   0.16820   0.20069
 Alpha virt. eigenvalues --    0.20264   0.25812   0.32358   0.33123   0.34981

 Mulliken charges:
               1
     1  C   -0.108302
     2  C    0.003921
     3  N   -0.212413
     4  H    0.108582
     5  H    0.109123
     6  H    0.099089
 Sum of Mulliken charges =   0.00000

 Dipole moment (field-independent basis, Debye):
    X=              4.0841    Y=              0.0222    Z=              0.0437  Tot=              4.0844
 Quadrupole moment (field-independent basis, Debye-Ang):
   XX=            -21.4302   YY=            -17.5419   ZZ=            -17.8496
   XY=             -0.1944   XZ=             -0.1188   YZ=              0.0036

 Normal termination of Gaussian 09 at Wed Aug 26 18:39:58 2020.
