 Gaussian 09, Revision D.01,
 Gaussian 09:  ES64L-G09RevD.01 24-Apr-2013

 --------------------
 #p B2PLYPD3/Def2QZVP
 --------------------

 ------------
 cyanomethane
 ------------
 Symbolic Z-matrix:
 Charge =  0 Multiplicity = 1

                         Standard orientation:
 ---------------------------------------------------------------------
 Center     Atomic      Atomic             Coordinates (Angstroms)
 Number     Number       Type             X           Y           Z
 ---------------------------------------------------------------------
      1          6           0       -1.148644    0.017362    0.005450
      2          6           0        0.280348    0.031139   -0.002149
      3          7           0        1.423838   -0.011315    0.000889
      4          1           0       -1.567583   -0.353604    1.002941
      5          1           0       -1.515288   -0.861098   -0.743834
      6          1           0       -1.674215    1.002899   -0.285139
 ---------------------------------------------------------------------

 SCF Done:  E(RB2PLYPD3) =  -132.521138654     A.U. after   12 cycles
 E2(B2PLYPD3) =    -0.1809505180D+00 E(B2PLYPD3) =    -0.13270208917244D+03

 The electronic state is 1-A.
 Alpha  occ. eigenvalues --  -14.84027 -10.69100 -10.66038  -1.04696  -0.88067
 Alpha  occ. eigenvalues --   -0.59756  -0.52973  -0.51126  -0.44926  -0.39250
 Alpha  occ. eigenvalues --   -0.38659
 Alpha virt. eigenvalues --    0.03234   0.06551   0.06943   0.10101   0.11708
 Alpha virt. eigenvalues --    0.12325   0.15475   0.16017   0.17300   0.19979
 Alpha virt. eigenvalues --    0.20137   0.25804   0.31786   0.32634   0.34293

 Mulliken charges:
               1
     1  C   -0.105007
     2  C    0.006507
     3  N   -0.197941
     4  H    0.099018
     5  H    0.093316
     6  H    0.104107
 Sum of Mulliken charges =   0.00000

 Dipole moment (field-independent basis, Debye):
    X=             -4.0744    Y=             -0.0144    Z=              0.0238  Tot=              4.0745
 Quadrupole moment (field-independent basis, Debye-Ang):
   XX=            -21.0281   YY=            -17.6650   ZZ=            -18.0245
   XY=              0.0325   XZ=             -0.0640   YZ=             -0.0828

 Normal termination of Gaussian 09 at Wed Aug 26 22:50:44 2020.
