 Gaussian 09, Revision D.01,
 Gaussian 09:  ES64L-G09RevD.01 24-Apr-2013

 --------------------
 #p B2PLYPD3/Def2QZVP
 --------------------

 ------------
 cyanomethane
 ------------
 Symbolic Z-matrix:
 Charge =  0 Multiplicity = 1

                         Standard orientation:
 ---------------------------------------------------------------------
 Center     Atomic      Atomic             Coordinates (Angstroms)
 Number     Number       Type             X           Y           Z
 ---------------------------------------------------------------------
      1          6           0       -1.197757   -0.013985    0.021021
      2          6           0        0.292241    0.006189   -0.043122
      3          7           0        1.434190   -0.000892    0.019822
      4          1           0       -1.521488   -0.111388    0.980590
      5          1           0       -1.531993   -0.799362   -0.603302
      6          1           0       -1.552756    0.963771   -0.383434
 ---------------------------------------------------------------------

 SCF Done:  E(RB2PLYPD3) =  -132.530926974     A.U. after   12 cycles
 E2(B2PLYPD3) =    -0.1792861774D+00 E(B2PLYPD3) =    -0.13271021315113D+03

 The electronic state is 1-A.
 Alpha  occ. eigenvalues --  -14.83854 -10.66656 -10.65956  -1.04451  -0.89316
 Alpha  occ. eigenvalues --   -0.59202  -0.55416  -0.53465  -0.44640  -0.39605
 Alpha  occ. eigenvalues --   -0.39343
 Alpha virt. eigenvalues --    0.03834   0.08346   0.08807   0.10192   0.11233
 Alpha virt. eigenvalues --    0.11495   0.15246   0.15875   0.16665   0.19997
 Alpha virt. eigenvalues --    0.20054   0.24870   0.32510   0.34265   0.35690

 Mulliken charges:
               1
     1  C   -0.085057
     2  C   -0.006137
     3  N   -0.201014
     4  H    0.101593
     5  H    0.098742
     6  H    0.091873
 Sum of Mulliken charges =   0.00000

 Dipole moment (field-independent basis, Debye):
    X=             -4.1161    Y=             -0.0011    Z=             -0.0223  Tot=              4.1161
 Quadrupole moment (field-independent basis, Debye-Ang):
   XX=            -21.0404   YY=            -17.6762   ZZ=            -17.6755
   XY=             -0.0089   XZ=             -0.1135   YZ=              0.0381

 Normal termination of Gaussian 09 at Wed Aug 26 12:42:58 2020.
