 Gaussian 09, Revision D.01,
 Gaussian 09:  ES64L-G09RevD.01 24-Apr-2013

 --------------------
 #p B2PLYPD3/Def2QZVP
 --------------------

 ------------
 cyanomethane
 ------------
 Symbolic Z-matrix:
 Charge =  0 Multiplicity = 1

                         Standard orientation:
 ---------------------------------------------------------------------
 Center     Atomic      Atomic             Coordinates (Angstroms)
 Number     Number       Type             X           Y           Z
 ---------------------------------------------------------------------
      1          6           0       -1.189155    0.000883   -0.006781
      2          6           0        0.284523   -0.006599   -0.014114
      3          7           0        1.435507    0.001409    0.008737
      4          1           0       -1.512795    0.976800   -0.366684
      5          1           0       -1.552300   -0.137377    1.045929
      6          1           0       -1.555659   -0.814994   -0.615041
 ---------------------------------------------------------------------

 SCF Done:  E(RB2PLYPD3) =  -132.534675968     A.U. after   12 cycles
 E2(B2PLYPD3) =    -0.1802802824D+00 E(B2PLYPD3) =    -0.13271495625023D+03

 The electronic state is 1-A.
 Alpha  occ. eigenvalues --  -14.84045 -10.67565 -10.66150  -1.04164  -0.88808
 Alpha  occ. eigenvalues --   -0.58909  -0.54558  -0.53178  -0.44678  -0.39235
 Alpha  occ. eigenvalues --   -0.39055
 Alpha virt. eigenvalues --    0.03684   0.07823   0.08271   0.10215   0.11295
 Alpha virt. eigenvalues --    0.11550   0.15211   0.16114   0.16248   0.20033
 Alpha virt. eigenvalues --    0.20107   0.25022   0.32499   0.34019   0.34899

 Mulliken charges:
               1
     1  C   -0.095094
     2  C   -0.003709
     3  N   -0.204426
     4  H    0.103029
     5  H    0.097585
     6  H    0.102616
 Sum of Mulliken charges =   0.00000

 Dipole moment (field-independent basis, Debye):
    X=             -4.1189    Y=             -0.0008    Z=             -0.0074  Tot=              4.1189
 Quadrupole moment (field-independent basis, Debye-Ang):
   XX=            -21.1612   YY=            -17.6590   ZZ=            -17.7835
   XY=              0.0261   XZ=             -0.0765   YZ=              0.0155

 Normal termination of Gaussian 09 at Wed Aug 26 20:43:18 2020.
