 Gaussian 09, Revision D.01,
 Gaussian 09:  ES64L-G09RevD.01 24-Apr-2013

 --------------------
 #p B2PLYPD3/Def2QZVP
 --------------------

 ------------
 cyanomethane
 ------------
 Symbolic Z-matrix:
 Charge =  0 Multiplicity = 1

                         Standard orientation:
 ---------------------------------------------------------------------
 Center     Atomic      Atomic             Coordinates (Angstroms)
 Number     Number       Type             X           Y           Z
 ---------------------------------------------------------------------
      1          6           0        1.167086   -0.002350   -0.008695
      2          6           0       -0.264157    0.007353   -0.033286
      3          7           0       -1.430666   -0.002396    0.011871
      4          1           0        1.575867    0.988841   -0.280506
      5          1           0        1.576903   -0.805748   -0.602446
      6          1           0        1.444316   -0.196340    1.051743
 ---------------------------------------------------------------------

 SCF Done:  E(RB2PLYPD3) =  -132.532265271     A.U. after   12 cycles
 E2(B2PLYPD3) =    -0.1817510689D+00 E(B2PLYPD3) =    -0.13271401634033D+03

 The electronic state is 1-A.
 Alpha  occ. eigenvalues --  -14.84444 -10.67237 -10.66474  -1.03637  -0.89584
 Alpha  occ. eigenvalues --   -0.59912  -0.54656  -0.53348  -0.44798  -0.38720
 Alpha  occ. eigenvalues --   -0.38372
 Alpha virt. eigenvalues --    0.03681   0.07399   0.07580   0.10117   0.11253
 Alpha virt. eigenvalues --    0.11707   0.15479   0.15692   0.16662   0.20117
 Alpha virt. eigenvalues --    0.20233   0.25796   0.32695   0.33655   0.35046

 Mulliken charges:
               1
     1  C   -0.089897
     2  C    0.002375
     3  N   -0.213385
     4  H    0.100544
     5  H    0.101935
     6  H    0.098428
 Sum of Mulliken charges =   0.00000

 Dipole moment (field-independent basis, Debye):
    X=              4.1340    Y=             -0.0074    Z=              0.0191  Tot=              4.1341
 Quadrupole moment (field-independent basis, Debye-Ang):
   XX=            -21.1248   YY=            -17.6493   ZZ=            -17.8651
   XY=             -0.0171   XZ=              0.0349   YZ=              0.0299

 Normal termination of Gaussian 09 at Wed Aug 26 16:08:07 2020.
