 Gaussian 09, Revision D.01,
 Gaussian 09:  ES64L-G09RevD.01 24-Apr-2013

 --------------------
 #p B2PLYPD3/Def2QZVP
 --------------------

 ------------
 cyanomethane
 ------------
 Symbolic Z-matrix:
 Charge =  0 Multiplicity = 1

                         Standard orientation:
 ---------------------------------------------------------------------
 Center     Atomic      Atomic             Coordinates (Angstroms)
 Number     Number       Type             X           Y           Z
 ---------------------------------------------------------------------
      1          6           0       -1.191928    0.003413    0.046940
      2          6           0        0.261262    0.017001   -0.061501
      3          7           0        1.451477   -0.009958    0.018011
      4          1           0       -1.634740   -0.626791   -0.824322
      5          1           0       -1.526986    1.011821   -0.114626
      6          1           0       -1.414616   -0.437808    0.900232
 ---------------------------------------------------------------------

 SCF Done:  E(RB2PLYPD3) =  -132.516361551     A.U. after   12 cycles
 E2(B2PLYPD3) =    -0.1839430040D+00 E(B2PLYPD3) =    -0.13270030455545D+03

 The electronic state is 1-A.
 Alpha  occ. eigenvalues --  -14.85208 -10.67302 -10.66853  -1.02627  -0.89984
 Alpha  occ. eigenvalues --   -0.59766  -0.57039  -0.52389  -0.44830  -0.38359
 Alpha  occ. eigenvalues --   -0.37878
 Alpha virt. eigenvalues --    0.03677   0.06707   0.07706   0.10064   0.10824
 Alpha virt. eigenvalues --    0.11287   0.15118   0.15768   0.16179   0.20159
 Alpha virt. eigenvalues --    0.20307   0.25595   0.31503   0.33595   0.35854

 Mulliken charges:
               1
     1  C   -0.088323
     2  C    0.005082
     3  N   -0.224316
     4  H    0.087787
     5  H    0.105170
     6  H    0.114601
 Sum of Mulliken charges =   0.00000

 Dipole moment (field-independent basis, Debye):
    X=             -4.1592    Y=              0.0139    Z=             -0.0177  Tot=              4.1593
 Quadrupole moment (field-independent basis, Debye-Ang):
   XX=            -21.1763   YY=            -17.7743   ZZ=            -17.8618
   XY=              0.0586   XZ=              0.0948   YZ=             -0.1568

 Normal termination of Gaussian 09 at Wed Aug 26 23:51:02 2020.
