 Gaussian 09, Revision D.01,
 Gaussian 09:  ES64L-G09RevD.01 24-Apr-2013

 --------------------
 #p B2PLYPD3/Def2QZVP
 --------------------

 ------------
 cyanomethane
 ------------
 Symbolic Z-matrix:
 Charge =  0 Multiplicity = 1

                         Standard orientation:
 ---------------------------------------------------------------------
 Center     Atomic      Atomic             Coordinates (Angstroms)
 Number     Number       Type             X           Y           Z
 ---------------------------------------------------------------------
      1          6           0        1.172741   -0.000397   -0.006769
      2          6           0       -0.288530   -0.016673    0.009936
      3          7           0       -1.430827    0.012867   -0.009508
      4          1           0        1.639463    1.019312   -0.229664
      5          1           0        1.583914   -0.731886   -0.683407
      6          1           0        1.487150   -0.275074    0.960623
 ---------------------------------------------------------------------

 SCF Done:  E(RB2PLYPD3) =  -132.532257105     A.U. after   12 cycles
 E2(B2PLYPD3) =    -0.1796073876D+00 E(B2PLYPD3) =    -0.13271186449309D+03

 The electronic state is 1-A.
 Alpha  occ. eigenvalues --  -14.83949 -10.67127 -10.66019  -1.04638  -0.89105
 Alpha  occ. eigenvalues --   -0.59944  -0.54063  -0.53014  -0.44826  -0.39456
 Alpha  occ. eigenvalues --   -0.39335
 Alpha virt. eigenvalues --    0.03656   0.07544   0.08562   0.10197   0.11555
 Alpha virt. eigenvalues --    0.11652   0.15472   0.15859   0.17418   0.20031
 Alpha virt. eigenvalues --    0.20088   0.25349   0.32600   0.34377   0.34972

 Mulliken charges:
               1
     1  C   -0.080775
     2  C   -0.001309
     3  N   -0.199401
     4  H    0.092409
     5  H    0.094387
     6  H    0.094689
 Sum of Mulliken charges =   0.00000

 Dipole moment (field-independent basis, Debye):
    X=              4.1160    Y=             -0.0510    Z=              0.0521  Tot=              4.1166
 Quadrupole moment (field-independent basis, Debye-Ang):
   XX=            -20.8390   YY=            -17.6709   ZZ=            -17.8621
   XY=              0.0707   XZ=             -0.0521   YZ=              0.0179

 Normal termination of Gaussian 09 at Wed Aug 26 11:27:17 2020.
