 Gaussian 09, Revision D.01,
 Gaussian 09:  ES64L-G09RevD.01 24-Apr-2013

 --------------------
 #p B2PLYPD3/Def2QZVP
 --------------------

 ------------
 cyanomethane
 ------------
 Symbolic Z-matrix:
 Charge =  0 Multiplicity = 1

                         Standard orientation:
 ---------------------------------------------------------------------
 Center     Atomic      Atomic             Coordinates (Angstroms)
 Number     Number       Type             X           Y           Z
 ---------------------------------------------------------------------
      1          6           0       -1.150171   -0.005489    0.019516
      2          6           0        0.283386    0.040992   -0.008309
      3          7           0        1.419788   -0.010638    0.005821
      4          1           0       -1.583737   -0.390418    0.940929
      5          1           0       -1.449748   -0.749976   -0.811342
      6          1           0       -1.704323    1.001837   -0.237575
 ---------------------------------------------------------------------

 SCF Done:  E(RB2PLYPD3) =  -132.526501802     A.U. after   12 cycles
 E2(B2PLYPD3) =    -0.1799374345D+00 E(B2PLYPD3) =    -0.13270643923654D+03

 The electronic state is 1-A.
 Alpha  occ. eigenvalues --  -14.83822 -10.68289 -10.65842  -1.04954  -0.88486
 Alpha  occ. eigenvalues --   -0.60169  -0.53032  -0.51964  -0.44886  -0.39422
 Alpha  occ. eigenvalues --   -0.39044
 Alpha virt. eigenvalues --    0.03486   0.06901   0.07571   0.10141   0.11823
 Alpha virt. eigenvalues --    0.12173   0.15482   0.16056   0.17455   0.20024
 Alpha virt. eigenvalues --    0.20063   0.25850   0.32136   0.33108   0.34840

 Mulliken charges:
               1
     1  C   -0.096418
     2  C    0.004166
     3  N   -0.195682
     4  H    0.101538
     5  H    0.094363
     6  H    0.092034
 Sum of Mulliken charges =   0.00000

 Dipole moment (field-independent basis, Debye):
    X=             -4.0730    Y=             -0.0257    Z=             -0.0094  Tot=              4.0731
 Quadrupole moment (field-independent basis, Debye-Ang):
   XX=            -20.9177   YY=            -17.7860   ZZ=            -17.8316
   XY=             -0.0096   XZ=             -0.0895   YZ=             -0.0361

 Normal termination of Gaussian 09 at Wed Aug 26 22:59:36 2020.
