 Gaussian 09, Revision D.01,
 Gaussian 09:  ES64L-G09RevD.01 24-Apr-2013

 --------------------
 #p B2PLYPD3/Def2QZVP
 --------------------

 ------------
 cyanomethane
 ------------
 Symbolic Z-matrix:
 Charge =  0 Multiplicity = 1

                         Standard orientation:
 ---------------------------------------------------------------------
 Center     Atomic      Atomic             Coordinates (Angstroms)
 Number     Number       Type             X           Y           Z
 ---------------------------------------------------------------------
      1          6           0       -1.176611    0.004582    0.001834
      2          6           0        0.281576    0.022029   -0.003225
      3          7           0        1.428573   -0.009770    0.000521
      4          1           0       -1.522499   -0.301313    0.986966
      5          1           0       -1.531135   -0.774330   -0.719118
      6          1           0       -1.576167    0.984367   -0.263152
 ---------------------------------------------------------------------

 SCF Done:  E(RB2PLYPD3) =  -132.535299171     A.U. after   11 cycles
 E2(B2PLYPD3) =    -0.1799745180D+00 E(B2PLYPD3) =    -0.13271527368890D+03

 The electronic state is 1-A.
 Alpha  occ. eigenvalues --  -14.83948 -10.67411 -10.66002  -1.04372  -0.88991
 Alpha  occ. eigenvalues --   -0.59334  -0.54319  -0.53240  -0.44720  -0.39281
 Alpha  occ. eigenvalues --   -0.39082
 Alpha virt. eigenvalues --    0.03704   0.07835   0.08111   0.10192   0.11422
 Alpha virt. eigenvalues --    0.11708   0.15378   0.16153   0.16443   0.20007
 Alpha virt. eigenvalues --    0.20110   0.25336   0.32713   0.34057   0.34872

 Mulliken charges:
               1
     1  C   -0.091811
     2  C   -0.002871
     3  N   -0.202506
     4  H    0.099077
     5  H    0.097147
     6  H    0.100965
 Sum of Mulliken charges =   0.00000

 Dipole moment (field-independent basis, Debye):
    X=             -4.1072    Y=             -0.0012    Z=              0.0108  Tot=              4.1072
 Quadrupole moment (field-independent basis, Debye-Ang):
   XX=            -21.0957   YY=            -17.6371   ZZ=            -17.7955
   XY=              0.0547   XZ=             -0.0124   YZ=             -0.0318

 Normal termination of Gaussian 09 at Wed Aug 26 12:29:06 2020.
