 Gaussian 09, Revision D.01,
 Gaussian 09:  ES64L-G09RevD.01 24-Apr-2013

 --------------------
 #p B2PLYPD3/Def2QZVP
 --------------------

 ------------
 cyanomethane
 ------------
 Symbolic Z-matrix:
 Charge =  0 Multiplicity = 1

                         Standard orientation:
 ---------------------------------------------------------------------
 Center     Atomic      Atomic             Coordinates (Angstroms)
 Number     Number       Type             X           Y           Z
 ---------------------------------------------------------------------
      1          6           0        1.195636    0.013205    0.007590
      2          6           0       -0.277506   -0.014811   -0.033229
      3          7           0       -1.440931    0.002624    0.014540
      4          1           0        1.474253    1.023926    0.014280
      5          1           0        1.576508   -0.516943   -0.844822
      6          1           0        1.526976   -0.515715    0.882596
 ---------------------------------------------------------------------

 SCF Done:  E(RB2PLYPD3) =  -132.532799417     A.U. after   11 cycles
 E2(B2PLYPD3) =    -0.1810583135D+00 E(B2PLYPD3) =    -0.13271385773061D+03

 The electronic state is 1-A.
 Alpha  occ. eigenvalues --  -14.84388 -10.66654 -10.66488  -1.03629  -0.89626
 Alpha  occ. eigenvalues --   -0.59186  -0.55574  -0.53928  -0.44688  -0.38956
 Alpha  occ. eigenvalues --   -0.38800
 Alpha virt. eigenvalues --    0.03821   0.08013   0.08355   0.10206   0.11067
 Alpha virt. eigenvalues --    0.11299   0.15188   0.15935   0.16213   0.20101
 Alpha virt. eigenvalues --    0.20167   0.25078   0.32557   0.34586   0.35321

 Mulliken charges:
               1
     1  C   -0.084517
     2  C   -0.002732
     3  N   -0.212192
     4  H    0.105007
     5  H    0.095962
     6  H    0.098472
 Sum of Mulliken charges =   0.00000

 Dipole moment (field-independent basis, Debye):
    X=              4.1475    Y=             -0.0161    Z=             -0.0163  Tot=              4.1475
 Quadrupole moment (field-independent basis, Debye-Ang):
   XX=            -21.1067   YY=            -17.6170   ZZ=            -17.8266
   XY=             -0.0915   XZ=              0.0467   YZ=             -0.0068

 Normal termination of Gaussian 09 at Wed Aug 26 14:50:17 2020.
