 Gaussian 09, Revision D.01,
 Gaussian 09:  ES64L-G09RevD.01 24-Apr-2013

 --------------------
 #p B2PLYPD3/Def2QZVP
 --------------------

 ------------
 cyanomethane
 ------------
 Symbolic Z-matrix:
 Charge =  0 Multiplicity = 1

                         Standard orientation:
 ---------------------------------------------------------------------
 Center     Atomic      Atomic             Coordinates (Angstroms)
 Number     Number       Type             X           Y           Z
 ---------------------------------------------------------------------
      1          6           0       -1.186245    0.010384    0.009600
      2          6           0        0.281589   -0.001413    0.001691
      3          7           0        1.437549   -0.002776   -0.004733
      4          1           0       -1.511203   -0.164938    0.995936
      5          1           0       -1.594951   -0.823767   -0.645108
      6          1           0       -1.528751    0.954305   -0.385439
 ---------------------------------------------------------------------

 SCF Done:  E(RB2PLYPD3) =  -132.533145644     A.U. after   12 cycles
 E2(B2PLYPD3) =    -0.1805963758D+00 E(B2PLYPD3) =    -0.13271374201974D+03

 The electronic state is 1-A.
 Alpha  occ. eigenvalues --  -14.84209 -10.67256 -10.66302  -1.04012  -0.89132
 Alpha  occ. eigenvalues --   -0.59304  -0.55106  -0.52927  -0.44738  -0.39167
 Alpha  occ. eigenvalues --   -0.38925
 Alpha virt. eigenvalues --    0.03710   0.07604   0.08372   0.10204   0.11221
 Alpha virt. eigenvalues --    0.11538   0.15277   0.16135   0.16341   0.20057
 Alpha virt. eigenvalues --    0.20130   0.25124   0.32392   0.34057   0.35207

 Mulliken charges:
               1
     1  C   -0.088506
     2  C   -0.002423
     3  N   -0.206907
     4  H    0.102623
     5  H    0.093213
     6  H    0.101999
 Sum of Mulliken charges =   0.00000

 Dipole moment (field-independent basis, Debye):
    X=             -4.1297    Y=              0.0039    Z=              0.0160  Tot=              4.1297
 Quadrupole moment (field-independent basis, Debye-Ang):
   XX=            -21.0787   YY=            -17.7328   ZZ=            -17.7538
   XY=              0.0640   XZ=              0.0578   YZ=             -0.0704

 Normal termination of Gaussian 09 at Wed Aug 26 23:58:40 2020.
