 Gaussian 09, Revision D.01,
 Gaussian 09:  ES64L-G09RevD.01 24-Apr-2013

 --------------------
 #p B2PLYPD3/Def2QZVP
 --------------------

 ------------
 cyanomethane
 ------------
 Symbolic Z-matrix:
 Charge =  0 Multiplicity = 1

                         Standard orientation:
 ---------------------------------------------------------------------
 Center     Atomic      Atomic             Coordinates (Angstroms)
 Number     Number       Type             X           Y           Z
 ---------------------------------------------------------------------
      1          6           0        1.175352   -0.007471    0.005770
      2          6           0       -0.284848    0.009751   -0.016176
      3          7           0       -1.435746   -0.006117    0.008629
      4          1           0        1.582047   -0.113462    1.004829
      5          1           0        1.542235    0.942736   -0.394052
      6          1           0        1.582914   -0.800133   -0.608739
 ---------------------------------------------------------------------

 SCF Done:  E(RB2PLYPD3) =  -132.535495869     A.U. after   11 cycles
 E2(B2PLYPD3) =    -0.1801997901D+00 E(B2PLYPD3) =    -0.13271569565945D+03

 The electronic state is 1-A.
 Alpha  occ. eigenvalues --  -14.84187 -10.67040 -10.66263  -1.04291  -0.89140
 Alpha  occ. eigenvalues --   -0.60133  -0.53825  -0.53532  -0.44857  -0.39258
 Alpha  occ. eigenvalues --   -0.39148
 Alpha virt. eigenvalues --    0.03765   0.07831   0.08022   0.10171   0.11466
 Alpha virt. eigenvalues --    0.11535   0.15450   0.16187   0.16938   0.20055
 Alpha virt. eigenvalues --    0.20088   0.25341   0.32774   0.34483   0.34993

 Mulliken charges:
               1
     1  C   -0.076499
     2  C   -0.000293
     3  N   -0.203861
     4  H    0.094437
     5  H    0.092099
     6  H    0.094117
 Sum of Mulliken charges =   0.00000

 Dipole moment (field-independent basis, Debye):
    X=              4.1312    Y=              0.0154    Z=             -0.0143  Tot=              4.1312
 Quadrupole moment (field-independent basis, Debye-Ang):
   XX=            -20.8500   YY=            -17.7908   ZZ=            -17.7808
   XY=             -0.0485   XZ=              0.0563   YZ=              0.0125

 Normal termination of Gaussian 09 at Wed Aug 26 10:16:17 2020.
