 Gaussian 09, Revision D.01,
 Gaussian 09:  ES64L-G09RevD.01 24-Apr-2013

 --------------------
 #p B2PLYPD3/Def2QZVP
 --------------------

 ------------
 cyanomethane
 ------------
 Symbolic Z-matrix:
 Charge =  0 Multiplicity = 1

                         Standard orientation:
 ---------------------------------------------------------------------
 Center     Atomic      Atomic             Coordinates (Angstroms)
 Number     Number       Type             X           Y           Z
 ---------------------------------------------------------------------
      1          6           0        1.164068    0.007815   -0.004857
      2          6           0       -0.272313   -0.009700   -0.010430
      3          7           0       -1.433751    0.005688    0.007319
      4          1           0        1.536618   -0.536602   -0.872496
      5          1           0        1.567345   -0.521682    0.908194
      6          1           0        1.581764    1.029778    0.004792
 ---------------------------------------------------------------------

 SCF Done:  E(RB2PLYPD3) =  -132.533097182     A.U. after   11 cycles
 E2(B2PLYPD3) =    -0.1813750261D+00 E(B2PLYPD3) =    -0.13271447220812D+03

 The electronic state is 1-A.
 Alpha  occ. eigenvalues --  -14.84428 -10.67473 -10.66443  -1.03914  -0.89192
 Alpha  occ. eigenvalues --   -0.60165  -0.54040  -0.52930  -0.44895  -0.38859
 Alpha  occ. eigenvalues --   -0.38682
 Alpha virt. eigenvalues --    0.03652   0.07163   0.07623   0.10103   0.11441
 Alpha virt. eigenvalues --    0.11656   0.15520   0.16110   0.16708   0.20098
 Alpha virt. eigenvalues --    0.20166   0.25724   0.32696   0.33958   0.34688

 Mulliken charges:
               1
     1  C   -0.083770
     2  C    0.002072
     3  N   -0.208877
     4  H    0.098249
     5  H    0.093707
     6  H    0.098619
 Sum of Mulliken charges =   0.00000

 Dipole moment (field-independent basis, Debye):
    X=              4.1293    Y=             -0.0166    Z=             -0.0112  Tot=              4.1293
 Quadrupole moment (field-independent basis, Debye-Ang):
   XX=            -20.9716   YY=            -17.7663   ZZ=            -17.8441
   XY=              0.0327   XZ=              0.0646   YZ=              0.0363

 Normal termination of Gaussian 09 at Thu Aug 27 00:09:11 2020.
