 Gaussian 09, Revision D.01,
 Gaussian 09:  ES64L-G09RevD.01 24-Apr-2013

 --------------------
 #p B2PLYPD3/Def2QZVP
 --------------------

 ------------
 cyanomethane
 ------------
 Symbolic Z-matrix:
 Charge =  0 Multiplicity = 1

                         Standard orientation:
 ---------------------------------------------------------------------
 Center     Atomic      Atomic             Coordinates (Angstroms)
 Number     Number       Type             X           Y           Z
 ---------------------------------------------------------------------
      1          6           0       -1.203419   -0.017359    0.002724
      2          6           0        0.308328    0.068343   -0.000387
      3          7           0        1.434189   -0.017511   -0.001464
      4          1           0       -1.460581   -0.440310    0.927202
      5          1           0       -1.430253   -0.754069   -0.764698
      6          1           0       -1.777940    1.011051   -0.166278
 ---------------------------------------------------------------------

 SCF Done:  E(RB2PLYPD3) =  -132.524755581     A.U. after   12 cycles
 E2(B2PLYPD3) =    -0.1787825967D+00 E(B2PLYPD3) =    -0.13270353817763D+03

 The electronic state is 1-A.
 Alpha  occ. eigenvalues --  -14.83470 -10.68179 -10.65691  -1.05040  -0.87998
 Alpha  occ. eigenvalues --   -0.58015  -0.53928  -0.52598  -0.44564  -0.39870
 Alpha  occ. eigenvalues --   -0.39799
 Alpha virt. eigenvalues --    0.03539   0.07594   0.09025   0.10346   0.11528
 Alpha virt. eigenvalues --    0.11673   0.14908   0.15814   0.16988   0.19854
 Alpha virt. eigenvalues --    0.20030   0.24472   0.31209   0.34521   0.34743

 Mulliken charges:
               1
     1  C   -0.105678
     2  C   -0.008183
     3  N   -0.191137
     4  H    0.104524
     5  H    0.103655
     6  H    0.096819
 Sum of Mulliken charges =   0.00000

 Dipole moment (field-independent basis, Debye):
    X=             -4.0985    Y=             -0.0353    Z=              0.0257  Tot=              4.0987
 Quadrupole moment (field-independent basis, Debye-Ang):
   XX=            -21.0763   YY=            -17.5657   ZZ=            -17.8712
   XY=             -0.0405   XZ=             -0.0246   YZ=             -0.0002

 Normal termination of Gaussian 09 at Wed Aug 26 20:45:24 2020.
