 Gaussian 09, Revision D.01,
 Gaussian 09:  ES64L-G09RevD.01 24-Apr-2013

 --------------------
 #p B2PLYPD3/Def2QZVP
 --------------------

 ------------
 cyanomethane
 ------------
 Symbolic Z-matrix:
 Charge =  0 Multiplicity = 1

                         Standard orientation:
 ---------------------------------------------------------------------
 Center     Atomic      Atomic             Coordinates (Angstroms)
 Number     Number       Type             X           Y           Z
 ---------------------------------------------------------------------
      1          6           0        1.208981   -0.009054    0.011900
      2          6           0       -0.301041    0.056142   -0.034058
      3          7           0       -1.430042   -0.016008    0.013625
      4          1           0        1.438030   -0.763678   -0.716011
      5          1           0        1.425400   -0.354401    0.957949
      6          1           0        1.699222    0.947609   -0.204365
 ---------------------------------------------------------------------

 SCF Done:  E(RB2PLYPD3) =  -132.530213655     A.U. after   12 cycles
 E2(B2PLYPD3) =    -0.1784345713D+00 E(B2PLYPD3) =    -0.13270864822643D+03

 The electronic state is 1-A.
 Alpha  occ. eigenvalues --  -14.83433 -10.66958 -10.65606  -1.04828  -0.88981
 Alpha  occ. eigenvalues --   -0.58117  -0.54941  -0.54105  -0.44459  -0.39840
 Alpha  occ. eigenvalues --   -0.39694
 Alpha virt. eigenvalues --    0.03814   0.08570   0.09209   0.10369   0.11335
 Alpha virt. eigenvalues --    0.11549   0.14943   0.15729   0.16638   0.19898
 Alpha virt. eigenvalues --    0.20055   0.24521   0.32266   0.34740   0.35622

 Mulliken charges:
               1
     1  C   -0.098210
     2  C   -0.012002
     3  N   -0.194869
     4  H    0.101215
     5  H    0.105278
     6  H    0.098588
 Sum of Mulliken charges =   0.00000

 Dipole moment (field-independent basis, Debye):
    X=              4.1121    Y=             -0.0044    Z=             -0.0082  Tot=              4.1121
 Quadrupole moment (field-independent basis, Debye-Ang):
   XX=            -21.1066   YY=            -17.5786   ZZ=            -17.6953
   XY=              0.0631   XZ=              0.0549   YZ=             -0.0030

 Normal termination of Gaussian 09 at Wed Aug 26 19:01:37 2020.
