 Gaussian 09, Revision D.01,
 Gaussian 09:  ES64L-G09RevD.01 24-Apr-2013

 --------------------
 #p B2PLYPD3/Def2QZVP
 --------------------

 ------------
 cyanomethane
 ------------
 Symbolic Z-matrix:
 Charge =  0 Multiplicity = 1

                         Standard orientation:
 ---------------------------------------------------------------------
 Center     Atomic      Atomic             Coordinates (Angstroms)
 Number     Number       Type             X           Y           Z
 ---------------------------------------------------------------------
      1          6           0       -1.154514    0.027942    0.009131
      2          6           0        0.277432    0.025003   -0.034576
      3          7           0        1.418115   -0.029268    0.014304
      4          1           0       -1.388689    0.995635   -0.073051
      5          1           0       -1.585812   -0.460990    0.861526
      6          1           0       -1.689812   -0.647443   -0.735931
 ---------------------------------------------------------------------

 SCF Done:  E(RB2PLYPD3) =  -132.519994545     A.U. after   12 cycles
 E2(B2PLYPD3) =    -0.1797140573D+00 E(B2PLYPD3) =    -0.13269970860232D+03

 The electronic state is 1-A.
 Alpha  occ. eigenvalues --  -14.83892 -10.66168 -10.65839  -1.04709  -0.90265
 Alpha  occ. eigenvalues --   -0.61200  -0.56893  -0.51126  -0.44840  -0.39571
 Alpha  occ. eigenvalues --   -0.38796
 Alpha virt. eigenvalues --    0.03708   0.07066   0.08889   0.10181   0.11155
 Alpha virt. eigenvalues --    0.12273   0.15366   0.16717   0.17045   0.19802
 Alpha virt. eigenvalues --    0.20317   0.25926   0.32656   0.34328   0.35919

 Mulliken charges:
               1
     1  C   -0.069343
     2  C    0.000411
     3  N   -0.201278
     4  H    0.103301
     5  H    0.086406
     6  H    0.080503
 Sum of Mulliken charges =   0.00000

 Dipole moment (field-independent basis, Debye):
    X=             -4.1161    Y=             -0.0091    Z=              0.0156  Tot=              4.1162
 Quadrupole moment (field-independent basis, Debye-Ang):
   XX=            -20.7037   YY=            -17.3743   ZZ=            -18.1392
   XY=              0.5288   XZ=             -0.1275   YZ=             -0.0712

 Normal termination of Gaussian 09 at Wed Aug 26 19:42:08 2020.
