 Gaussian 09, Revision D.01,
 Gaussian 09:  ES64L-G09RevD.01 24-Apr-2013

 --------------------
 #p B2PLYPD3/Def2QZVP
 --------------------

 ------------
 cyanomethane
 ------------
 Symbolic Z-matrix:
 Charge =  0 Multiplicity = 1

                         Standard orientation:
 ---------------------------------------------------------------------
 Center     Atomic      Atomic             Coordinates (Angstroms)
 Number     Number       Type             X           Y           Z
 ---------------------------------------------------------------------
      1          6           0        1.184232   -0.016923   -0.003099
      2          6           0       -0.293880    0.054824    0.022838
      3          7           0       -1.447522   -0.027131   -0.018100
      4          1           0        1.615670    1.072387   -0.200898
      5          1           0        1.663404   -0.744186   -0.741528
      6          1           0        1.511464   -0.365692    0.950689
 ---------------------------------------------------------------------

 SCF Done:  E(RB2PLYPD3) =  -132.523898917     A.U. after   12 cycles
 E2(B2PLYPD3) =    -0.1815896412D+00 E(B2PLYPD3) =    -0.13270548855861D+03

 The electronic state is 1-A.
 Alpha  occ. eigenvalues --  -14.84524 -10.68580 -10.66669  -1.04112  -0.87901
 Alpha  occ. eigenvalues --   -0.59629  -0.53066  -0.51689  -0.44966  -0.39125
 Alpha  occ. eigenvalues --   -0.39011
 Alpha virt. eigenvalues --    0.03311   0.06573   0.07885   0.10026   0.11328
 Alpha virt. eigenvalues --    0.11592   0.15257   0.15849   0.17303   0.19976
 Alpha virt. eigenvalues --    0.20208   0.25235   0.31485   0.33570   0.34294

 Mulliken charges:
               1
     1  C   -0.094111
     2  C    0.006043
     3  N   -0.204015
     4  H    0.093353
     5  H    0.097204
     6  H    0.101526
 Sum of Mulliken charges =   0.00000

 Dipole moment (field-independent basis, Debye):
    X=              4.1078    Y=             -0.0082    Z=              0.0661  Tot=              4.1084
 Quadrupole moment (field-independent basis, Debye-Ang):
   XX=            -20.9386   YY=            -17.7198   ZZ=            -18.0626
   XY=             -0.2592   XZ=             -0.1176   YZ=             -0.0410

 Normal termination of Gaussian 09 at Wed Aug 26 20:22:26 2020.
