 Gaussian 09, Revision D.01,
 Gaussian 09:  ES64L-G09RevD.01 24-Apr-2013

 --------------------
 #p B2PLYPD3/Def2QZVP
 --------------------

 ------------
 cyanomethane
 ------------
 Symbolic Z-matrix:
 Charge =  0 Multiplicity = 1

                         Standard orientation:
 ---------------------------------------------------------------------
 Center     Atomic      Atomic             Coordinates (Angstroms)
 Number     Number       Type             X           Y           Z
 ---------------------------------------------------------------------
      1          6           0        1.177009   -0.003943    0.003574
      2          6           0       -0.272026    0.044631    0.019907
      3          7           0       -1.418725   -0.025721   -0.020554
      4          1           0        1.500462    0.988983   -0.259445
      5          1           0        1.624118   -0.763707   -0.682155
      6          1           0        1.376594   -0.289361    0.944589
 ---------------------------------------------------------------------

 SCF Done:  E(RB2PLYPD3) =  -132.525419368     A.U. after   12 cycles
 E2(B2PLYPD3) =    -0.1799628346D+00 E(B2PLYPD3) =    -0.13270538220306D+03

 The electronic state is 1-A.
 Alpha  occ. eigenvalues --  -14.83885 -10.66285 -10.65874  -1.04293  -0.90268
 Alpha  occ. eigenvalues --   -0.59177  -0.56470  -0.53347  -0.44628  -0.39178
 Alpha  occ. eigenvalues --   -0.38962
 Alpha virt. eigenvalues --    0.03714   0.07604   0.09214   0.10132   0.11357
 Alpha virt. eigenvalues --    0.11605   0.15186   0.15522   0.16987   0.20072
 Alpha virt. eigenvalues --    0.20181   0.25609   0.32883   0.34335   0.35445

 Mulliken charges:
               1
     1  C   -0.095415
     2  C   -0.003441
     3  N   -0.206086
     4  H    0.102747
     5  H    0.094827
     6  H    0.107368
 Sum of Mulliken charges =   0.00000

 Dipole moment (field-independent basis, Debye):
    X=              4.0869    Y=              0.0217    Z=              0.0574  Tot=              4.0874
 Quadrupole moment (field-independent basis, Debye-Ang):
   XX=            -21.1688   YY=            -17.5154   ZZ=            -17.7423
   XY=             -0.2303   XZ=             -0.2232   YZ=             -0.0912

 Normal termination of Gaussian 09 at Wed Aug 26 21:34:01 2020.
