 Gaussian 09, Revision D.01,
 Gaussian 09:  ES64L-G09RevD.01 24-Apr-2013

 --------------------
 #p B2PLYPD3/Def2QZVP
 --------------------

 ------------
 cyanomethane
 ------------
 Symbolic Z-matrix:
 Charge =  0 Multiplicity = 1

                         Standard orientation:
 ---------------------------------------------------------------------
 Center     Atomic      Atomic             Coordinates (Angstroms)
 Number     Number       Type             X           Y           Z
 ---------------------------------------------------------------------
      1          6           0       -1.179765    0.012263    0.006913
      2          6           0        0.299248   -0.008392   -0.062840
      3          7           0        1.437505    0.006601    0.034406
      4          1           0       -1.612768   -0.109434    0.961178
      5          1           0       -1.538043   -0.837875   -0.501568
      6          1           0       -1.628622    0.877876   -0.364890
 ---------------------------------------------------------------------

 SCF Done:  E(RB2PLYPD3) =  -132.528942760     A.U. after   12 cycles
 E2(B2PLYPD3) =    -0.1792900245D+00 E(B2PLYPD3) =    -0.13270823278463D+03

 The electronic state is 1-A.
 Alpha  occ. eigenvalues --  -14.84116 -10.66231 -10.66015  -1.04728  -0.89578
 Alpha  occ. eigenvalues --   -0.61015  -0.54838  -0.52778  -0.44966  -0.39803
 Alpha  occ. eigenvalues --   -0.39490
 Alpha virt. eigenvalues --    0.03797   0.07974   0.08769   0.10115   0.11209
 Alpha virt. eigenvalues --    0.11729   0.15539   0.16329   0.17641   0.19900
 Alpha virt. eigenvalues --    0.20185   0.25240   0.32997   0.34882   0.35780

 Mulliken charges:
               1
     1  C   -0.054874
     2  C    0.004415
     3  N   -0.198748
     4  H    0.079426
     5  H    0.083039
     6  H    0.086743
 Sum of Mulliken charges =   0.00000

 Dipole moment (field-independent basis, Debye):
    X=             -4.1306    Y=             -0.0352    Z=             -0.0293  Tot=              4.1309
 Quadrupole moment (field-independent basis, Debye-Ang):
   XX=            -20.4851   YY=            -17.6580   ZZ=            -17.9670
   XY=             -0.0350   XZ=             -0.2904   YZ=             -0.0173

 Normal termination of Gaussian 09 at Wed Aug 26 22:52:46 2020.
