 Gaussian 09, Revision D.01,
 Gaussian 09:  ES64L-G09RevD.01 24-Apr-2013

 --------------------
 #p B2PLYPD3/Def2QZVP
 --------------------

 ------------
 cyanomethane
 ------------
 Symbolic Z-matrix:
 Charge =  0 Multiplicity = 1

                         Standard orientation:
 ---------------------------------------------------------------------
 Center     Atomic      Atomic             Coordinates (Angstroms)
 Number     Number       Type             X           Y           Z
 ---------------------------------------------------------------------
      1          6           0       -1.186780   -0.007362   -0.006216
      2          6           0        0.278938    0.000402    0.023828
      3          7           0        1.437067    0.001310   -0.014014
      4          1           0       -1.505820   -0.272171    0.965630
      5          1           0       -1.551699   -0.700379   -0.727530
      6          1           0       -1.554899    1.005140   -0.245671
 ---------------------------------------------------------------------

 SCF Done:  E(RB2PLYPD3) =  -132.534009881     A.U. after   12 cycles
 E2(B2PLYPD3) =    -0.1806555563D+00 E(B2PLYPD3) =    -0.13271466543748D+03

 The electronic state is 1-A.
 Alpha  occ. eigenvalues --  -14.84268 -10.66803 -10.66347  -1.03901  -0.89485
 Alpha  occ. eigenvalues --   -0.59490  -0.54874  -0.53862  -0.44737  -0.39054
 Alpha  occ. eigenvalues --   -0.38940
 Alpha virt. eigenvalues --    0.03788   0.07839   0.08393   0.10173   0.11251
 Alpha virt. eigenvalues --    0.11391   0.15347   0.15821   0.16598   0.20092
 Alpha virt. eigenvalues --    0.20138   0.25207   0.32671   0.34491   0.35135

 Mulliken charges:
               1
     1  C   -0.084064
     2  C   -0.002187
     3  N   -0.208829
     4  H    0.099037
     5  H    0.099949
     6  H    0.096094
 Sum of Mulliken charges =   0.00000

 Dipole moment (field-independent basis, Debye):
    X=             -4.1359    Y=             -0.0061    Z=              0.0284  Tot=              4.1360
 Quadrupole moment (field-independent basis, Debye-Ang):
   XX=            -21.0497   YY=            -17.7269   ZZ=            -17.7306
   XY=             -0.0130   XZ=              0.0926   YZ=              0.0166

 Normal termination of Gaussian 09 at Thu Aug 27 00:05:28 2020.
