 Gaussian 09, Revision D.01,
 Gaussian 09:  ES64L-G09RevD.01 24-Apr-2013

 --------------------
 #p B2PLYPD3/Def2QZVP
 --------------------

 ------------
 cyanomethane
 ------------
 Symbolic Z-matrix:
 Charge =  0 Multiplicity = 1

                         Standard orientation:
 ---------------------------------------------------------------------
 Center     Atomic      Atomic             Coordinates (Angstroms)
 Number     Number       Type             X           Y           Z
 ---------------------------------------------------------------------
      1          6           0       -1.165935    0.011371   -0.001723
      2          6           0        0.291709   -0.004113   -0.065279
      3          7           0        1.431933   -0.003213    0.038101
      4          1           0       -1.543809    1.080086    0.115156
      5          1           0       -1.658677   -0.618736    0.845698
      6          1           0       -1.575686   -0.482404   -0.825551
 ---------------------------------------------------------------------

 SCF Done:  E(RB2PLYPD3) =  -132.525174278     A.U. after   12 cycles
 E2(B2PLYPD3) =    -0.1803561172D+00 E(B2PLYPD3) =    -0.13270553039559D+03

 The electronic state is 1-A.
 Alpha  occ. eigenvalues --  -14.84153 -10.67802 -10.66181  -1.04660  -0.88553
 Alpha  occ. eigenvalues --   -0.60305  -0.54245  -0.51129  -0.44967  -0.39537
 Alpha  occ. eigenvalues --   -0.39040
 Alpha virt. eigenvalues --    0.03291   0.06795   0.08379   0.10098   0.11332
 Alpha virt. eigenvalues --    0.11950   0.15441   0.16166   0.17426   0.19868
 Alpha virt. eigenvalues --    0.20183   0.25631   0.32605   0.33368   0.34641

 Mulliken charges:
               1
     1  C   -0.082785
     2  C    0.004046
     3  N   -0.198377
     4  H    0.097861
     5  H    0.084651
     6  H    0.094604
 Sum of Mulliken charges =   0.00000

 Dipole moment (field-independent basis, Debye):
    X=             -4.0940    Y=             -0.0382    Z=             -0.0815  Tot=              4.0950
 Quadrupole moment (field-independent basis, Debye-Ang):
   XX=            -20.7742   YY=            -17.5806   ZZ=            -18.1146
   XY=              0.2058   XZ=             -0.2333   YZ=              0.1039

 Normal termination of Gaussian 09 at Wed Aug 26 23:53:44 2020.
