 Gaussian 09, Revision D.01,
 Gaussian 09:  ES64L-G09RevD.01 24-Apr-2013

 --------------------
 #p B2PLYPD3/Def2QZVP
 --------------------

 ------------
 cyanomethane
 ------------
 Symbolic Z-matrix:
 Charge =  0 Multiplicity = 1

                         Standard orientation:
 ---------------------------------------------------------------------
 Center     Atomic      Atomic             Coordinates (Angstroms)
 Number     Number       Type             X           Y           Z
 ---------------------------------------------------------------------
      1          6           0        1.171733   -0.019492   -0.035159
      2          6           0       -0.270718    0.041250   -0.027846
      3          7           0       -1.423122   -0.024338    0.029915
      4          1           0        1.695350   -0.441829    0.937530
      5          1           0        1.443744    1.045502   -0.007113
      6          1           0        1.416668   -0.563856   -0.761794
 ---------------------------------------------------------------------

 SCF Done:  E(RB2PLYPD3) =  -132.505566473     A.U. after   12 cycles
 E2(B2PLYPD3) =    -0.1808480273D+00 E(B2PLYPD3) =    -0.13268641450074D+03

 The electronic state is 1-A.
 Alpha  occ. eigenvalues --  -14.84171 -10.66458 -10.66133  -1.04148  -0.90449
 Alpha  occ. eigenvalues --   -0.60450  -0.57396  -0.51269  -0.44761  -0.39294
 Alpha  occ. eigenvalues --   -0.38437
 Alpha virt. eigenvalues --    0.03377   0.06855   0.09183   0.10058   0.11057
 Alpha virt. eigenvalues --    0.11847   0.15289   0.15649   0.17138   0.20015
 Alpha virt. eigenvalues --    0.20259   0.25698   0.32037   0.33115   0.35910

 Mulliken charges:
               1
     1  C   -0.101069
     2  C    0.001544
     3  N   -0.208290
     4  H    0.085779
     5  H    0.102637
     6  H    0.119398
 Sum of Mulliken charges =   0.00000

 Dipole moment (field-independent basis, Debye):
    X=              4.0840    Y=              0.0585    Z=             -0.0337  Tot=              4.0846
 Quadrupole moment (field-independent basis, Debye-Ang):
   XX=            -21.0822   YY=            -17.5895   ZZ=            -17.8211
   XY=             -0.1771   XZ=              0.3920   YZ=              0.2271

 Normal termination of Gaussian 09 at Wed Aug 26 19:54:25 2020.
