 Gaussian 09, Revision D.01,
 Gaussian 09:  ES64L-G09RevD.01 24-Apr-2013

 --------------------
 #p B2PLYPD3/Def2QZVP
 --------------------

 ------------
 cyanomethane
 ------------
 Symbolic Z-matrix:
 Charge =  0 Multiplicity = 1

                         Standard orientation:
 ---------------------------------------------------------------------
 Center     Atomic      Atomic             Coordinates (Angstroms)
 Number     Number       Type             X           Y           Z
 ---------------------------------------------------------------------
      1          6           0        1.176515   -0.008696    0.004791
      2          6           0       -0.282858   -0.022972   -0.000741
      3          7           0       -1.437226    0.015690    0.000482
      4          1           0        1.599326    0.997809   -0.250151
      5          1           0        1.534501   -0.671348   -0.716336
      6          1           0        1.564815   -0.246282    0.938813
 ---------------------------------------------------------------------

 SCF Done:  E(RB2PLYPD3) =  -132.531834847     A.U. after   11 cycles
 E2(B2PLYPD3) =    -0.1803060853D+00 E(B2PLYPD3) =    -0.13271214093266D+03

 The electronic state is 1-A.
 Alpha  occ. eigenvalues --  -14.84300 -10.66437 -10.66355  -1.04155  -0.89681
 Alpha  occ. eigenvalues --   -0.60472  -0.55253  -0.52985  -0.44881  -0.39291
 Alpha  occ. eigenvalues --   -0.39027
 Alpha virt. eigenvalues --    0.03766   0.07680   0.08499   0.10183   0.11228
 Alpha virt. eigenvalues --    0.11589   0.15495   0.16368   0.16790   0.20029
 Alpha virt. eigenvalues --    0.20149   0.25337   0.32773   0.34346   0.35636

 Mulliken charges:
               1
     1  C   -0.068023
     2  C    0.000291
     3  N   -0.206116
     4  H    0.086374
     5  H    0.094010
     6  H    0.093463
 Sum of Mulliken charges =   0.00000

 Dipole moment (field-independent basis, Debye):
    X=              4.1429    Y=             -0.0306    Z=              0.0017  Tot=              4.1430
 Quadrupole moment (field-independent basis, Debye-Ang):
   XX=            -20.7690   YY=            -17.8152   ZZ=            -17.7488
   XY=              0.1219   XZ=              0.0168   YZ=              0.0375

 Normal termination of Gaussian 09 at Wed Aug 26 21:21:12 2020.
