 Gaussian 09, Revision D.01,
 Gaussian 09:  ES64L-G09RevD.01 24-Apr-2013

 --------------------
 #p B2PLYPD3/Def2QZVP
 --------------------

 ------------
 cyanomethane
 ------------
 Symbolic Z-matrix:
 Charge =  0 Multiplicity = 1

                         Standard orientation:
 ---------------------------------------------------------------------
 Center     Atomic      Atomic             Coordinates (Angstroms)
 Number     Number       Type             X           Y           Z
 ---------------------------------------------------------------------
      1          6           0        1.177105   -0.001925    0.005042
      2          6           0       -0.283776   -0.019927    0.001413
      3          7           0       -1.437719    0.013849   -0.002615
      4          1           0        1.614183    0.934868   -0.448288
      5          1           0        1.542988   -0.838588   -0.574574
      6          1           0        1.546896   -0.062109    1.002435
 ---------------------------------------------------------------------

 SCF Done:  E(RB2PLYPD3) =  -132.533899223     A.U. after   12 cycles
 E2(B2PLYPD3) =    -0.1805431592D+00 E(B2PLYPD3) =    -0.13271444238203D+03

 The electronic state is 1-A.
 Alpha  occ. eigenvalues --  -14.84274 -10.67208 -10.66351  -1.04160  -0.89076
 Alpha  occ. eigenvalues --   -0.59960  -0.54414  -0.52868  -0.44859  -0.39193
 Alpha  occ. eigenvalues --   -0.39034
 Alpha virt. eigenvalues --    0.03686   0.07476   0.08203   0.10173   0.11341
 Alpha virt. eigenvalues --    0.11578   0.15416   0.16202   0.16792   0.20038
 Alpha virt. eigenvalues --    0.20127   0.25313   0.32620   0.34249   0.35008

 Mulliken charges:
               1
     1  C   -0.079534
     2  C   -0.000286
     3  N   -0.205210
     4  H    0.091654
     5  H    0.096174
     6  H    0.097202
 Sum of Mulliken charges =   0.00000

 Dipole moment (field-independent basis, Debye):
    X=              4.1317    Y=             -0.0276    Z=              0.0118  Tot=              4.1318
 Quadrupole moment (field-independent basis, Debye-Ang):
   XX=            -20.8923   YY=            -17.8037   ZZ=            -17.7848
   XY=              0.1177   XZ=             -0.0210   YZ=              0.0359

 Normal termination of Gaussian 09 at Wed Aug 26 22:39:25 2020.
