 Gaussian 09, Revision D.01,
 Gaussian 09:  ES64L-G09RevD.01 24-Apr-2013

 --------------------
 #p B2PLYPD3/Def2QZVP
 --------------------

 ------------
 cyanomethane
 ------------
 Symbolic Z-matrix:
 Charge =  0 Multiplicity = 1

                         Standard orientation:
 ---------------------------------------------------------------------
 Center     Atomic      Atomic             Coordinates (Angstroms)
 Number     Number       Type             X           Y           Z
 ---------------------------------------------------------------------
      1          6           0       -1.177625    0.002603    0.006712
      2          6           0        0.274746    0.008541   -0.014805
      3          7           0        1.438625   -0.007108    0.003805
      4          1           0       -1.604415   -0.791829   -0.634280
      5          1           0       -1.536392    0.951600   -0.341458
      6          1           0       -1.512289   -0.176880    0.997663
 ---------------------------------------------------------------------

 SCF Done:  E(RB2PLYPD3) =  -132.533909507     A.U. after   12 cycles
 E2(B2PLYPD3) =    -0.1811915844D+00 E(B2PLYPD3) =    -0.13271510109155D+03

 The electronic state is 1-A.
 Alpha  occ. eigenvalues --  -14.84468 -10.66822 -10.66530  -1.03757  -0.89560
 Alpha  occ. eigenvalues --   -0.60042  -0.54746  -0.53545  -0.44839  -0.38888
 Alpha  occ. eigenvalues --   -0.38791
 Alpha virt. eigenvalues --    0.03787   0.07555   0.08047   0.10162   0.11276
 Alpha virt. eigenvalues --    0.11444   0.15434   0.16149   0.16504   0.20110
 Alpha virt. eigenvalues --    0.20167   0.25437   0.32653   0.34565   0.35012

 Mulliken charges:
               1
     1  C   -0.078039
     2  C    0.000256
     3  N   -0.210940
     4  H    0.092972
     5  H    0.097461
     6  H    0.098290
 Sum of Mulliken charges =   0.00000

 Dipole moment (field-independent basis, Debye):
    X=             -4.1467    Y=              0.0104    Z=              0.0067  Tot=              4.1467
 Quadrupole moment (field-independent basis, Debye-Ang):
   XX=            -20.9512   YY=            -17.7566   ZZ=            -17.7992
   XY=              0.0800   XZ=              0.0106   YZ=             -0.0373

 Normal termination of Gaussian 09 at Thu Aug 27 00:11:50 2020.
