 Gaussian 09, Revision D.01,
 Gaussian 09:  ES64L-G09RevD.01 24-Apr-2013

 --------------------
 #p B2PLYPD3/Def2QZVP
 --------------------

 ------------
 cyanomethane
 ------------
 Symbolic Z-matrix:
 Charge =  0 Multiplicity = 1

                         Standard orientation:
 ---------------------------------------------------------------------
 Center     Atomic      Atomic             Coordinates (Angstroms)
 Number     Number       Type             X           Y           Z
 ---------------------------------------------------------------------
      1          6           0        1.160970    0.010164   -0.024427
      2          6           0       -0.285918    0.044681   -0.019397
      3          7           0       -1.445647   -0.030631    0.026006
      4          1           0        1.822293   -0.511363    0.887438
      5          1           0        1.538184    0.991952   -0.008833
      6          1           0        1.508741   -0.595245   -0.797707
 ---------------------------------------------------------------------

 SCF Done:  E(RB2PLYPD3) =  -132.512541220     A.U. after   13 cycles
 E2(B2PLYPD3) =    -0.1821834586D+00 E(B2PLYPD3) =    -0.13269472467841D+03

 The electronic state is 1-A.
 Alpha  occ. eigenvalues --  -14.84823 -10.67536 -10.66858  -1.04078  -0.89143
 Alpha  occ. eigenvalues --   -0.61037  -0.56111  -0.49546  -0.45193  -0.39318
 Alpha  occ. eigenvalues --   -0.38350
 Alpha virt. eigenvalues --    0.02752   0.06139   0.08247   0.10022   0.10977
 Alpha virt. eigenvalues --    0.12093   0.15476   0.16466   0.17577   0.19873
 Alpha virt. eigenvalues --    0.20549   0.25654   0.30850   0.33511   0.35879

 Mulliken charges:
               1
     1  C   -0.073777
     2  C    0.008677
     3  N   -0.205920
     4  H    0.074660
     5  H    0.097736
     6  H    0.098623
 Sum of Mulliken charges =   0.00000

 Dipole moment (field-independent basis, Debye):
    X=              4.1289    Y=              0.0431    Z=             -0.0893  Tot=              4.1301
 Quadrupole moment (field-independent basis, Debye-Ang):
   XX=            -20.5142   YY=            -17.7554   ZZ=            -18.2593
   XY=             -0.2746   XZ=              0.2527   YZ=              0.2013

 Normal termination of Gaussian 09 at Wed Aug 26 22:19:16 2020.
