 Gaussian 09, Revision D.01,
 Gaussian 09:  ES64L-G09RevD.01 24-Apr-2013

 --------------------
 #p B2PLYPD3/Def2QZVP
 --------------------

 ------------
 cyanomethane
 ------------
 Symbolic Z-matrix:
 Charge =  0 Multiplicity = 1

                         Standard orientation:
 ---------------------------------------------------------------------
 Center     Atomic      Atomic             Coordinates (Angstroms)
 Number     Number       Type             X           Y           Z
 ---------------------------------------------------------------------
      1          6           0        1.148273   -0.012742   -0.030960
      2          6           0       -0.266133    0.033572    0.041504
      3          7           0       -1.433280   -0.010817   -0.012390
      4          1           0        1.630192   -0.357310    0.984000
      5          1           0        1.634034    1.016172   -0.197321
      6          1           0        1.475897   -0.708117   -0.763207
 ---------------------------------------------------------------------

 SCF Done:  E(RB2PLYPD3) =  -132.524628530     A.U. after   11 cycles
 E2(B2PLYPD3) =    -0.1825229117D+00 E(B2PLYPD3) =    -0.13270715144123D+03

 The electronic state is 1-A.
 Alpha  occ. eigenvalues --  -14.84738 -10.67869 -10.66672  -1.03763  -0.89161
 Alpha  occ. eigenvalues --   -0.60701  -0.54369  -0.51568  -0.45057  -0.38708
 Alpha  occ. eigenvalues --   -0.38242
 Alpha virt. eigenvalues --    0.03521   0.06309   0.06998   0.10019   0.11492
 Alpha virt. eigenvalues --    0.11836   0.15573   0.16194   0.16907   0.20081
 Alpha virt. eigenvalues --    0.20199   0.26260   0.32026   0.33153   0.35253

 Mulliken charges:
               1
     1  C   -0.083248
     2  C    0.007738
     3  N   -0.211194
     4  H    0.086333
     5  H    0.093852
     6  H    0.106519
 Sum of Mulliken charges =   0.00000

 Dipole moment (field-independent basis, Debye):
    X=              4.1178    Y=             -0.0015    Z=              0.0118  Tot=              4.1178
 Quadrupole moment (field-independent basis, Debye-Ang):
   XX=            -20.8934   YY=            -17.8155   ZZ=            -17.9580
   XY=              0.0043   XZ=              0.0404   YZ=              0.1101

 Normal termination of Gaussian 09 at Wed Aug 26 22:57:22 2020.
