 Gaussian 09, Revision D.01,
 Gaussian 09:  ES64L-G09RevD.01 24-Apr-2013

 --------------------
 #p B2PLYPD3/Def2QZVP
 --------------------

 ------------
 cyanomethane
 ------------
 Symbolic Z-matrix:
 Charge =  0 Multiplicity = 1

                         Standard orientation:
 ---------------------------------------------------------------------
 Center     Atomic      Atomic             Coordinates (Angstroms)
 Number     Number       Type             X           Y           Z
 ---------------------------------------------------------------------
      1          6           0       -1.174357    0.003573   -0.003218
      2          6           0        0.284334   -0.027767   -0.016724
      3          7           0        1.422182    0.009485    0.009328
      4          1           0       -1.474369    0.999841   -0.236314
      5          1           0       -1.557484   -0.235699    0.961039
      6          1           0       -1.583289   -0.685378   -0.670368
 ---------------------------------------------------------------------

 SCF Done:  E(RB2PLYPD3) =  -132.534552538     A.U. after   11 cycles
 E2(B2PLYPD3) =    -0.1787387120D+00 E(B2PLYPD3) =    -0.13271329125016D+03

 The electronic state is 1-A.
 Alpha  occ. eigenvalues --  -14.83700 -10.66084 -10.65724  -1.04734  -0.89873
 Alpha  occ. eigenvalues --   -0.60030  -0.55063  -0.54020  -0.44701  -0.39580
 Alpha  occ. eigenvalues --   -0.39439
 Alpha virt. eigenvalues --    0.03909   0.08450   0.08726   0.10256   0.11462
 Alpha virt. eigenvalues --    0.11679   0.15483   0.16428   0.16549   0.19979
 Alpha virt. eigenvalues --    0.20074   0.25388   0.33170   0.34876   0.35439

 Mulliken charges:
               1
     1  C   -0.073698
     2  C   -0.004893
     3  N   -0.198957
     4  H    0.095468
     5  H    0.089536
     6  H    0.092544
 Sum of Mulliken charges =   0.00000

 Dipole moment (field-independent basis, Debye):
    X=             -4.1127    Y=             -0.0163    Z=             -0.0017  Tot=              4.1128
 Quadrupole moment (field-independent basis, Debye-Ang):
   XX=            -20.8758   YY=            -17.5815   ZZ=            -17.7486
   XY=              0.0341   XZ=             -0.0896   YZ=              0.0148

 Normal termination of Gaussian 09 at Wed Aug 26 15:46:13 2020.
