 Gaussian 09, Revision D.01,
 Gaussian 09:  ES64L-G09RevD.01 24-Apr-2013

 --------------------
 #p B2PLYPD3/Def2QZVP
 --------------------

 ------------
 cyanomethane
 ------------
 Symbolic Z-matrix:
 Charge =  0 Multiplicity = 1

                         Standard orientation:
 ---------------------------------------------------------------------
 Center     Atomic      Atomic             Coordinates (Angstroms)
 Number     Number       Type             X           Y           Z
 ---------------------------------------------------------------------
      1          6           0       -1.190434   -0.005255   -0.013924
      2          6           0        0.275816    0.010855    0.030876
      3          7           0        1.441706   -0.007791   -0.015772
      4          1           0       -1.521348   -0.035587    0.989671
      5          1           0       -1.573156   -0.856561   -0.524186
      6          1           0       -1.509731    0.913084   -0.456791
 ---------------------------------------------------------------------

 SCF Done:  E(RB2PLYPD3) =  -132.532541893     A.U. after   12 cycles
 E2(B2PLYPD3) =    -0.1812666439D+00 E(B2PLYPD3) =    -0.13271380853703D+03

 The electronic state is 1-A.
 Alpha  occ. eigenvalues --  -14.84500 -10.66600 -10.66477  -1.03579  -0.89773
 Alpha  occ. eigenvalues --   -0.59668  -0.54909  -0.54410  -0.44762  -0.38892
 Alpha  occ. eigenvalues --   -0.38757
 Alpha virt. eigenvalues --    0.03823   0.07861   0.08314   0.10145   0.11165
 Alpha virt. eigenvalues --    0.11256   0.15312   0.15630   0.16757   0.20149
 Alpha virt. eigenvalues --    0.20166   0.25232   0.32684   0.34696   0.35248

 Mulliken charges:
               1
     1  C   -0.079384
     2  C   -0.000622
     3  N   -0.213042
     4  H    0.094963
     5  H    0.098985
     6  H    0.099099
 Sum of Mulliken charges =   0.00000

 Dipole moment (field-independent basis, Debye):
    X=             -4.1535    Y=              0.0129    Z=              0.0422  Tot=              4.1538
 Quadrupole moment (field-independent basis, Debye-Ang):
   XX=            -21.0163   YY=            -17.6623   ZZ=            -17.8282
   XY=              0.0819   XZ=              0.0470   YZ=              0.0003

 Normal termination of Gaussian 09 at Wed Aug 26 13:55:51 2020.
