 Gaussian 09, Revision D.01,
 Gaussian 09:  ES64L-G09RevD.01 24-Apr-2013

 --------------------
 #p B2PLYPD3/Def2QZVP
 --------------------

 ------------
 cyanomethane
 ------------
 Symbolic Z-matrix:
 Charge =  0 Multiplicity = 1

                         Standard orientation:
 ---------------------------------------------------------------------
 Center     Atomic      Atomic             Coordinates (Angstroms)
 Number     Number       Type             X           Y           Z
 ---------------------------------------------------------------------
      1          6           0       -1.181136    0.004422   -0.018306
      2          6           0        0.271103    0.004184    0.049895
      3          7           0        1.442038   -0.001599   -0.022879
      4          1           0       -1.560272   -0.104431    0.990183
      5          1           0       -1.523756   -0.878546   -0.583914
      6          1           0       -1.550041    0.942528   -0.435650
 ---------------------------------------------------------------------

 SCF Done:  E(RB2PLYPD3) =  -132.532228858     A.U. after   11 cycles
 E2(B2PLYPD3) =    -0.1822143004D+00 E(B2PLYPD3) =    -0.13271444315846D+03

 The electronic state is 1-A.
 Alpha  occ. eigenvalues --  -14.84706 -10.67256 -10.66767  -1.03388  -0.89296
 Alpha  occ. eigenvalues --   -0.59667  -0.54441  -0.53562  -0.44843  -0.38667
 Alpha  occ. eigenvalues --   -0.38486
 Alpha virt. eigenvalues --    0.03632   0.07366   0.07708   0.10098   0.11188
 Alpha virt. eigenvalues --    0.11336   0.15273   0.15691   0.16738   0.20147
 Alpha virt. eigenvalues --    0.20181   0.25569   0.32601   0.34115   0.34820

 Mulliken charges:
               1
     1  C   -0.086258
     2  C    0.002698
     3  N   -0.214833
     4  H    0.094993
     5  H    0.100777
     6  H    0.102623
 Sum of Mulliken charges =   0.00000

 Dipole moment (field-independent basis, Debye):
    X=             -4.1439    Y=             -0.0071    Z=              0.0515  Tot=              4.1442
 Quadrupole moment (field-independent basis, Debye-Ang):
   XX=            -21.0768   YY=            -17.6700   ZZ=            -17.9211
   XY=              0.0136   XZ=              0.0385   YZ=             -0.0141

 Normal termination of Gaussian 09 at Wed Aug 26 12:15:05 2020.
