 Gaussian 09, Revision D.01,
 Gaussian 09:  ES64L-G09RevD.01 24-Apr-2013

 --------------------
 #p B2PLYPD3/Def2QZVP
 --------------------

 ------------
 cyanomethane
 ------------
 Symbolic Z-matrix:
 Charge =  0 Multiplicity = 1

                         Standard orientation:
 ---------------------------------------------------------------------
 Center     Atomic      Atomic             Coordinates (Angstroms)
 Number     Number       Type             X           Y           Z
 ---------------------------------------------------------------------
      1          6           0        1.148093   -0.013527    0.016945
      2          6           0       -0.275101   -0.034444   -0.014067
      3          7           0       -1.429316    0.030471   -0.000514
      4          1           0        1.756918    0.974674   -0.341772
      5          1           0        1.530796   -0.769410   -0.586504
      6          1           0        1.479549   -0.130732    0.914603
 ---------------------------------------------------------------------

 SCF Done:  E(RB2PLYPD3) =  -132.509533255     A.U. after   12 cycles
 E2(B2PLYPD3) =    -0.1808481963D+00 E(B2PLYPD3) =    -0.13269038145085D+03

 The electronic state is 1-A.
 Alpha  occ. eigenvalues --  -14.84473 -10.66399 -10.66036  -1.04348  -0.90576
 Alpha  occ. eigenvalues --   -0.61928  -0.56209  -0.51342  -0.45093  -0.39296
 Alpha  occ. eigenvalues --   -0.38715
 Alpha virt. eigenvalues --    0.03175   0.06759   0.08708   0.10089   0.11324
 Alpha virt. eigenvalues --    0.11904   0.15773   0.16160   0.17665   0.19992
 Alpha virt. eigenvalues --    0.20425   0.26043   0.31616   0.34113   0.35986

 Mulliken charges:
               1
     1  C   -0.067319
     2  C    0.007349
     3  N   -0.206000
     4  H    0.077871
     5  H    0.089229
     6  H    0.098869
 Sum of Mulliken charges =   0.00000

 Dipole moment (field-independent basis, Debye):
    X=              4.1213    Y=             -0.1100    Z=              0.0498  Tot=              4.1230
 Quadrupole moment (field-independent basis, Debye-Ang):
   XX=            -20.5062   YY=            -17.8396   ZZ=            -17.8651
   XY=              0.2091   XZ=              0.0052   YZ=              0.0848

 Normal termination of Gaussian 09 at Wed Aug 26 20:43:13 2020.
