 Gaussian 09, Revision D.01,
 Gaussian 09:  ES64L-G09RevD.01 24-Apr-2013

 --------------------
 #p B2PLYPD3/Def2QZVP
 --------------------

 ------------
 cyanomethane
 ------------
 Symbolic Z-matrix:
 Charge =  0 Multiplicity = 1

                         Standard orientation:
 ---------------------------------------------------------------------
 Center     Atomic      Atomic             Coordinates (Angstroms)
 Number     Number       Type             X           Y           Z
 ---------------------------------------------------------------------
      1          6           0       -1.184244    0.005481    0.000791
      2          6           0        0.281191    0.015129   -0.010857
      3          7           0        1.436543   -0.011664    0.006232
      4          1           0       -1.503432    1.030141   -0.073325
      5          1           0       -1.571443   -0.464978    0.926269
      6          1           0       -1.562607   -0.607171   -0.836170
 ---------------------------------------------------------------------

 SCF Done:  E(RB2PLYPD3) =  -132.534326327     A.U. after   12 cycles
 E2(B2PLYPD3) =    -0.1806739774D+00 E(B2PLYPD3) =    -0.13271500030416D+03

 The electronic state is 1-A.
 Alpha  occ. eigenvalues --  -14.84205 -10.67429 -10.66291  -1.04026  -0.88981
 Alpha  occ. eigenvalues --   -0.59287  -0.54653  -0.53040  -0.44744  -0.39103
 Alpha  occ. eigenvalues --   -0.38943
 Alpha virt. eigenvalues --    0.03694   0.07593   0.08204   0.10181   0.11256
 Alpha virt. eigenvalues --    0.11563   0.15277   0.16078   0.16420   0.20039
 Alpha virt. eigenvalues --    0.20145   0.25193   0.32571   0.34166   0.34831

 Mulliken charges:
               1
     1  C   -0.090232
     2  C   -0.002025
     3  N   -0.206615
     4  H    0.103457
     5  H    0.097422
     6  H    0.097993
 Sum of Mulliken charges =   0.00000

 Dipole moment (field-independent basis, Debye):
    X=             -4.1252    Y=              0.0062    Z=             -0.0063  Tot=              4.1252
 Quadrupole moment (field-independent basis, Debye-Ang):
   XX=            -21.0960   YY=            -17.6462   ZZ=            -17.8497
   XY=              0.1494   XZ=             -0.0523   YZ=              0.0000

 Normal termination of Gaussian 09 at Thu Aug 27 00:02:49 2020.
