 Gaussian 09, Revision D.01,
 Gaussian 09:  ES64L-G09RevD.01 24-Apr-2013

 --------------------
 #p B2PLYPD3/Def2QZVP
 --------------------

 ------------
 cyanomethane
 ------------
 Symbolic Z-matrix:
 Charge =  0 Multiplicity = 1

                         Standard orientation:
 ---------------------------------------------------------------------
 Center     Atomic      Atomic             Coordinates (Angstroms)
 Number     Number       Type             X           Y           Z
 ---------------------------------------------------------------------
      1          6           0       -1.181645   -0.005776   -0.012197
      2          6           0        0.273685    0.012975    0.017818
      3          7           0        1.435989   -0.006145   -0.007855
      4          1           0       -1.534678    1.007032   -0.192244
      5          1           0       -1.537127   -0.331631    0.975984
      6          1           0       -1.532362   -0.675574   -0.762485
 ---------------------------------------------------------------------

 SCF Done:  E(RB2PLYPD3) =  -132.534374702     A.U. after   12 cycles
 E2(B2PLYPD3) =    -0.1811004878D+00 E(B2PLYPD3) =    -0.13271547519009D+03

 The electronic state is 1-A.
 Alpha  occ. eigenvalues --  -14.84356 -10.67001 -10.66418  -1.03758  -0.89456
 Alpha  occ. eigenvalues --   -0.59551  -0.54681  -0.53825  -0.44753  -0.38901
 Alpha  occ. eigenvalues --   -0.38754
 Alpha virt. eigenvalues --    0.03775   0.07844   0.07925   0.10145   0.11298
 Alpha virt. eigenvalues --    0.11405   0.15376   0.15868   0.16435   0.20123
 Alpha virt. eigenvalues --    0.20153   0.25387   0.32658   0.34273   0.35016

 Mulliken charges:
               1
     1  C   -0.086798
     2  C   -0.000875
     3  N   -0.210872
     4  H    0.099080
     5  H    0.097029
     6  H    0.102437
 Sum of Mulliken charges =   0.00000

 Dipole moment (field-independent basis, Debye):
    X=             -4.1341    Y=              0.0083    Z=              0.0140  Tot=              4.1342
 Quadrupole moment (field-independent basis, Debye-Ang):
   XX=            -21.1053   YY=            -17.7216   ZZ=            -17.7518
   XY=              0.0310   XZ=              0.0275   YZ=              0.0314

 Normal termination of Gaussian 09 at Thu Aug 27 00:03:53 2020.
