 Gaussian 09, Revision D.01,
 Gaussian 09:  ES64L-G09RevD.01 24-Apr-2013

 --------------------
 #p B2PLYPD3/Def2QZVP
 --------------------

 ------------
 cyanomethane
 ------------
 Symbolic Z-matrix:
 Charge =  0 Multiplicity = 1

                         Standard orientation:
 ---------------------------------------------------------------------
 Center     Atomic      Atomic             Coordinates (Angstroms)
 Number     Number       Type             X           Y           Z
 ---------------------------------------------------------------------
      1          6           0       -1.166882    0.002767   -0.007200
      2          6           0        0.273654    0.016204   -0.001521
      3          7           0        1.434053   -0.011129   -0.000442
      4          1           0       -1.531838    1.017021   -0.093412
      5          1           0       -1.546094   -0.426294    0.940835
      6          1           0       -1.601074   -0.626649   -0.792002
 ---------------------------------------------------------------------

 SCF Done:  E(RB2PLYPD3) =  -132.533998617     A.U. after   12 cycles
 E2(B2PLYPD3) =    -0.1811238409D+00 E(B2PLYPD3) =    -0.13271512245796D+03

 The electronic state is 1-A.
 Alpha  occ. eigenvalues --  -14.84398 -10.67120 -10.66424  -1.03940  -0.89388
 Alpha  occ. eigenvalues --   -0.60299  -0.54399  -0.53048  -0.44883  -0.38939
 Alpha  occ. eigenvalues --   -0.38743
 Alpha virt. eigenvalues --    0.03723   0.07357   0.07817   0.10117   0.11356
 Alpha virt. eigenvalues --    0.11660   0.15510   0.16139   0.16754   0.20072
 Alpha virt. eigenvalues --    0.20188   0.25658   0.32810   0.34164   0.34905

 Mulliken charges:
               1
     1  C   -0.079005
     2  C    0.001461
     3  N   -0.208844
     4  H    0.098296
     5  H    0.092807
     6  H    0.095283
 Sum of Mulliken charges =   0.00000

 Dipole moment (field-independent basis, Debye):
    X=             -4.1357    Y=              0.0050    Z=              0.0128  Tot=              4.1357
 Quadrupole moment (field-independent basis, Debye-Ang):
   XX=            -20.9237   YY=            -17.6980   ZZ=            -17.8918
   XY=              0.1299   XZ=              0.0048   YZ=              0.0085

 Normal termination of Gaussian 09 at Thu Aug 27 00:13:24 2020.
