 Gaussian 09, Revision D.01,
 Gaussian 09:  ES64L-G09RevD.01 24-Apr-2013

 --------------------
 #p B2PLYPD3/Def2QZVP
 --------------------

 ------------
 cyanomethane
 ------------
 Symbolic Z-matrix:
 Charge =  0 Multiplicity = 1

                         Standard orientation:
 ---------------------------------------------------------------------
 Center     Atomic      Atomic             Coordinates (Angstroms)
 Number     Number       Type             X           Y           Z
 ---------------------------------------------------------------------
      1          6           0        1.201125   -0.005809   -0.002550
      2          6           0       -0.273049    0.015272    0.053962
      3          7           0       -1.452537    0.003860   -0.022946
      4          1           0        1.581082   -0.172013    0.922540
      5          1           0        1.644598    0.948147   -0.423758
      6          1           0        1.373620   -0.859930   -0.646634
 ---------------------------------------------------------------------

 SCF Done:  E(RB2PLYPD3) =  -132.524201898     A.U. after   13 cycles
 E2(B2PLYPD3) =    -0.1828912161D+00 E(B2PLYPD3) =    -0.13270709311382D+03

 The electronic state is 1-A.
 Alpha  occ. eigenvalues --  -14.84911 -10.67120 -10.67056  -1.02977  -0.89524
 Alpha  occ. eigenvalues --   -0.59679  -0.54898  -0.53674  -0.44765  -0.38544
 Alpha  occ. eigenvalues --   -0.38346
 Alpha virt. eigenvalues --    0.03556   0.07177   0.08267   0.10242   0.10916
 Alpha virt. eigenvalues --    0.11191   0.14813   0.15625   0.16631   0.20178
 Alpha virt. eigenvalues --    0.20235   0.25111   0.32059   0.34267   0.34700

 Mulliken charges:
               1
     1  C   -0.090552
     2  C    0.002991
     3  N   -0.219548
     4  H    0.101613
     5  H    0.098898
     6  H    0.106598
 Sum of Mulliken charges =   0.00000

 Dipole moment (field-independent basis, Debye):
    X=              4.1735    Y=             -0.0345    Z=              0.0416  Tot=              4.1738
 Quadrupole moment (field-independent basis, Debye-Ang):
   XX=            -21.0927   YY=            -17.7236   ZZ=            -17.9087
   XY=              0.1640   XZ=              0.0198   YZ=              0.0151

 Normal termination of Gaussian 09 at Wed Aug 26 18:53:33 2020.
