 Gaussian 09, Revision D.01,
 Gaussian 09:  ES64L-G09RevD.01 24-Apr-2013

 --------------------
 #p B2PLYPD3/Def2QZVP
 --------------------

 ------------
 cyanomethane
 ------------
 Symbolic Z-matrix:
 Charge =  0 Multiplicity = 1

                         Standard orientation:
 ---------------------------------------------------------------------
 Center     Atomic      Atomic             Coordinates (Angstroms)
 Number     Number       Type             X           Y           Z
 ---------------------------------------------------------------------
      1          6           0       -1.207941    0.015255    0.017981
      2          6           0        0.288734   -0.020052   -0.052567
      3          7           0        1.444709    0.000047    0.021274
      4          1           0       -1.472262   -0.013602    1.047945
      5          1           0       -1.665468   -0.906233   -0.509279
      6          1           0       -1.459992    0.948291   -0.480073
 ---------------------------------------------------------------------

 SCF Done:  E(RB2PLYPD3) =  -132.528962024     A.U. after   12 cycles
 E2(B2PLYPD3) =    -0.1811140104D+00 E(B2PLYPD3) =    -0.13271007603443D+03

 The electronic state is 1-A.
 Alpha  occ. eigenvalues --  -14.84241 -10.68018 -10.66412  -1.03814  -0.88432
 Alpha  occ. eigenvalues --   -0.58212  -0.54848  -0.52793  -0.44605  -0.39085
 Alpha  occ. eigenvalues --   -0.38952
 Alpha virt. eigenvalues --    0.03585   0.07491   0.08422   0.10208   0.11109
 Alpha virt. eigenvalues --    0.11334   0.14872   0.15725   0.16225   0.20061
 Alpha virt. eigenvalues --    0.20080   0.24743   0.31660   0.34153   0.34776

 Mulliken charges:
               1
     1  C   -0.104462
     2  C   -0.002917
     3  N   -0.208128
     4  H    0.109451
     5  H    0.097069
     6  H    0.108986
 Sum of Mulliken charges =   0.00000

 Dipole moment (field-independent basis, Debye):
    X=             -4.1229    Y=              0.0101    Z=             -0.0052  Tot=              4.1229
 Quadrupole moment (field-independent basis, Debye-Ang):
   XX=            -21.2938   YY=            -17.6971   ZZ=            -17.7858
   XY=              0.1451   XZ=             -0.0893   YZ=             -0.0735

 Normal termination of Gaussian 09 at Wed Aug 26 22:56:57 2020.
