 Gaussian 09, Revision D.01,
 Gaussian 09:  ES64L-G09RevD.01 24-Apr-2013

 --------------------
 #p B2PLYPD3/Def2QZVP
 --------------------

 ------------
 cyanomethane
 ------------
 Symbolic Z-matrix:
 Charge =  0 Multiplicity = 1

                         Standard orientation:
 ---------------------------------------------------------------------
 Center     Atomic      Atomic             Coordinates (Angstroms)
 Number     Number       Type             X           Y           Z
 ---------------------------------------------------------------------
      1          6           0        1.178930   -0.001147   -0.012924
      2          6           0       -0.280505    0.023166    0.006951
      3          7           0       -1.439264   -0.013917   -0.003267
      4          1           0        1.537112    1.021288   -0.031752
      5          1           0        1.587148   -0.573765   -0.815789
      6          1           0        1.560039   -0.482226    0.906249
 ---------------------------------------------------------------------

 SCF Done:  E(RB2PLYPD3) =  -132.534042298     A.U. after   12 cycles
 E2(B2PLYPD3) =    -0.1808957541D+00 E(B2PLYPD3) =    -0.13271493805173D+03

 The electronic state is 1-A.
 Alpha  occ. eigenvalues --  -14.84387 -10.67034 -10.66470  -1.03951  -0.89254
 Alpha  occ. eigenvalues --   -0.60110  -0.54529  -0.53107  -0.44856  -0.39089
 Alpha  occ. eigenvalues --   -0.38879
 Alpha virt. eigenvalues --    0.03751   0.07627   0.08001   0.10135   0.11251
 Alpha virt. eigenvalues --    0.11564   0.15397   0.16089   0.16814   0.20046
 Alpha virt. eigenvalues --    0.20173   0.25344   0.32675   0.34226   0.35152

 Mulliken charges:
               1
     1  C   -0.077931
     2  C    0.000704
     3  N   -0.208106
     4  H    0.097322
     5  H    0.096900
     6  H    0.091110
 Sum of Mulliken charges =   0.00000

 Dipole moment (field-independent basis, Debye):
    X=              4.1404    Y=              0.0043    Z=              0.0138  Tot=              4.1404
 Quadrupole moment (field-independent basis, Debye-Ang):
   XX=            -20.9123   YY=            -17.6876   ZZ=            -17.8984
   XY=             -0.1478   XZ=             -0.0074   YZ=              0.0356

 Normal termination of Gaussian 09 at Thu Aug 27 00:05:28 2020.
