 Gaussian 09, Revision D.01,
 Gaussian 09:  ES64L-G09RevD.01 24-Apr-2013

 --------------------
 #p B2PLYPD3/Def2QZVP
 --------------------

 ------------
 cyanomethane
 ------------
 Symbolic Z-matrix:
 Charge =  0 Multiplicity = 1

                         Standard orientation:
 ---------------------------------------------------------------------
 Center     Atomic      Atomic             Coordinates (Angstroms)
 Number     Number       Type             X           Y           Z
 ---------------------------------------------------------------------
      1          6           0       -1.175358   -0.039510    0.012083
      2          6           0        0.269897    0.072870    0.007937
      3          7           0        1.456261   -0.033921   -0.010727
      4          1           0       -1.584009    1.069070   -0.046135
      5          1           0       -1.523699   -0.488442    0.851936
      6          1           0       -1.653356   -0.543339   -0.850832
 ---------------------------------------------------------------------

 SCF Done:  E(RB2PLYPD3) =  -132.517385140     A.U. after   12 cycles
 E2(B2PLYPD3) =    -0.1843264984D+00 E(B2PLYPD3) =    -0.13270171163824D+03

 The electronic state is 1-A.
 Alpha  occ. eigenvalues --  -14.85468 -10.67560 -10.67459  -1.02875  -0.89217
 Alpha  occ. eigenvalues --   -0.61212  -0.54744  -0.51598  -0.45157  -0.38488
 Alpha  occ. eigenvalues --   -0.37946
 Alpha virt. eigenvalues --    0.03491   0.06053   0.07123   0.09773   0.11101
 Alpha virt. eigenvalues --    0.11472   0.15390   0.15798   0.17397   0.20101
 Alpha virt. eigenvalues --    0.20421   0.25899   0.31389   0.33460   0.35337

 Mulliken charges:
               1
     1  C   -0.077730
     2  C    0.013678
     3  N   -0.219330
     4  H    0.085052
     5  H    0.104126
     6  H    0.094204
 Sum of Mulliken charges =   0.00000

 Dipole moment (field-independent basis, Debye):
    X=             -4.1466    Y=              0.0084    Z=              0.0157  Tot=              4.1466
 Quadrupole moment (field-independent basis, Debye-Ang):
   XX=            -20.8396   YY=            -17.9158   ZZ=            -18.0140
   XY=              0.2298   XZ=              0.1465   YZ=             -0.0804

 Normal termination of Gaussian 09 at Wed Aug 26 23:45:05 2020.
