 Gaussian 09, Revision D.01,
 Gaussian 09:  ES64L-G09RevD.01 24-Apr-2013

 --------------------
 #p B2PLYPD3/Def2QZVP
 --------------------

 ------------
 cyanomethane
 ------------
 Symbolic Z-matrix:
 Charge =  0 Multiplicity = 1

                         Standard orientation:
 ---------------------------------------------------------------------
 Center     Atomic      Atomic             Coordinates (Angstroms)
 Number     Number       Type             X           Y           Z
 ---------------------------------------------------------------------
      1          6           0        1.168621   -0.005293   -0.009886
      2          6           0       -0.272719    0.017856    0.011686
      3          7           0       -1.436262   -0.006973   -0.002885
      4          1           0        1.576664   -0.417792    0.939264
      5          1           0        1.580358    1.013174   -0.114745
      6          1           0        1.521402   -0.621951   -0.815123
 ---------------------------------------------------------------------

 SCF Done:  E(RB2PLYPD3) =  -132.533846314     A.U. after   11 cycles
 E2(B2PLYPD3) =    -0.1814011855D+00 E(B2PLYPD3) =    -0.13271524749948D+03

 The electronic state is 1-A.
 Alpha  occ. eigenvalues --  -14.84488 -10.67199 -10.66519  -1.03812  -0.89342
 Alpha  occ. eigenvalues --   -0.60206  -0.54257  -0.53202  -0.44890  -0.38841
 Alpha  occ. eigenvalues --   -0.38706
 Alpha virt. eigenvalues --    0.03720   0.07381   0.07637   0.10125   0.11400
 Alpha virt. eigenvalues --    0.11534   0.15494   0.16307   0.16466   0.20112
 Alpha virt. eigenvalues --    0.20157   0.25654   0.32668   0.34199   0.34867

 Mulliken charges:
               1
     1  C   -0.080270
     2  C    0.001751
     3  N   -0.210217
     4  H    0.093571
     5  H    0.095272
     6  H    0.099893
 Sum of Mulliken charges =   0.00000

 Dipole moment (field-independent basis, Debye):
    X=              4.1379    Y=              0.0028    Z=              0.0034  Tot=              4.1379
 Quadrupole moment (field-independent basis, Debye-Ang):
   XX=            -20.9489   YY=            -17.7820   ZZ=            -17.8222
   XY=             -0.0204   XZ=              0.0256   YZ=              0.0384

 Normal termination of Gaussian 09 at Thu Aug 27 00:14:35 2020.
