 Gaussian 09, Revision D.01,
 Gaussian 09:  ES64L-G09RevD.01 24-Apr-2013

 --------------------
 #p B2PLYPD3/Def2QZVP
 --------------------

 ------------
 cyanomethane
 ------------
 Symbolic Z-matrix:
 Charge =  0 Multiplicity = 1

                         Standard orientation:
 ---------------------------------------------------------------------
 Center     Atomic      Atomic             Coordinates (Angstroms)
 Number     Number       Type             X           Y           Z
 ---------------------------------------------------------------------
      1          6           0       -1.174336   -0.008988    0.004064
      2          6           0        0.276436    0.000254   -0.018936
      3          7           0        1.429145    0.000133    0.008109
      4          1           0       -1.537878    0.947277   -0.387633
      5          1           0       -1.520985   -0.101352    1.011664
      6          1           0       -1.557750   -0.794455   -0.591563
 ---------------------------------------------------------------------

 SCF Done:  E(RB2PLYPD3) =  -132.535287978     A.U. after   11 cycles
 E2(B2PLYPD3) =    -0.1801268171D+00 E(B2PLYPD3) =    -0.13271541479478D+03

 The electronic state is 1-A.
 Alpha  occ. eigenvalues --  -14.84100 -10.66583 -10.66128  -1.04173  -0.89695
 Alpha  occ. eigenvalues --   -0.59920  -0.54837  -0.53853  -0.44758  -0.39166
 Alpha  occ. eigenvalues --   -0.38999
 Alpha virt. eigenvalues --    0.03839   0.08011   0.08233   0.10179   0.11372
 Alpha virt. eigenvalues --    0.11570   0.15491   0.16137   0.16509   0.20072
 Alpha virt. eigenvalues --    0.20121   0.25478   0.32917   0.34490   0.35224

 Mulliken charges:
               1
     1  C   -0.079431
     2  C   -0.002185
     3  N   -0.206271
     4  H    0.093378
     5  H    0.097086
     6  H    0.097422
 Sum of Mulliken charges =   0.00000

 Dipole moment (field-independent basis, Debye):
    X=             -4.1258    Y=              0.0045    Z=             -0.0071  Tot=              4.1258
 Quadrupole moment (field-independent basis, Debye-Ang):
   XX=            -20.9847   YY=            -17.7180   ZZ=            -17.7068
   XY=             -0.0018   XZ=             -0.0305   YZ=              0.0315

 Normal termination of Gaussian 09 at Thu Aug 27 00:02:53 2020.
