 Gaussian 09, Revision D.01,
 Gaussian 09:  ES64L-G09RevD.01 24-Apr-2013

 --------------------
 #p B2PLYPD3/Def2QZVP
 --------------------

 ------------
 cyanomethane
 ------------
 Symbolic Z-matrix:
 Charge =  0 Multiplicity = 1

                         Standard orientation:
 ---------------------------------------------------------------------
 Center     Atomic      Atomic             Coordinates (Angstroms)
 Number     Number       Type             X           Y           Z
 ---------------------------------------------------------------------
      1          6           0        1.181692   -0.003443   -0.010799
      2          6           0       -0.282580   -0.001138   -0.004210
      3          7           0       -1.435349    0.000144    0.006707
      4          1           0        1.599089   -0.117173    0.996348
      5          1           0        1.522234    0.943546   -0.370536
      6          1           0        1.531453   -0.799897   -0.582706
 ---------------------------------------------------------------------

 SCF Done:  E(RB2PLYPD3) =  -132.534004750     A.U. after   11 cycles
 E2(B2PLYPD3) =    -0.1800735041D+00 E(B2PLYPD3) =    -0.13271407825372D+03

 The electronic state is 1-A.
 Alpha  occ. eigenvalues --  -14.84154 -10.66544 -10.66228  -1.04175  -0.89592
 Alpha  occ. eigenvalues --   -0.59932  -0.55330  -0.53280  -0.44780  -0.39296
 Alpha  occ. eigenvalues --   -0.39069
 Alpha virt. eigenvalues --    0.03840   0.07910   0.08507   0.10217   0.11234
 Alpha virt. eigenvalues --    0.11566   0.15392   0.16323   0.16529   0.20030
 Alpha virt. eigenvalues --    0.20136   0.25210   0.32772   0.34526   0.35462

 Mulliken charges:
               1
     1  C   -0.075145
     2  C   -0.002345
     3  N   -0.205638
     4  H    0.088948
     5  H    0.096142
     6  H    0.098038
 Sum of Mulliken charges =   0.00000

 Dipole moment (field-independent basis, Debye):
    X=              4.1390    Y=              0.0004    Z=             -0.0016  Tot=              4.1390
 Quadrupole moment (field-independent basis, Debye-Ang):
   XX=            -20.8991   YY=            -17.6407   ZZ=            -17.8403
   XY=             -0.0124   XZ=              0.1197   YZ=              0.0340

 Normal termination of Gaussian 09 at Wed Aug 26 23:56:10 2020.
