 Gaussian 09, Revision D.01,
 Gaussian 09:  ES64L-G09RevD.01 24-Apr-2013

 --------------------
 #p B2PLYPD3/Def2QZVP
 --------------------

 ------------
 cyanomethane
 ------------
 Symbolic Z-matrix:
 Charge =  0 Multiplicity = 1

                         Standard orientation:
 ---------------------------------------------------------------------
 Center     Atomic      Atomic             Coordinates (Angstroms)
 Number     Number       Type             X           Y           Z
 ---------------------------------------------------------------------
      1          6           0        1.176635   -0.005503   -0.008142
      2          6           0       -0.285751    0.012843    0.014633
      3          7           0       -1.437187   -0.007196   -0.007952
      4          1           0        1.559537    1.011920   -0.112847
      5          1           0        1.592759   -0.605972   -0.795576
      6          1           0        1.562702   -0.399617    0.925139
 ---------------------------------------------------------------------

 SCF Done:  E(RB2PLYPD3) =  -132.535338628     A.U. after   12 cycles
 E2(B2PLYPD3) =    -0.1802111524D+00 E(B2PLYPD3) =    -0.13271554978083D+03

 The electronic state is 1-A.
 Alpha  occ. eigenvalues --  -14.84218 -10.66958 -10.66302  -1.04272  -0.89174
 Alpha  occ. eigenvalues --   -0.60216  -0.53818  -0.53588  -0.44868  -0.39258
 Alpha  occ. eigenvalues --   -0.39174
 Alpha virt. eigenvalues --    0.03779   0.07856   0.08045   0.10171   0.11456
 Alpha virt. eigenvalues --    0.11503   0.15444   0.16238   0.16937   0.20055
 Alpha virt. eigenvalues --    0.20090   0.25302   0.32761   0.34584   0.35012

 Mulliken charges:
               1
     1  C   -0.074233
     2  C   -0.000041
     3  N   -0.204109
     4  H    0.092426
     5  H    0.094316
     6  H    0.091641
 Sum of Mulliken charges =   0.00000

 Dipole moment (field-independent basis, Debye):
    X=              4.1352    Y=              0.0065    Z=              0.0188  Tot=              4.1353
 Quadrupole moment (field-independent basis, Debye-Ang):
   XX=            -20.8198   YY=            -17.7625   ZZ=            -17.8222
   XY=             -0.0665   XZ=             -0.0447   YZ=              0.0124

 Normal termination of Gaussian 09 at Wed Aug 26 09:35:00 2020.
