 Gaussian 09, Revision D.01,
 Gaussian 09:  ES64L-G09RevD.01 24-Apr-2013

 --------------------
 #p B2PLYPD3/Def2QZVP
 --------------------

 ------------
 cyanomethane
 ------------
 Symbolic Z-matrix:
 Charge =  0 Multiplicity = 1

                         Standard orientation:
 ---------------------------------------------------------------------
 Center     Atomic      Atomic             Coordinates (Angstroms)
 Number     Number       Type             X           Y           Z
 ---------------------------------------------------------------------
      1          6           0       -1.194130   -0.001851    0.010570
      2          6           0        0.278924   -0.026222   -0.014908
      3          7           0        1.438567    0.012527    0.002870
      4          1           0       -1.477091   -0.149872    1.007701
      5          1           0       -1.573546   -0.781629   -0.648084
      6          1           0       -1.528100    1.012253   -0.353681
 ---------------------------------------------------------------------

 SCF Done:  E(RB2PLYPD3) =  -132.532394506     A.U. after   12 cycles
 E2(B2PLYPD3) =    -0.1809655545D+00 E(B2PLYPD3) =    -0.13271336006085D+03

 The electronic state is 1-A.
 Alpha  occ. eigenvalues --  -14.84259 -10.67315 -10.66367  -1.03778  -0.89157
 Alpha  occ. eigenvalues --   -0.58832  -0.55053  -0.53488  -0.44659  -0.39001
 Alpha  occ. eigenvalues --   -0.38831
 Alpha virt. eigenvalues --    0.03689   0.07748   0.08351   0.10199   0.11171
 Alpha virt. eigenvalues --    0.11379   0.15176   0.15908   0.16109   0.20088
 Alpha virt. eigenvalues --    0.20145   0.25042   0.32368   0.33958   0.35103

 Mulliken charges:
               1
     1  C   -0.095611
     2  C   -0.002835
     3  N   -0.209799
     4  H    0.106420
     5  H    0.101602
     6  H    0.100223
 Sum of Mulliken charges =   0.00000

 Dipole moment (field-independent basis, Debye):
    X=             -4.1287    Y=             -0.0189    Z=              0.0074  Tot=              4.1288
 Quadrupole moment (field-independent basis, Debye-Ang):
   XX=            -21.2236   YY=            -17.7096   ZZ=            -17.7221
   XY=             -0.0387   XZ=              0.0298   YZ=              0.0071

 Normal termination of Gaussian 09 at Wed Aug 26 10:35:05 2020.
