 Gaussian 09, Revision D.01,
 Gaussian 09:  ES64L-G09RevD.01 24-Apr-2013

 --------------------
 #p B2PLYPD3/Def2QZVP
 --------------------

 ------------
 cyanomethane
 ------------
 Symbolic Z-matrix:
 Charge =  0 Multiplicity = 1

                         Standard orientation:
 ---------------------------------------------------------------------
 Center     Atomic      Atomic             Coordinates (Angstroms)
 Number     Number       Type             X           Y           Z
 ---------------------------------------------------------------------
      1          6           0        1.180519    0.016685    0.007341
      2          6           0       -0.285216   -0.072300    0.008338
      3          7           0       -1.410320    0.040984    0.001780
      4          1           0        1.590901   -0.068773    0.935182
      5          1           0        1.510236    0.994966   -0.453163
      6          1           0        1.399288   -0.879391   -0.588554
 ---------------------------------------------------------------------

 SCF Done:  E(RB2PLYPD3) =  -132.525972457     A.U. after   12 cycles
 E2(B2PLYPD3) =    -0.1786827565D+00 E(B2PLYPD3) =    -0.13270465521342D+03

 The electronic state is 1-A.
 Alpha  occ. eigenvalues --  -14.83366 -10.66909 -10.65376  -1.04994  -0.89361
 Alpha  occ. eigenvalues --   -0.59554  -0.54087  -0.53765  -0.44549  -0.39673
 Alpha  occ. eigenvalues --   -0.39385
 Alpha virt. eigenvalues --    0.03576   0.08161   0.09031   0.10194   0.11632
 Alpha virt. eigenvalues --    0.11659   0.14970   0.15562   0.17162   0.19916
 Alpha virt. eigenvalues --    0.20066   0.25592   0.33070   0.33955   0.34565

 Mulliken charges:
               1
     1  C   -0.103299
     2  C   -0.004124
     3  N   -0.195223
     4  H    0.099749
     5  H    0.102626
     6  H    0.100270
 Sum of Mulliken charges =   0.00000

 Dipole moment (field-independent basis, Debye):
    X=              4.0371    Y=             -0.0781    Z=              0.0275  Tot=              4.0380
 Quadrupole moment (field-independent basis, Debye-Ang):
   XX=            -21.2540   YY=            -17.3922   ZZ=            -17.7794
   XY=              0.2937   XZ=              0.2090   YZ=              0.0095

 Normal termination of Gaussian 09 at Wed Aug 26 22:17:00 2020.
