 Gaussian 09, Revision D.01,
 Gaussian 09:  ES64L-G09RevD.01 24-Apr-2013

 --------------------
 #p B2PLYPD3/Def2QZVP
 --------------------

 ------------
 cyanomethane
 ------------
 Symbolic Z-matrix:
 Charge =  0 Multiplicity = 1

                         Standard orientation:
 ---------------------------------------------------------------------
 Center     Atomic      Atomic             Coordinates (Angstroms)
 Number     Number       Type             X           Y           Z
 ---------------------------------------------------------------------
      1          6           0        1.173163   -0.012267    0.027484
      2          6           0       -0.293796    0.013004   -0.051547
      3          7           0       -1.445486   -0.014006    0.032634
      4          1           0        1.741954   -0.076412    1.002352
      5          1           0        1.464335    1.034472   -0.449365
      6          1           0        1.635911   -0.864443   -0.637048
 ---------------------------------------------------------------------

 SCF Done:  E(RB2PLYPD3) =  -132.516625128     A.U. after   13 cycles
 E2(B2PLYPD3) =    -0.1821335903D+00 E(B2PLYPD3) =    -0.13269875871811D+03

 The electronic state is 1-A.
 Alpha  occ. eigenvalues --  -14.84531 -10.69421 -10.66744  -1.04293  -0.87350
 Alpha  occ. eigenvalues --   -0.60064  -0.51779  -0.51175  -0.45059  -0.39092
 Alpha  occ. eigenvalues --   -0.38779
 Alpha virt. eigenvalues --    0.03210   0.06169   0.07104   0.09900   0.11588
 Alpha virt. eigenvalues --    0.11814   0.15112   0.15667   0.17953   0.19987
 Alpha virt. eigenvalues --    0.20591   0.25494   0.31685   0.32414   0.33773

 Mulliken charges:
               1
     1  C   -0.106227
     2  C    0.015166
     3  N   -0.202404
     4  H    0.104454
     5  H    0.093085
     6  H    0.095926
 Sum of Mulliken charges =   0.00000

 Dipole moment (field-independent basis, Debye):
    X=              4.0970    Y=              0.0296    Z=             -0.0318  Tot=              4.0972
 Quadrupole moment (field-independent basis, Debye-Ang):
   XX=            -20.8781   YY=            -17.8883   ZZ=            -18.0701
   XY=             -0.2035   XZ=              0.3506   YZ=              0.0140

 Normal termination of Gaussian 09 at Wed Aug 26 22:59:20 2020.
