 Gaussian 09, Revision D.01,
 Gaussian 09:  ES64L-G09RevD.01 24-Apr-2013

 --------------------
 #p B2PLYPD3/Def2QZVP
 --------------------

 ------------
 cyanomethane
 ------------
 Symbolic Z-matrix:
 Charge =  0 Multiplicity = 1

                         Standard orientation:
 ---------------------------------------------------------------------
 Center     Atomic      Atomic             Coordinates (Angstroms)
 Number     Number       Type             X           Y           Z
 ---------------------------------------------------------------------
      1          6           0        1.167190   -0.009030   -0.012628
      2          6           0       -0.276220   -0.033206    0.014133
      3          7           0       -1.426171    0.017426   -0.003654
      4          1           0        1.578866    0.081345    0.994050
      5          1           0        1.516596    0.927972   -0.518544
      6          1           0        1.541916   -0.877880   -0.458959
 ---------------------------------------------------------------------

 SCF Done:  E(RB2PLYPD3) =  -132.533278616     A.U. after   11 cycles
 E2(B2PLYPD3) =    -0.1801935869D+00 E(B2PLYPD3) =    -0.13271347220298D+03

 The electronic state is 1-A.
 Alpha  occ. eigenvalues --  -14.84077 -10.66845 -10.66078  -1.04286  -0.89545
 Alpha  occ. eigenvalues --   -0.60081  -0.55276  -0.52744  -0.44795  -0.39261
 Alpha  occ. eigenvalues --   -0.38872
 Alpha virt. eigenvalues --    0.03711   0.07582   0.08315   0.10162   0.11289
 Alpha virt. eigenvalues --    0.11834   0.15464   0.16260   0.16615   0.19988
 Alpha virt. eigenvalues --    0.20163   0.25654   0.32985   0.33866   0.35326

 Mulliken charges:
               1
     1  C   -0.080324
     2  C   -0.000780
     3  N   -0.204891
     4  H    0.090186
     5  H    0.094931
     6  H    0.100877
 Sum of Mulliken charges =   0.00000

 Dipole moment (field-independent basis, Debye):
    X=              4.1162    Y=             -0.0125    Z=              0.0310  Tot=              4.1163
 Quadrupole moment (field-independent basis, Debye-Ang):
   XX=            -20.9623   YY=            -17.5749   ZZ=            -17.8887
   XY=              0.1139   XZ=              0.0831   YZ=              0.0675

 Normal termination of Gaussian 09 at Wed Aug 26 15:55:39 2020.
