 Gaussian 09, Revision D.01,
 Gaussian 09:  ES64L-G09RevD.01 24-Apr-2013

 --------------------
 #p B2PLYPD3/Def2QZVP
 --------------------

 ------------
 cyanomethane
 ------------
 Symbolic Z-matrix:
 Charge =  0 Multiplicity = 1

                         Standard orientation:
 ---------------------------------------------------------------------
 Center     Atomic      Atomic             Coordinates (Angstroms)
 Number     Number       Type             X           Y           Z
 ---------------------------------------------------------------------
      1          6           0        1.177121   -0.006814   -0.009541
      2          6           0       -0.290058   -0.004083    0.025370
      3          7           0       -1.434722    0.002844   -0.012965
      4          1           0        1.573052    1.033801   -0.098213
      5          1           0        1.580803   -0.579849   -0.819375
      6          1           0        1.566826   -0.408478    0.913370
 ---------------------------------------------------------------------

 SCF Done:  E(RB2PLYPD3) =  -132.535037479     A.U. after   11 cycles
 E2(B2PLYPD3) =    -0.1797319813D+00 E(B2PLYPD3) =    -0.13271476945979D+03

 The electronic state is 1-A.
 Alpha  occ. eigenvalues --  -14.84040 -10.67150 -10.66128  -1.04527  -0.88942
 Alpha  occ. eigenvalues --   -0.60003  -0.53974  -0.53114  -0.44841  -0.39455
 Alpha  occ. eigenvalues --   -0.39309
 Alpha virt. eigenvalues --    0.03734   0.07848   0.08214   0.10188   0.11470
 Alpha virt. eigenvalues --    0.11609   0.15418   0.16271   0.16970   0.20005
 Alpha virt. eigenvalues --    0.20061   0.25237   0.32728   0.34329   0.35097

 Mulliken charges:
               1
     1  C   -0.077692
     2  C   -0.001320
     3  N   -0.200441
     4  H    0.091115
     5  H    0.095789
     6  H    0.092549
 Sum of Mulliken charges =   0.00000

 Dipole moment (field-independent basis, Debye):
    X=              4.1221    Y=             -0.0106    Z=              0.0259  Tot=              4.1222
 Quadrupole moment (field-independent basis, Debye-Ang):
   XX=            -20.8368   YY=            -17.7740   ZZ=            -17.7840
   XY=              0.0046   XZ=             -0.0682   YZ=              0.0205

 Normal termination of Gaussian 09 at Wed Aug 26 14:03:10 2020.
