 Gaussian 09, Revision D.01,
 Gaussian 09:  ES64L-G09RevD.01 24-Apr-2013

 --------------------
 #p B2PLYPD3/Def2QZVP
 --------------------

 ------------
 cyanomethane
 ------------
 Symbolic Z-matrix:
 Charge =  0 Multiplicity = 1

                         Standard orientation:
 ---------------------------------------------------------------------
 Center     Atomic      Atomic             Coordinates (Angstroms)
 Number     Number       Type             X           Y           Z
 ---------------------------------------------------------------------
      1          6           0       -1.156594   -0.010583    0.002761
      2          6           0        0.274109    0.029506   -0.010982
      3          7           0        1.427523   -0.013729    0.003257
      4          1           0       -1.575988    1.045482   -0.077539
      5          1           0       -1.536071   -0.454783    0.957190
      6          1           0       -1.585691   -0.608133   -0.853123
 ---------------------------------------------------------------------

 SCF Done:  E(RB2PLYPD3) =  -132.531454666     A.U. after   11 cycles
 E2(B2PLYPD3) =    -0.1810501490D+00 E(B2PLYPD3) =    -0.13271250481502D+03

 The electronic state is 1-A.
 Alpha  occ. eigenvalues --  -14.84239 -10.67999 -10.66215  -1.04237  -0.88808
 Alpha  occ. eigenvalues --   -0.59944  -0.53209  -0.52845  -0.44895  -0.38909
 Alpha  occ. eigenvalues --   -0.38825
 Alpha virt. eigenvalues --    0.03556   0.07142   0.07263   0.10082   0.11714
 Alpha virt. eigenvalues --    0.11724   0.15541   0.16148   0.16737   0.20063
 Alpha virt. eigenvalues --    0.20115   0.25864   0.32592   0.33875   0.34203

 Mulliken charges:
               1
     1  C   -0.091892
     2  C    0.002847
     3  N   -0.204600
     4  H    0.095196
     5  H    0.100078
     6  H    0.098370
 Sum of Mulliken charges =   0.00000

 Dipole moment (field-independent basis, Debye):
    X=             -4.0997    Y=              0.0155    Z=              0.0011  Tot=              4.0998
 Quadrupole moment (field-independent basis, Debye-Ang):
   XX=            -21.0229   YY=            -17.8052   ZZ=            -17.7925
   XY=              0.0749   XZ=              0.0072   YZ=             -0.0030

 Normal termination of Gaussian 09 at Wed Aug 26 13:26:03 2020.
