 Gaussian 09, Revision D.01,
 Gaussian 09:  ES64L-G09RevD.01 24-Apr-2013

 --------------------
 #p B2PLYPD3/Def2QZVP
 --------------------

 ------------
 cyanomethane
 ------------
 Symbolic Z-matrix:
 Charge =  0 Multiplicity = 1

                         Standard orientation:
 ---------------------------------------------------------------------
 Center     Atomic      Atomic             Coordinates (Angstroms)
 Number     Number       Type             X           Y           Z
 ---------------------------------------------------------------------
      1          6           0       -1.169464    0.035836    0.004403
      2          6           0        0.266274    0.013203    0.045797
      3          7           0        1.429080   -0.007305   -0.029933
      4          1           0       -1.443365   -0.311272    0.948041
      5          1           0       -1.549542   -0.889821   -0.695434
      6          1           0       -1.591511    0.957993   -0.344281
 ---------------------------------------------------------------------

 SCF Done:  E(RB2PLYPD3) =  -132.519244171     A.U. after   12 cycles
 E2(B2PLYPD3) =    -0.1820297721D+00 E(B2PLYPD3) =    -0.13270127394285D+03

 The electronic state is 1-A.
 Alpha  occ. eigenvalues --  -14.84415 -10.67594 -10.66435  -1.03728  -0.89552
 Alpha  occ. eigenvalues --   -0.59600  -0.56409  -0.51243  -0.44797  -0.38937
 Alpha  occ. eigenvalues --   -0.38091
 Alpha virt. eigenvalues --    0.03168   0.06689   0.08351   0.10000   0.11047
 Alpha virt. eigenvalues --    0.11940   0.15181   0.15445   0.17191   0.20041
 Alpha virt. eigenvalues --    0.20284   0.25739   0.31263   0.33310   0.35752

 Mulliken charges:
               1
     1  C   -0.100330
     2  C    0.005173
     3  N   -0.212314
     4  H    0.105612
     5  H    0.088942
     6  H    0.112918
 Sum of Mulliken charges =   0.00000

 Dipole moment (field-independent basis, Debye):
    X=             -4.1072    Y=             -0.0137    Z=              0.0818  Tot=              4.1080
 Quadrupole moment (field-independent basis, Debye-Ang):
   XX=            -21.2201   YY=            -17.5558   ZZ=            -17.9625
   XY=              0.0580   XZ=              0.1753   YZ=             -0.2023

 Normal termination of Gaussian 09 at Wed Aug 26 22:44:39 2020.
