 Gaussian 09, Revision D.01,
 Gaussian 09:  ES64L-G09RevD.01 24-Apr-2013

 --------------------
 #p B2PLYPD3/Def2QZVP
 --------------------

 ------------
 cyanomethane
 ------------
 Symbolic Z-matrix:
 Charge =  0 Multiplicity = 1

                         Standard orientation:
 ---------------------------------------------------------------------
 Center     Atomic      Atomic             Coordinates (Angstroms)
 Number     Number       Type             X           Y           Z
 ---------------------------------------------------------------------
      1          6           0        1.191382    0.003521   -0.022073
      2          6           0       -0.308034    0.012087    0.062673
      3          7           0       -1.437554   -0.000004   -0.035395
      4          1           0        1.691387    0.998290   -0.255091
      5          1           0        1.565903   -0.786371   -0.685870
      6          1           0        1.505505   -0.305537    0.945133
 ---------------------------------------------------------------------

 SCF Done:  E(RB2PLYPD3) =  -132.528831905     A.U. after   12 cycles
 E2(B2PLYPD3) =    -0.1791710273D+00 E(B2PLYPD3) =    -0.13270800293266D+03

 The electronic state is 1-A.
 Alpha  occ. eigenvalues --  -14.83791 -10.67732 -10.65955  -1.04976  -0.88178
 Alpha  occ. eigenvalues --   -0.59117  -0.53121  -0.52955  -0.44799  -0.39905
 Alpha  occ. eigenvalues --   -0.39637
 Alpha virt. eigenvalues --    0.03487   0.07686   0.08774   0.10174   0.11416
 Alpha virt. eigenvalues --    0.11599   0.15233   0.15510   0.18082   0.19893
 Alpha virt. eigenvalues --    0.20134   0.24962   0.32301   0.34198   0.34940

 Mulliken charges:
               1
     1  C   -0.088710
     2  C   -0.001566
     3  N   -0.192787
     4  H    0.096128
     5  H    0.094885
     6  H    0.092049
 Sum of Mulliken charges =   0.00000

 Dipole moment (field-independent basis, Debye):
    X=              4.1082    Y=             -0.0433    Z=              0.1046  Tot=              4.1098
 Quadrupole moment (field-independent basis, Debye-Ang):
   XX=            -20.8050   YY=            -17.6155   ZZ=            -17.9672
   XY=              0.0102   XZ=             -0.1722   YZ=             -0.0049

 Normal termination of Gaussian 09 at Wed Aug 26 19:00:22 2020.
