 Gaussian 09, Revision D.01,
 Gaussian 09:  ES64L-G09RevD.01 24-Apr-2013

 --------------------
 #p B2PLYPD3/Def2QZVP
 --------------------

 ------------
 cyanomethane
 ------------
 Symbolic Z-matrix:
 Charge =  0 Multiplicity = 1

                         Standard orientation:
 ---------------------------------------------------------------------
 Center     Atomic      Atomic             Coordinates (Angstroms)
 Number     Number       Type             X           Y           Z
 ---------------------------------------------------------------------
      1          6           0       -1.172815    0.004947   -0.004995
      2          6           0        0.288003   -0.014888   -0.041861
      3          7           0        1.441683    0.011496    0.025304
      4          1           0       -1.627998   -0.030904    1.035063
      5          1           0       -1.526645   -0.879669   -0.483072
      6          1           0       -1.628265    0.889741   -0.447977
 ---------------------------------------------------------------------

 SCF Done:  E(RB2PLYPD3) =  -132.531090918     A.U. after   12 cycles
 E2(B2PLYPD3) =    -0.1809173089D+00 E(B2PLYPD3) =    -0.13271200822694D+03

 The electronic state is 1-A.
 Alpha  occ. eigenvalues --  -14.84460 -10.67332 -10.66546  -1.04195  -0.88886
 Alpha  occ. eigenvalues --   -0.60496  -0.54353  -0.51979  -0.45000  -0.39271
 Alpha  occ. eigenvalues --   -0.38968
 Alpha virt. eigenvalues --    0.03559   0.07100   0.08128   0.10093   0.11248
 Alpha virt. eigenvalues --    0.11726   0.15462   0.16267   0.17264   0.19963
 Alpha virt. eigenvalues --    0.20216   0.25421   0.32650   0.33940   0.35161

 Mulliken charges:
               1
     1  C   -0.072235
     2  C    0.003591
     3  N   -0.204689
     4  H    0.085886
     5  H    0.094142
     6  H    0.093305
 Sum of Mulliken charges =   0.00000

 Dipole moment (field-independent basis, Debye):
    X=             -4.1339    Y=             -0.0278    Z=             -0.0315  Tot=              4.1341
 Quadrupole moment (field-independent basis, Debye-Ang):
   XX=            -20.7071   YY=            -17.7621   ZZ=            -17.9869
   XY=             -0.1090   XZ=             -0.2099   YZ=              0.0138

 Normal termination of Gaussian 09 at Wed Aug 26 12:55:35 2020.
