 Gaussian 09, Revision D.01,
 Gaussian 09:  ES64L-G09RevD.01 24-Apr-2013

 --------------------
 #p B2PLYPD3/Def2QZVP
 --------------------

 ------------
 cyanomethane
 ------------
 Symbolic Z-matrix:
 Charge =  0 Multiplicity = 1

                         Standard orientation:
 ---------------------------------------------------------------------
 Center     Atomic      Atomic             Coordinates (Angstroms)
 Number     Number       Type             X           Y           Z
 ---------------------------------------------------------------------
      1          6           0        1.142469   -0.036102   -0.007280
      2          6           0       -0.273218   -0.023731   -0.012281
      3          7           0       -1.421265    0.025883    0.009595
      4          1           0        1.686335    1.048992   -0.237607
      5          1           0        1.469825   -0.662473   -0.670490
      6          1           0        1.577182   -0.208701    0.958299
 ---------------------------------------------------------------------

 SCF Done:  E(RB2PLYPD3) =  -132.510872044     A.U. after   12 cycles
 E2(B2PLYPD3) =    -0.1804669125D+00 E(B2PLYPD3) =    -0.13269133895623D+03

 The electronic state is 1-A.
 Alpha  occ. eigenvalues --  -14.84208 -10.66561 -10.66077  -1.04585  -0.90280
 Alpha  occ. eigenvalues --   -0.61486  -0.56751  -0.50635  -0.45013  -0.39486
 Alpha  occ. eigenvalues --   -0.38516
 Alpha virt. eigenvalues --    0.03151   0.06495   0.08752   0.10093   0.11212
 Alpha virt. eigenvalues --    0.12296   0.15739   0.16715   0.17033   0.19890
 Alpha virt. eigenvalues --    0.20291   0.26066   0.31219   0.33957   0.35973

 Mulliken charges:
               1
     1  C   -0.074233
     2  C    0.004062
     3  N   -0.202640
     4  H    0.076351
     5  H    0.105295
     6  H    0.091164
 Sum of Mulliken charges =   0.00000

 Dipole moment (field-independent basis, Debye):
    X=              4.0977    Y=             -0.0785    Z=              0.0242  Tot=              4.0985
 Quadrupole moment (field-independent basis, Debye-Ang):
   XX=            -20.6753   YY=            -17.8396   ZZ=            -17.7893
   XY=              0.2317   XZ=              0.1799   YZ=              0.1827

 Normal termination of Gaussian 09 at Wed Aug 26 19:56:30 2020.
