 Gaussian 09, Revision D.01,
 Gaussian 09:  ES64L-G09RevD.01 24-Apr-2013

 --------------------
 #p B2PLYPD3/Def2QZVP
 --------------------

 ------------
 cyanomethane
 ------------
 Symbolic Z-matrix:
 Charge =  0 Multiplicity = 1

                         Standard orientation:
 ---------------------------------------------------------------------
 Center     Atomic      Atomic             Coordinates (Angstroms)
 Number     Number       Type             X           Y           Z
 ---------------------------------------------------------------------
      1          6           0       -1.180649   -0.023122    0.003208
      2          6           0        0.308218    0.031696   -0.046793
      3          7           0        1.438930   -0.004667    0.026018
      4          1           0       -1.577197   -0.418018    0.965195
      5          1           0       -1.522537   -0.652611   -0.789344
      6          1           0       -1.738190    1.051851   -0.096470
 ---------------------------------------------------------------------

 SCF Done:  E(RB2PLYPD3) =  -132.523905631     A.U. after   12 cycles
 E2(B2PLYPD3) =    -0.1795516674D+00 E(B2PLYPD3) =    -0.13270345729819D+03

 The electronic state is 1-A.
 Alpha  occ. eigenvalues --  -14.83896 -10.68569 -10.66055  -1.05090  -0.87615
 Alpha  occ. eigenvalues --   -0.59375  -0.53756  -0.50790  -0.44913  -0.39910
 Alpha  occ. eigenvalues --   -0.39521
 Alpha virt. eigenvalues --    0.03356   0.06825   0.08408   0.10220   0.11444
 Alpha virt. eigenvalues --    0.11914   0.15228   0.16540   0.17159   0.19848
 Alpha virt. eigenvalues --    0.20027   0.24992   0.31214   0.33878   0.34810

 Mulliken charges:
               1
     1  C   -0.091049
     2  C    0.000182
     3  N   -0.191134
     4  H    0.096402
     5  H    0.100906
     6  H    0.084692
 Sum of Mulliken charges =   0.00000

 Dipole moment (field-independent basis, Debye):
    X=             -4.0836    Y=             -0.0425    Z=             -0.0265  Tot=              4.0839
 Quadrupole moment (field-independent basis, Debye-Ang):
   XX=            -20.8049   YY=            -17.8641   ZZ=            -17.8601
   XY=             -0.0225   XZ=             -0.2225   YZ=              0.0816

 Normal termination of Gaussian 09 at Wed Aug 26 22:02:50 2020.
