 Gaussian 09, Revision D.01,
 Gaussian 09:  ES64L-G09RevD.01 24-Apr-2013

 --------------------
 #p B2PLYPD3/Def2QZVP
 --------------------

 ------------
 cyanomethane
 ------------
 Symbolic Z-matrix:
 Charge =  0 Multiplicity = 1

                         Standard orientation:
 ---------------------------------------------------------------------
 Center     Atomic      Atomic             Coordinates (Angstroms)
 Number     Number       Type             X           Y           Z
 ---------------------------------------------------------------------
      1          6           0        1.180760    0.036677    0.017596
      2          6           0       -0.280675   -0.022452   -0.056876
      3          7           0       -1.452320    0.010735    0.028367
      4          1           0        1.625548    0.945665   -0.352574
      5          1           0        1.552745   -0.870878   -0.647321
      6          1           0        1.587440   -0.235279    1.037008
 ---------------------------------------------------------------------

 SCF Done:  E(RB2PLYPD3) =  -132.523126768     A.U. after   12 cycles
 E2(B2PLYPD3) =    -0.1832040575D+00 E(B2PLYPD3) =    -0.13270633082506D+03

 The electronic state is 1-A.
 Alpha  occ. eigenvalues --  -14.84980 -10.68506 -10.67131  -1.03407  -0.88211
 Alpha  occ. eigenvalues --   -0.60049  -0.54076  -0.51179  -0.45030  -0.38861
 Alpha  occ. eigenvalues --   -0.38203
 Alpha virt. eigenvalues --    0.03370   0.06492   0.07148   0.09930   0.11069
 Alpha virt. eigenvalues --    0.11620   0.15337   0.15395   0.17632   0.20101
 Alpha virt. eigenvalues --    0.20275   0.25547   0.31510   0.32934   0.35034

 Mulliken charges:
               1
     1  C   -0.092500
     2  C    0.011087
     3  N   -0.212817
     4  H    0.107225
     5  H    0.087202
     6  H    0.099803
 Sum of Mulliken charges =   0.00000

 Dipole moment (field-independent basis, Debye):
    X=              4.1338    Y=             -0.0304    Z=             -0.0256  Tot=              4.1339
 Quadrupole moment (field-independent basis, Debye-Ang):
   XX=            -20.9833   YY=            -17.8409   ZZ=            -18.0304
   XY=              0.0522   XZ=              0.1779   YZ=             -0.1296

 Normal termination of Gaussian 09 at Wed Aug 26 22:09:02 2020.
