 Gaussian 09, Revision D.01,
 Gaussian 09:  ES64L-G09RevD.01 24-Apr-2013

 --------------------
 #p B2PLYPD3/Def2QZVP
 --------------------

 ------------
 cyanomethane
 ------------
 Symbolic Z-matrix:
 Charge =  0 Multiplicity = 1

                         Standard orientation:
 ---------------------------------------------------------------------
 Center     Atomic      Atomic             Coordinates (Angstroms)
 Number     Number       Type             X           Y           Z
 ---------------------------------------------------------------------
      1          6           0        1.175333    0.002720   -0.012992
      2          6           0       -0.276931    0.006653   -0.024687
      3          7           0       -1.426491   -0.004763    0.017807
      4          1           0        1.583362   -0.092814    0.991196
      5          1           0        1.497719    0.898694   -0.372587
      6          1           0        1.513941   -0.828778   -0.517183
 ---------------------------------------------------------------------

 SCF Done:  E(RB2PLYPD3) =  -132.529426099     A.U. after   11 cycles
 E2(B2PLYPD3) =    -0.1796379000D+00 E(B2PLYPD3) =    -0.13270906399934D+03

 The electronic state is 1-A.
 Alpha  occ. eigenvalues --  -14.84021 -10.66028 -10.65661  -1.04285  -0.90413
 Alpha  occ. eigenvalues --   -0.60223  -0.56695  -0.53331  -0.44744  -0.39387
 Alpha  occ. eigenvalues --   -0.39022
 Alpha virt. eigenvalues --    0.03904   0.08047   0.08965   0.10199   0.11143
 Alpha virt. eigenvalues --    0.11685   0.15545   0.16276   0.16549   0.20005
 Alpha virt. eigenvalues --    0.20174   0.25451   0.33108   0.34548   0.36064

 Mulliken charges:
               1
     1  C   -0.068282
     2  C   -0.002813
     3  N   -0.205594
     4  H    0.083998
     5  H    0.097232
     6  H    0.095460
 Sum of Mulliken charges =   0.00000

 Dipole moment (field-independent basis, Debye):
    X=              4.1312    Y=              0.0014    Z=             -0.0068  Tot=              4.1312
 Quadrupole moment (field-independent basis, Debye-Ang):
   XX=            -20.8676   YY=            -17.5135   ZZ=            -17.8454
   XY=             -0.0575   XZ=              0.2120   YZ=              0.0046

 Normal termination of Gaussian 09 at Wed Aug 26 15:31:56 2020.
