 Gaussian 09, Revision D.01,
 Gaussian 09:  ES64L-G09RevD.01 24-Apr-2013

 --------------------
 #p B2PLYPD3/Def2QZVP
 --------------------

 ------------
 cyanomethane
 ------------
 Symbolic Z-matrix:
 Charge =  0 Multiplicity = 1

                         Standard orientation:
 ---------------------------------------------------------------------
 Center     Atomic      Atomic             Coordinates (Angstroms)
 Number     Number       Type             X           Y           Z
 ---------------------------------------------------------------------
      1          6           0       -1.178098   -0.012779    0.037281
      2          6           0        0.306698    0.066655   -0.019192
      3          7           0        1.441983   -0.034692    0.005360
      4          1           0       -1.618125   -0.306613    0.951503
      5          1           0       -1.628414   -0.765539   -0.792175
      6          1           0       -1.618943    0.991738   -0.305385
 ---------------------------------------------------------------------

 SCF Done:  E(RB2PLYPD3) =  -132.521355563     A.U. after   12 cycles
 E2(B2PLYPD3) =    -0.1803280255D+00 E(B2PLYPD3) =    -0.13270168358859D+03

 The electronic state is 1-A.
 Alpha  occ. eigenvalues --  -14.84163 -10.68733 -10.66327  -1.04890  -0.87475
 Alpha  occ. eigenvalues --   -0.60036  -0.53370  -0.50462  -0.45026  -0.39832
 Alpha  occ. eigenvalues --   -0.39216
 Alpha virt. eigenvalues --    0.03232   0.06978   0.07730   0.10013   0.11422
 Alpha virt. eigenvalues --    0.11882   0.15336   0.16057   0.17870   0.19833
 Alpha virt. eigenvalues --    0.20148   0.25219   0.31796   0.32555   0.34941

 Mulliken charges:
               1
     1  C   -0.090431
     2  C    0.006464
     3  N   -0.194048
     4  H    0.105269
     5  H    0.084692
     6  H    0.088055
 Sum of Mulliken charges =   0.00000

 Dipole moment (field-independent basis, Debye):
    X=             -4.0797    Y=              0.0585    Z=             -0.0015  Tot=              4.0801
 Quadrupole moment (field-independent basis, Debye-Ang):
   XX=            -20.7710   YY=            -17.9766   ZZ=            -17.8537
   XY=              0.2137   XZ=             -0.0105   YZ=             -0.1092

 Normal termination of Gaussian 09 at Wed Aug 26 19:38:16 2020.
