 Gaussian 09, Revision D.01,
 Gaussian 09:  ES64L-G09RevD.01 24-Apr-2013

 --------------------
 #p B2PLYPD3/Def2QZVP
 --------------------

 ------------
 cyanomethane
 ------------
 Symbolic Z-matrix:
 Charge =  0 Multiplicity = 1

                         Standard orientation:
 ---------------------------------------------------------------------
 Center     Atomic      Atomic             Coordinates (Angstroms)
 Number     Number       Type             X           Y           Z
 ---------------------------------------------------------------------
      1          6           0       -1.161155    0.002953   -0.004317
      2          6           0        0.281077   -0.023788    0.006138
      3          7           0        1.423783    0.011247   -0.008976
      4          1           0       -1.563722    1.016195   -0.154201
      5          1           0       -1.484395   -0.332068    0.947814
      6          1           0       -1.637896   -0.637847   -0.741707
 ---------------------------------------------------------------------

 SCF Done:  E(RB2PLYPD3) =  -132.534394227     A.U. after   12 cycles
 E2(B2PLYPD3) =    -0.1795140913D+00 E(B2PLYPD3) =    -0.13271390831779D+03

 The electronic state is 1-A.
 Alpha  occ. eigenvalues --  -14.83922 -10.66659 -10.65929  -1.04650  -0.89571
 Alpha  occ. eigenvalues --   -0.60508  -0.54160  -0.53450  -0.44839  -0.39335
 Alpha  occ. eigenvalues --   -0.39279
 Alpha virt. eigenvalues --    0.03788   0.07692   0.08378   0.10172   0.11654
 Alpha virt. eigenvalues --    0.11709   0.15597   0.16064   0.17263   0.20031
 Alpha virt. eigenvalues --    0.20103   0.25698   0.33074   0.34636   0.34982

 Mulliken charges:
               1
     1  C   -0.074701
     2  C   -0.000279
     3  N   -0.200574
     4  H    0.091912
     5  H    0.093047
     6  H    0.090596
 Sum of Mulliken charges =   0.00000

 Dipole moment (field-independent basis, Debye):
    X=             -4.1149    Y=             -0.0245    Z=              0.0372  Tot=              4.1152
 Quadrupole moment (field-independent basis, Debye-Ang):
   XX=            -20.7929   YY=            -17.7175   ZZ=            -17.7793
   XY=             -0.0338   XZ=              0.1024   YZ=             -0.0114

 Normal termination of Gaussian 09 at Wed Aug 26 11:57:20 2020.
