 Gaussian 09, Revision D.01,
 Gaussian 09:  ES64L-G09RevD.01 24-Apr-2013

 --------------------
 #p B2PLYPD3/Def2QZVP
 --------------------

 ------------
 cyanomethane
 ------------
 Symbolic Z-matrix:
 Charge =  0 Multiplicity = 1

                         Standard orientation:
 ---------------------------------------------------------------------
 Center     Atomic      Atomic             Coordinates (Angstroms)
 Number     Number       Type             X           Y           Z
 ---------------------------------------------------------------------
      1          6           0        1.179421   -0.012613   -0.019920
      2          6           0       -0.296331   -0.019207    0.019244
      3          7           0       -1.433727    0.017992   -0.016624
      4          1           0        1.689714    1.085034   -0.247886
      5          1           0        1.603325   -0.782265   -0.660003
      6          1           0        1.444504   -0.237796    1.028309
 ---------------------------------------------------------------------

 SCF Done:  E(RB2PLYPD3) =  -132.521616188     A.U. after   12 cycles
 E2(B2PLYPD3) =    -0.1801040504D+00 E(B2PLYPD3) =    -0.13270172023829D+03

 The electronic state is 1-A.
 Alpha  occ. eigenvalues --  -14.83861 -10.68721 -10.66010  -1.04802  -0.87928
 Alpha  occ. eigenvalues --   -0.59007  -0.53655  -0.51267  -0.44795  -0.39626
 Alpha  occ. eigenvalues --   -0.39159
 Alpha virt. eigenvalues --    0.03145   0.06875   0.08369   0.10202   0.11519
 Alpha virt. eigenvalues --    0.11891   0.15264   0.15326   0.17847   0.19987
 Alpha virt. eigenvalues --    0.20155   0.25121   0.31121   0.33330   0.34618

 Mulliken charges:
               1
     1  C   -0.105248
     2  C    0.001099
     3  N   -0.195356
     4  H    0.094478
     5  H    0.106059
     6  H    0.098968
 Sum of Mulliken charges =   0.00000

 Dipole moment (field-independent basis, Debye):
    X=              4.0858    Y=             -0.0722    Z=              0.0834  Tot=              4.0873
 Quadrupole moment (field-independent basis, Debye-Ang):
   XX=            -21.0479   YY=            -17.6702   ZZ=            -17.9325
   XY=              0.1203   XZ=             -0.1104   YZ=              0.0899

 Normal termination of Gaussian 09 at Wed Aug 26 21:23:02 2020.
