 Gaussian 09, Revision D.01,
 Gaussian 09:  ES64L-G09RevD.01 24-Apr-2013

 --------------------
 #p B2PLYPD3/Def2QZVP
 --------------------

 ------------
 cyanomethane
 ------------
 Symbolic Z-matrix:
 Charge =  0 Multiplicity = 1

                         Standard orientation:
 ---------------------------------------------------------------------
 Center     Atomic      Atomic             Coordinates (Angstroms)
 Number     Number       Type             X           Y           Z
 ---------------------------------------------------------------------
      1          6           0        1.177162   -0.004705   -0.000114
      2          6           0       -0.281300   -0.008657   -0.016733
      3          7           0       -1.438914    0.008027    0.008563
      4          1           0        1.540375   -0.700946   -0.715048
      5          1           0        1.551040   -0.275580    0.986714
      6          1           0        1.605813    1.000507   -0.230528
 ---------------------------------------------------------------------

 SCF Done:  E(RB2PLYPD3) =  -132.534207935     A.U. after   12 cycles
 E2(B2PLYPD3) =    -0.1808047750D+00 E(B2PLYPD3) =    -0.13271501270961D+03

 The electronic state is 1-A.
 Alpha  occ. eigenvalues --  -14.84363 -10.67127 -10.66439  -1.04017  -0.89182
 Alpha  occ. eigenvalues --   -0.60025  -0.54415  -0.53065  -0.44866  -0.39090
 Alpha  occ. eigenvalues --   -0.38951
 Alpha virt. eigenvalues --    0.03719   0.07475   0.08108   0.10170   0.11304
 Alpha virt. eigenvalues --    0.11550   0.15420   0.16262   0.16665   0.20052
 Alpha virt. eigenvalues --    0.20145   0.25344   0.32632   0.34373   0.34957

 Mulliken charges:
               1
     1  C   -0.078453
     2  C    0.000230
     3  N   -0.207140
     4  H    0.097723
     5  H    0.095166
     6  H    0.092473
 Sum of Mulliken charges =   0.00000

 Dipole moment (field-independent basis, Debye):
    X=              4.1385    Y=             -0.0195    Z=             -0.0063  Tot=              4.1385
 Quadrupole moment (field-independent basis, Debye-Ang):
   XX=            -20.8969   YY=            -17.7994   ZZ=            -17.7965
   XY=              0.0796   XZ=              0.0576   YZ=              0.0383

 Normal termination of Gaussian 09 at Thu Aug 27 00:03:52 2020.
