 Gaussian 09, Revision D.01,
 Gaussian 09:  ES64L-G09RevD.01 24-Apr-2013

 --------------------
 #p B2PLYPD3/Def2QZVP
 --------------------

 ------------
 cyanomethane
 ------------
 Symbolic Z-matrix:
 Charge =  0 Multiplicity = 1

                         Standard orientation:
 ---------------------------------------------------------------------
 Center     Atomic      Atomic             Coordinates (Angstroms)
 Number     Number       Type             X           Y           Z
 ---------------------------------------------------------------------
      1          6           0        1.161701   -0.015683   -0.028766
      2          6           0       -0.292684   -0.020988    0.056651
      3          7           0       -1.410775    0.018381   -0.026481
      4          1           0        1.623775    1.066555   -0.115987
      5          1           0        1.504953   -0.604748   -0.773367
      6          1           0        1.532592   -0.370450    0.907415
 ---------------------------------------------------------------------

 SCF Done:  E(RB2PLYPD3) =  -132.524779703     A.U. after   11 cycles
 E2(B2PLYPD3) =    -0.1779079283D+00 E(B2PLYPD3) =    -0.13270268763146D+03

 The electronic state is 1-A.
 Alpha  occ. eigenvalues --  -14.83316 -10.66752 -10.65266  -1.05504  -0.89336
 Alpha  occ. eigenvalues --   -0.59984  -0.55324  -0.52072  -0.44741  -0.40122
 Alpha  occ. eigenvalues --   -0.39598
 Alpha virt. eigenvalues --    0.03564   0.07798   0.09057   0.10145   0.11661
 Alpha virt. eigenvalues --    0.12033   0.15576   0.15831   0.17690   0.19850
 Alpha virt. eigenvalues --    0.20025   0.25728   0.32499   0.33843   0.35843

 Mulliken charges:
               1
     1  C   -0.085420
     2  C   -0.004788
     3  N   -0.187249
     4  H    0.087249
     5  H    0.101239
     6  H    0.088968
 Sum of Mulliken charges =   0.00000

 Dipole moment (field-independent basis, Debye):
    X=              4.0482    Y=             -0.0680    Z=              0.0774  Tot=              4.0495
 Quadrupole moment (field-independent basis, Debye-Ang):
   XX=            -20.8717   YY=            -17.6189   ZZ=            -17.7025
   XY=              0.1286   XZ=             -0.0784   YZ=              0.1063

 Normal termination of Gaussian 09 at Wed Aug 26 16:35:49 2020.
