 Gaussian 09, Revision D.01,
 Gaussian 09:  ES64L-G09RevD.01 24-Apr-2013

 --------------------
 #p B2PLYPD3/Def2QZVP
 --------------------

 ------------
 cyanomethane
 ------------
 Symbolic Z-matrix:
 Charge =  0 Multiplicity = 1

                         Standard orientation:
 ---------------------------------------------------------------------
 Center     Atomic      Atomic             Coordinates (Angstroms)
 Number     Number       Type             X           Y           Z
 ---------------------------------------------------------------------
      1          6           0        1.168369    0.005601    0.006003
      2          6           0       -0.276276    0.005183   -0.011440
      3          7           0       -1.433006   -0.004632    0.002886
      4          1           0        1.546136    1.016704   -0.108523
      5          1           0        1.597159   -0.624854   -0.806440
      6          1           0        1.535191   -0.424123    0.927384
 ---------------------------------------------------------------------

 SCF Done:  E(RB2PLYPD3) =  -132.534751471     A.U. after   11 cycles
 E2(B2PLYPD3) =    -0.1807427474D+00 E(B2PLYPD3) =    -0.13271549421875D+03

 The electronic state is 1-A.
 Alpha  occ. eigenvalues --  -14.84289 -10.67104 -10.66319  -1.04081  -0.89331
 Alpha  occ. eigenvalues --   -0.60169  -0.54366  -0.53131  -0.44859  -0.39038
 Alpha  occ. eigenvalues --   -0.38882
 Alpha virt. eigenvalues --    0.03744   0.07514   0.07885   0.10150   0.11410
 Alpha virt. eigenvalues --    0.11637   0.15495   0.16398   0.16499   0.20066
 Alpha virt. eigenvalues --    0.20142   0.25585   0.32755   0.34348   0.34874

 Mulliken charges:
               1
     1  C   -0.079385
     2  C    0.000355
     3  N   -0.206988
     4  H    0.097866
     5  H    0.091775
     6  H    0.096376
 Sum of Mulliken charges =   0.00000

 Dipole moment (field-independent basis, Debye):
    X=              4.1305    Y=             -0.0039    Z=              0.0050  Tot=              4.1305
 Quadrupole moment (field-independent basis, Debye-Ang):
   XX=            -20.9262   YY=            -17.7066   ZZ=            -17.8543
   XY=             -0.0766   XZ=             -0.0072   YZ=             -0.0342

 Normal termination of Gaussian 09 at Thu Aug 27 00:01:39 2020.
