 Gaussian 09, Revision D.01,
 Gaussian 09:  ES64L-G09RevD.01 24-Apr-2013

 --------------------
 #p B2PLYPD3/Def2QZVP
 --------------------

 ------------
 cyanomethane
 ------------
 Symbolic Z-matrix:
 Charge =  0 Multiplicity = 1

                         Standard orientation:
 ---------------------------------------------------------------------
 Center     Atomic      Atomic             Coordinates (Angstroms)
 Number     Number       Type             X           Y           Z
 ---------------------------------------------------------------------
      1          6           0        1.185580   -0.007202    0.001831
      2          6           0       -0.282234    0.011043   -0.015490
      3          7           0       -1.434434   -0.001798    0.007306
      4          1           0        1.508942   -0.861861   -0.563160
      5          1           0        1.528531   -0.076212    1.031198
      6          1           0        1.583485    0.927614   -0.437228
 ---------------------------------------------------------------------

 SCF Done:  E(RB2PLYPD3) =  -132.535352895     A.U. after   11 cycles
 E2(B2PLYPD3) =    -0.1802720088D+00 E(B2PLYPD3) =    -0.13271562490422D+03

 The electronic state is 1-A.
 Alpha  occ. eigenvalues --  -14.84086 -10.67249 -10.66172  -1.04138  -0.89080
 Alpha  occ. eigenvalues --   -0.59186  -0.54491  -0.53584  -0.44705  -0.39162
 Alpha  occ. eigenvalues --   -0.39081
 Alpha virt. eigenvalues --    0.03751   0.07896   0.08240   0.10208   0.11359
 Alpha virt. eigenvalues --    0.11481   0.15286   0.16152   0.16286   0.20060
 Alpha virt. eigenvalues --    0.20098   0.25151   0.32584   0.34453   0.34819

 Mulliken charges:
               1
     1  C   -0.090108
     2  C   -0.003374
     3  N   -0.205349
     4  H    0.102045
     5  H    0.099659
     6  H    0.097128
 Sum of Mulliken charges =   0.00000

 Dipole moment (field-independent basis, Debye):
    X=              4.1225    Y=             -0.0019    Z=             -0.0028  Tot=              4.1225
 Quadrupole moment (field-independent basis, Debye-Ang):
   XX=            -21.1025   YY=            -17.6992   ZZ=            -17.7442
   XY=              0.0393   XZ=              0.0484   YZ=              0.0313

 Normal termination of Gaussian 09 at Thu Aug 27 00:14:11 2020.
