 Gaussian 09, Revision D.01,
 Gaussian 09:  ES64L-G09RevD.01 24-Apr-2013

 --------------------
 #p B2PLYPD3/Def2QZVP
 --------------------

 ------------
 cyanomethane
 ------------
 Symbolic Z-matrix:
 Charge =  0 Multiplicity = 1

                         Standard orientation:
 ---------------------------------------------------------------------
 Center     Atomic      Atomic             Coordinates (Angstroms)
 Number     Number       Type             X           Y           Z
 ---------------------------------------------------------------------
      1          6           0        1.171865    0.010530    0.000686
      2          6           0       -0.272270    0.001163   -0.011464
      3          7           0       -1.432912   -0.003814    0.003702
      4          1           0        1.517713    1.038166   -0.015186
      5          1           0        1.584198   -0.566165   -0.861898
      6          1           0        1.530896   -0.515459    0.915834
 ---------------------------------------------------------------------

 SCF Done:  E(RB2PLYPD3) =  -132.533593156     A.U. after   11 cycles
 E2(B2PLYPD3) =    -0.1812128808D+00 E(B2PLYPD3) =    -0.13271480603686D+03

 The electronic state is 1-A.
 Alpha  occ. eigenvalues --  -14.84320 -10.67501 -10.66357  -1.03879  -0.89174
 Alpha  occ. eigenvalues --   -0.59609  -0.54524  -0.52983  -0.44794  -0.38894
 Alpha  occ. eigenvalues --   -0.38678
 Alpha virt. eigenvalues --    0.03672   0.07367   0.07785   0.10142   0.11346
 Alpha virt. eigenvalues --    0.11640   0.15399   0.16108   0.16350   0.20083
 Alpha virt. eigenvalues --    0.20172   0.25557   0.32627   0.33895   0.34752

 Mulliken charges:
               1
     1  C   -0.090601
     2  C    0.000292
     3  N   -0.209245
     4  H    0.104142
     5  H    0.097191
     6  H    0.098221
 Sum of Mulliken charges =   0.00000

 Dipole moment (field-independent basis, Debye):
    X=              4.1241    Y=             -0.0064    Z=              0.0014  Tot=              4.1241
 Quadrupole moment (field-independent basis, Debye-Ang):
   XX=            -21.1119   YY=            -17.6569   ZZ=            -17.8630
   XY=             -0.0909   XZ=             -0.0031   YZ=             -0.0033

 Normal termination of Gaussian 09 at Wed Aug 26 10:09:08 2020.
