 Gaussian 09, Revision D.01,
 Gaussian 09:  ES64L-G09RevD.01 24-Apr-2013

 --------------------
 #p B2PLYPD3/Def2QZVP
 --------------------

 ------------
 cyanomethane
 ------------
 Symbolic Z-matrix:
 Charge =  0 Multiplicity = 1

                         Standard orientation:
 ---------------------------------------------------------------------
 Center     Atomic      Atomic             Coordinates (Angstroms)
 Number     Number       Type             X           Y           Z
 ---------------------------------------------------------------------
      1          6           0       -1.159803    0.017367   -0.004219
      2          6           0        0.269023    0.000380    0.032033
      3          7           0        1.434182   -0.006429   -0.012561
      4          1           0       -1.495722    0.952328   -0.227994
      5          1           0       -1.634286   -0.329968    0.900988
      6          1           0       -1.564583   -0.683849   -0.751954
 ---------------------------------------------------------------------

 SCF Done:  E(RB2PLYPD3) =  -132.529453072     A.U. after   11 cycles
 E2(B2PLYPD3) =    -0.1813206058D+00 E(B2PLYPD3) =    -0.13271077367797D+03

 The electronic state is 1-A.
 Alpha  occ. eigenvalues --  -14.84584 -10.66578 -10.66118  -1.03809  -0.90235
 Alpha  occ. eigenvalues --   -0.61306  -0.55621  -0.52842  -0.44972  -0.38937
 Alpha  occ. eigenvalues --   -0.38580
 Alpha virt. eigenvalues --    0.03801   0.07283   0.08039   0.10130   0.11234
 Alpha virt. eigenvalues --    0.11694   0.15638   0.16556   0.16677   0.20083
 Alpha virt. eigenvalues --    0.20230   0.25909   0.32948   0.34283   0.35678

 Mulliken charges:
               1
     1  C   -0.060824
     2  C    0.004232
     3  N   -0.211976
     4  H    0.096757
     5  H    0.085951
     6  H    0.085860
 Sum of Mulliken charges =   0.00000

 Dipole moment (field-independent basis, Debye):
    X=             -4.1592    Y=             -0.0019    Z=              0.0114  Tot=              4.1592
 Quadrupole moment (field-independent basis, Debye-Ang):
   XX=            -20.6957   YY=            -17.7080   ZZ=            -17.9245
   XY=              0.1436   XZ=              0.0202   YZ=             -0.0517

 Normal termination of Gaussian 09 at Wed Aug 26 11:43:50 2020.
