 Gaussian 09, Revision D.01,
 Gaussian 09:  ES64L-G09RevD.01 24-Apr-2013

 --------------------
 #p B2PLYPD3/Def2QZVP
 --------------------

 ------------
 cyanomethane
 ------------
 Symbolic Z-matrix:
 Charge =  0 Multiplicity = 1

                         Standard orientation:
 ---------------------------------------------------------------------
 Center     Atomic      Atomic             Coordinates (Angstroms)
 Number     Number       Type             X           Y           Z
 ---------------------------------------------------------------------
      1          6           0        1.174815   -0.004447   -0.000634
      2          6           0       -0.281247    0.002915   -0.023070
      3          7           0       -1.442100   -0.004374    0.008502
      4          1           0        1.537518    1.055270   -0.055039
      5          1           0        1.648363   -0.584933   -0.764469
      6          1           0        1.547411   -0.430530    0.902224
 ---------------------------------------------------------------------

 SCF Done:  E(RB2PLYPD3) =  -132.532483313     A.U. after   12 cycles
 E2(B2PLYPD3) =    -0.1811166357D+00 E(B2PLYPD3) =    -0.13271359994874D+03

 The electronic state is 1-A.
 Alpha  occ. eigenvalues --  -14.84511 -10.66992 -10.66616  -1.03931  -0.89287
 Alpha  occ. eigenvalues --   -0.60754  -0.53615  -0.53439  -0.44941  -0.39007
 Alpha  occ. eigenvalues --   -0.38919
 Alpha virt. eigenvalues --    0.03739   0.07609   0.07712   0.10156   0.11346
 Alpha virt. eigenvalues --    0.11537   0.15395   0.16352   0.16893   0.20066
 Alpha virt. eigenvalues --    0.20170   0.25398   0.32568   0.34306   0.35062

 Mulliken charges:
               1
     1  C   -0.071558
     2  C    0.004102
     3  N   -0.208834
     4  H    0.093031
     5  H    0.091347
     6  H    0.091912
 Sum of Mulliken charges =   0.00000

 Dipole moment (field-independent basis, Debye):
    X=              4.1520    Y=             -0.0214    Z=              0.0107  Tot=              4.1521
 Quadrupole moment (field-independent basis, Debye-Ang):
   XX=            -20.7746   YY=            -17.6973   ZZ=            -17.9882
   XY=             -0.1475   XZ=              0.0400   YZ=              0.0033

 Normal termination of Gaussian 09 at Wed Aug 26 10:55:51 2020.
