 Gaussian 09, Revision D.01,
 Gaussian 09:  ES64L-G09RevD.01 24-Apr-2013

 --------------------
 #p B2PLYPD3/Def2QZVP
 --------------------

 ------------
 cyanomethane
 ------------
 Symbolic Z-matrix:
 Charge =  0 Multiplicity = 1

                         Standard orientation:
 ---------------------------------------------------------------------
 Center     Atomic      Atomic             Coordinates (Angstroms)
 Number     Number       Type             X           Y           Z
 ---------------------------------------------------------------------
      1          6           0        1.146506   -0.009709   -0.012629
      2          6           0       -0.257254    0.002572   -0.058522
      3          7           0       -1.430417    0.005717    0.036747
      4          1           0        1.628461    1.030302   -0.081984
      5          1           0        1.457655   -0.637901   -0.729797
      6          1           0        1.591289   -0.389596    0.981461
 ---------------------------------------------------------------------

 SCF Done:  E(RB2PLYPD3) =  -132.517996950     A.U. after   12 cycles
 E2(B2PLYPD3) =    -0.1829486114D+00 E(B2PLYPD3) =    -0.13270094556090D+03

 The electronic state is 1-A.
 Alpha  occ. eigenvalues --  -14.84879 -10.66907 -10.66736  -1.03479  -0.90193
 Alpha  occ. eigenvalues --   -0.61029  -0.55900  -0.51658  -0.45045  -0.38538
 Alpha  occ. eigenvalues --   -0.37979
 Alpha virt. eigenvalues --    0.03351   0.05926   0.08051   0.09924   0.11093
 Alpha virt. eigenvalues --    0.11943   0.15645   0.16148   0.16887   0.20051
 Alpha virt. eigenvalues --    0.20384   0.26341   0.32700   0.33214   0.35122

 Mulliken charges:
               1
     1  C   -0.076950
     2  C    0.006078
     3  N   -0.215573
     4  H    0.093129
     5  H    0.104891
     6  H    0.088424
 Sum of Mulliken charges =   0.00000

 Dipole moment (field-independent basis, Debye):
    X=              4.1344    Y=             -0.0266    Z=             -0.0332  Tot=              4.1347
 Quadrupole moment (field-independent basis, Debye-Ang):
   XX=            -20.8573   YY=            -17.7783   ZZ=            -17.9172
   XY=              0.0866   XZ=              0.3200   YZ=              0.1456

 Normal termination of Gaussian 09 at Wed Aug 26 21:55:26 2020.
