 Gaussian 09, Revision D.01,
 Gaussian 09:  ES64L-G09RevD.01 24-Apr-2013

 --------------------
 #p B2PLYPD3/Def2QZVP
 --------------------

 ------------
 cyanomethane
 ------------
 Symbolic Z-matrix:
 Charge =  0 Multiplicity = 1

                         Standard orientation:
 ---------------------------------------------------------------------
 Center     Atomic      Atomic             Coordinates (Angstroms)
 Number     Number       Type             X           Y           Z
 ---------------------------------------------------------------------
      1          6           0       -1.180175   -0.010324   -0.002825
      2          6           0        0.280337    0.021002   -0.006324
      3          7           0        1.427818   -0.010294    0.003579
      4          1           0       -1.531752   -0.052374    0.993814
      5          1           0       -1.535837   -0.838152   -0.529218
      6          1           0       -1.528109    0.898519   -0.434755
 ---------------------------------------------------------------------

 SCF Done:  E(RB2PLYPD3) =  -132.534342085     A.U. after   11 cycles
 E2(B2PLYPD3) =    -0.1794672482D+00 E(B2PLYPD3) =    -0.13271380933346D+03

 The electronic state is 1-A.
 Alpha  occ. eigenvalues --  -14.83941 -10.66082 -10.65971  -1.04343  -0.89972
 Alpha  occ. eigenvalues --   -0.59831  -0.55157  -0.54381  -0.44705  -0.39347
 Alpha  occ. eigenvalues --   -0.39219
 Alpha virt. eigenvalues --    0.03929   0.08449   0.08555   0.10203   0.11362
 Alpha virt. eigenvalues --    0.11500   0.15479   0.16049   0.16620   0.20046
 Alpha virt. eigenvalues --    0.20104   0.25316   0.33029   0.34905   0.35447

 Mulliken charges:
               1
     1  C   -0.074952
     2  C   -0.004344
     3  N   -0.204122
     4  H    0.092990
     5  H    0.096766
     6  H    0.093662
 Sum of Mulliken charges =   0.00000

 Dipole moment (field-independent basis, Debye):
    X=             -4.1255    Y=              0.0186    Z=              0.0055  Tot=              4.1255
 Quadrupole moment (field-independent basis, Debye-Ang):
   XX=            -20.9478   YY=            -17.6236   ZZ=            -17.7220
   XY=              0.0543   XZ=             -0.0467   YZ=              0.0226

 Normal termination of Gaussian 09 at Thu Aug 27 00:11:52 2020.
