 Gaussian 09, Revision D.01,
 Gaussian 09:  ES64L-G09RevD.01 24-Apr-2013

 --------------------
 #p B2PLYPD3/Def2QZVP
 --------------------

 ------------
 cyanomethane
 ------------
 Symbolic Z-matrix:
 Charge =  0 Multiplicity = 1

                         Standard orientation:
 ---------------------------------------------------------------------
 Center     Atomic      Atomic             Coordinates (Angstroms)
 Number     Number       Type             X           Y           Z
 ---------------------------------------------------------------------
      1          6           0       -1.160453    0.006876    0.001901
      2          6           0        0.272584   -0.001978    0.029525
      3          7           0        1.430575   -0.003042   -0.018876
      4          1           0       -1.525109    1.045003   -0.157722
      5          1           0       -1.538726   -0.401700    0.923809
      6          1           0       -1.622977   -0.651400   -0.822512
 ---------------------------------------------------------------------

 SCF Done:  E(RB2PLYPD3) =  -132.530954440     A.U. after   12 cycles
 E2(B2PLYPD3) =    -0.1812714071D+00 E(B2PLYPD3) =    -0.13271222584758D+03

 The electronic state is 1-A.
 Alpha  occ. eigenvalues --  -14.84363 -10.67575 -10.66348  -1.04041  -0.89160
 Alpha  occ. eigenvalues --   -0.60117  -0.54360  -0.52376  -0.44900  -0.38918
 Alpha  occ. eigenvalues --   -0.38680
 Alpha virt. eigenvalues --    0.03548   0.06879   0.07845   0.10093   0.11430
 Alpha virt. eigenvalues --    0.11774   0.15528   0.16051   0.16817   0.20054
 Alpha virt. eigenvalues --    0.20187   0.25816   0.32678   0.33800   0.34602

 Mulliken charges:
               1
     1  C   -0.085939
     2  C    0.002327
     3  N   -0.207384
     4  H    0.100192
     5  H    0.098631
     6  H    0.092173
 Sum of Mulliken charges =   0.00000

 Dipole moment (field-independent basis, Debye):
    X=             -4.1165    Y=             -0.0047    Z=              0.0409  Tot=              4.1167
 Quadrupole moment (field-independent basis, Debye-Ang):
   XX=            -20.9758   YY=            -17.7129   ZZ=            -17.8914
   XY=              0.1029   XZ=              0.1296   YZ=             -0.0660

 Normal termination of Gaussian 09 at Wed Aug 26 10:40:12 2020.
