 Gaussian 09, Revision D.01,
 Gaussian 09:  ES64L-G09RevD.01 24-Apr-2013

 --------------------
 #p B2PLYPD3/Def2QZVP
 --------------------

 ------------
 cyanomethane
 ------------
 Symbolic Z-matrix:
 Charge =  0 Multiplicity = 1

                         Standard orientation:
 ---------------------------------------------------------------------
 Center     Atomic      Atomic             Coordinates (Angstroms)
 Number     Number       Type             X           Y           Z
 ---------------------------------------------------------------------
      1          6           0        1.167758   -0.003806    0.009267
      2          6           0       -0.271016    0.002403   -0.024571
      3          7           0       -1.432602    0.001344    0.008321
      4          1           0        1.594651    0.955407   -0.346173
      5          1           0        1.557101   -0.797097   -0.614183
      6          1           0        1.496010   -0.159307    0.993929
 ---------------------------------------------------------------------

 SCF Done:  E(RB2PLYPD3) =  -132.533665641     A.U. after   11 cycles
 E2(B2PLYPD3) =    -0.1810112714D+00 E(B2PLYPD3) =    -0.13271467691265D+03

 The electronic state is 1-A.
 Alpha  occ. eigenvalues --  -14.84398 -10.66649 -10.66406  -1.03880  -0.89789
 Alpha  occ. eigenvalues --   -0.60366  -0.54634  -0.53690  -0.44858  -0.38869
 Alpha  occ. eigenvalues --   -0.38796
 Alpha virt. eigenvalues --    0.03807   0.07550   0.07951   0.10140   0.11424
 Alpha virt. eigenvalues --    0.11489   0.15558   0.16257   0.16486   0.20125
 Alpha virt. eigenvalues --    0.20146   0.25707   0.32774   0.34547   0.35071

 Mulliken charges:
               1
     1  C   -0.075678
     2  C    0.000881
     3  N   -0.210259
     4  H    0.092509
     5  H    0.094535
     6  H    0.098013
 Sum of Mulliken charges =   0.00000

 Dipole moment (field-independent basis, Debye):
    X=              4.1383    Y=             -0.0118    Z=              0.0049  Tot=              4.1383
 Quadrupole moment (field-independent basis, Debye-Ang):
   XX=            -20.9214   YY=            -17.7477   ZZ=            -17.7830
   XY=              0.0235   XZ=              0.0191   YZ=              0.0068

 Normal termination of Gaussian 09 at Thu Aug 27 00:08:12 2020.
