 Gaussian 09, Revision D.01,
 Gaussian 09:  ES64L-G09RevD.01 24-Apr-2013

 --------------------
 #p B2PLYPD3/Def2QZVP
 --------------------

 ------------
 cyanomethane
 ------------
 Symbolic Z-matrix:
 Charge =  0 Multiplicity = 1

                         Standard orientation:
 ---------------------------------------------------------------------
 Center     Atomic      Atomic             Coordinates (Angstroms)
 Number     Number       Type             X           Y           Z
 ---------------------------------------------------------------------
      1          6           0        1.184573    0.026504   -0.014146
      2          6           0       -0.283485   -0.008437   -0.060531
      3          7           0       -1.451571   -0.007596    0.029324
      4          1           0        1.469042    1.094202    0.092495
      5          1           0        1.694061   -0.566427   -0.774352
      6          1           0        1.591369   -0.583005    0.924652
 ---------------------------------------------------------------------

 SCF Done:  E(RB2PLYPD3) =  -132.521446857     A.U. after   12 cycles
 E2(B2PLYPD3) =    -0.1828997663D+00 E(B2PLYPD3) =    -0.13270434662331D+03

 The electronic state is 1-A.
 Alpha  occ. eigenvalues --  -14.84824 -10.68546 -10.67002  -1.03503  -0.88200
 Alpha  occ. eigenvalues --   -0.59972  -0.54823  -0.50390  -0.44949  -0.38948
 Alpha  occ. eigenvalues --   -0.38238
 Alpha virt. eigenvalues --    0.03179   0.06546   0.07553   0.10173   0.10863
 Alpha virt. eigenvalues --    0.11798   0.15002   0.16048   0.16999   0.19952
 Alpha virt. eigenvalues --    0.20261   0.25274   0.31924   0.32357   0.35057

 Mulliken charges:
               1
     1  C   -0.090087
     2  C    0.008310
     3  N   -0.211927
     4  H    0.109042
     5  H    0.098370
     6  H    0.086291
 Sum of Mulliken charges =   0.00000

 Dipole moment (field-independent basis, Debye):
    X=              4.1503    Y=             -0.0346    Z=             -0.0249  Tot=              4.1505
 Quadrupole moment (field-independent basis, Debye-Ang):
   XX=            -20.9656   YY=            -17.5570   ZZ=            -18.3115
   XY=             -0.3459   XZ=              0.1426   YZ=              0.1073

 Normal termination of Gaussian 09 at Wed Aug 26 22:13:18 2020.
