 Gaussian 09, Revision D.01,
 Gaussian 09:  ES64L-G09RevD.01 24-Apr-2013

 --------------------
 #p B2PLYPD3/Def2QZVP
 --------------------

 ------------
 cyanomethane
 ------------
 Symbolic Z-matrix:
 Charge =  0 Multiplicity = 1

                         Standard orientation:
 ---------------------------------------------------------------------
 Center     Atomic      Atomic             Coordinates (Angstroms)
 Number     Number       Type             X           Y           Z
 ---------------------------------------------------------------------
      1          6           0        1.186671    0.002052    0.000953
      2          6           0       -0.277775    0.017978    0.005857
      3          7           0       -1.437707   -0.012001   -0.005602
      4          1           0        1.505081    1.026549   -0.007929
      5          1           0        1.581669   -0.537211   -0.882474
      6          1           0        1.523818   -0.525507    0.888759
 ---------------------------------------------------------------------

 SCF Done:  E(RB2PLYPD3) =  -132.534111270     A.U. after   12 cycles
 E2(B2PLYPD3) =    -0.1809723772D+00 E(B2PLYPD3) =    -0.13271508364717D+03

 The electronic state is 1-A.
 Alpha  occ. eigenvalues --  -14.84299 -10.67237 -10.66386  -1.03827  -0.89205
 Alpha  occ. eigenvalues --   -0.59242  -0.54801  -0.53441  -0.44727  -0.38962
 Alpha  occ. eigenvalues --   -0.38853
 Alpha virt. eigenvalues --    0.03723   0.07631   0.08239   0.10172   0.11216
 Alpha virt. eigenvalues --    0.11456   0.15282   0.15887   0.16409   0.20084
 Alpha virt. eigenvalues --    0.20159   0.25199   0.32572   0.34331   0.34824

 Mulliken charges:
               1
     1  C   -0.090158
     2  C   -0.001953
     3  N   -0.209371
     4  H    0.103028
     5  H    0.097840
     6  H    0.100614
 Sum of Mulliken charges =   0.00000

 Dipole moment (field-independent basis, Debye):
    X=              4.1320    Y=              0.0104    Z=              0.0114  Tot=              4.1320
 Quadrupole moment (field-independent basis, Debye-Ang):
   XX=            -21.1304   YY=            -17.6729   ZZ=            -17.8046
   XY=             -0.1244   XZ=             -0.0663   YZ=             -0.0209

 Normal termination of Gaussian 09 at Wed Aug 26 22:01:58 2020.
