 Gaussian 09, Revision D.01,
 Gaussian 09:  ES64L-G09RevD.01 24-Apr-2013

 --------------------
 #p B2PLYPD3/Def2QZVP
 --------------------

 ------------
 cyanomethane
 ------------
 Symbolic Z-matrix:
 Charge =  0 Multiplicity = 1

                         Standard orientation:
 ---------------------------------------------------------------------
 Center     Atomic      Atomic             Coordinates (Angstroms)
 Number     Number       Type             X           Y           Z
 ---------------------------------------------------------------------
      1          6           0        1.165182   -0.006083   -0.012261
      2          6           0       -0.283383   -0.058359    0.019507
      3          7           0       -1.413649    0.026673   -0.003131
      4          1           0        1.617890    0.076798    0.961929
      5          1           0        1.437786    0.968361   -0.495248
      6          1           0        1.549076   -0.845217   -0.488244
 ---------------------------------------------------------------------

 SCF Done:  E(RB2PLYPD3) =  -132.532066967     A.U. after   11 cycles
 E2(B2PLYPD3) =    -0.1786833986D+00 E(B2PLYPD3) =    -0.13271075036560D+03

 The electronic state is 1-A.
 Alpha  occ. eigenvalues --  -14.83540 -10.66610 -10.65529  -1.04968  -0.89539
 Alpha  occ. eigenvalues --   -0.59976  -0.55551  -0.52610  -0.44691  -0.39736
 Alpha  occ. eigenvalues --   -0.39260
 Alpha virt. eigenvalues --    0.03706   0.07960   0.08781   0.10240   0.11418
 Alpha virt. eigenvalues --    0.12073   0.15388   0.16438   0.16638   0.19864
 Alpha virt. eigenvalues --    0.20097   0.25707   0.33266   0.33765   0.35556

 Mulliken charges:
               1
     1  C   -0.083142
     2  C   -0.003524
     3  N   -0.195965
     4  H    0.087633
     5  H    0.095686
     6  H    0.099311
 Sum of Mulliken charges =   0.00000

 Dipole moment (field-independent basis, Debye):
    X=              4.0825    Y=             -0.0232    Z=              0.0343  Tot=              4.0827
 Quadrupole moment (field-independent basis, Debye-Ang):
   XX=            -20.9446   YY=            -17.4560   ZZ=            -17.8721
   XY=              0.1192   XZ=              0.1461   YZ=              0.0796

 Normal termination of Gaussian 09 at Wed Aug 26 23:43:38 2020.
