 Gaussian 09, Revision D.01,
 Gaussian 09:  ES64L-G09RevD.01 24-Apr-2013

 --------------------
 #p B2PLYPD3/Def2QZVP
 --------------------

 ------------
 cyanomethane
 ------------
 Symbolic Z-matrix:
 Charge =  0 Multiplicity = 1

                         Standard orientation:
 ---------------------------------------------------------------------
 Center     Atomic      Atomic             Coordinates (Angstroms)
 Number     Number       Type             X           Y           Z
 ---------------------------------------------------------------------
      1          6           0       -1.178153   -0.001944   -0.007589
      2          6           0        0.280946    0.020904   -0.004052
      3          7           0        1.428595   -0.009122    0.005190
      4          1           0       -1.568826   -0.080273    1.013619
      5          1           0       -1.503187   -0.881687   -0.544128
      6          1           0       -1.544910    0.912051   -0.435977
 ---------------------------------------------------------------------

 SCF Done:  E(RB2PLYPD3) =  -132.535701965     A.U. after   11 cycles
 E2(B2PLYPD3) =    -0.1798275028D+00 E(B2PLYPD3) =    -0.13271552946765D+03

 The electronic state is 1-A.
 Alpha  occ. eigenvalues --  -14.83955 -10.66946 -10.66001  -1.04340  -0.89332
 Alpha  occ. eigenvalues --   -0.59490  -0.54870  -0.53407  -0.44712  -0.39293
 Alpha  occ. eigenvalues --   -0.39118
 Alpha virt. eigenvalues --    0.03789   0.07965   0.08347   0.10202   0.11373
 Alpha virt. eigenvalues --    0.11644   0.15385   0.16276   0.16346   0.20013
 Alpha virt. eigenvalues --    0.20117   0.25328   0.32847   0.34380   0.35068

 Mulliken charges:
               1
     1  C   -0.085661
     2  C   -0.003726
     3  N   -0.203367
     4  H    0.093468
     5  H    0.099983
     6  H    0.099303
 Sum of Mulliken charges =   0.00000

 Dipole moment (field-independent basis, Debye):
    X=             -4.1152    Y=              0.0075    Z=              0.0058  Tot=              4.1152
 Quadrupole moment (field-independent basis, Debye-Ang):
   XX=            -21.0454   YY=            -17.5956   ZZ=            -17.8109
   XY=              0.0354   XZ=             -0.1050   YZ=              0.0007

 Normal termination of Gaussian 09 at Wed Aug 26 22:57:43 2020.
