 Gaussian 09, Revision D.01,
 Gaussian 09:  ES64L-G09RevD.01 24-Apr-2013

 --------------------
 #p B2PLYPD3/Def2QZVP
 --------------------

 ------------
 cyanomethane
 ------------
 Symbolic Z-matrix:
 Charge =  0 Multiplicity = 1

                         Standard orientation:
 ---------------------------------------------------------------------
 Center     Atomic      Atomic             Coordinates (Angstroms)
 Number     Number       Type             X           Y           Z
 ---------------------------------------------------------------------
      1          6           0        1.171185    0.012784   -0.010145
      2          6           0       -0.282292   -0.033427    0.000634
      3          7           0       -1.424893    0.018320   -0.000526
      4          1           0        1.577622    1.014193   -0.168171
      5          1           0        1.542378   -0.679358   -0.732587
      6          1           0        1.520894   -0.339215    0.961508
 ---------------------------------------------------------------------

 SCF Done:  E(RB2PLYPD3) =  -132.535191519     A.U. after   12 cycles
 E2(B2PLYPD3) =    -0.1795244601D+00 E(B2PLYPD3) =    -0.13271471597934D+03

 The electronic state is 1-A.
 Alpha  occ. eigenvalues --  -14.83875 -10.66843 -10.65896  -1.04559  -0.89377
 Alpha  occ. eigenvalues --   -0.59800  -0.54499  -0.53485  -0.44756  -0.39418
 Alpha  occ. eigenvalues --   -0.39194
 Alpha virt. eigenvalues --    0.03767   0.07895   0.08434   0.10155   0.11476
 Alpha virt. eigenvalues --    0.11722   0.15505   0.15828   0.17089   0.20022
 Alpha virt. eigenvalues --    0.20092   0.25534   0.33025   0.34300   0.35141

 Mulliken charges:
               1
     1  C   -0.082230
     2  C   -0.002622
     3  N   -0.200932
     4  H    0.098212
     5  H    0.095907
     6  H    0.091665
 Sum of Mulliken charges =   0.00000

 Dipole moment (field-independent basis, Debye):
    X=              4.1070    Y=             -0.0471    Z=              0.0184  Tot=              4.1073
 Quadrupole moment (field-independent basis, Debye-Ang):
   XX=            -20.9558   YY=            -17.6088   ZZ=            -17.8100
   XY=              0.0914   XZ=              0.0195   YZ=              0.0243

 Normal termination of Gaussian 09 at Wed Aug 26 16:15:50 2020.
