 Gaussian 09, Revision D.01,
 Gaussian 09:  ES64L-G09RevD.01 24-Apr-2013

 --------------------
 #p B2PLYPD3/Def2QZVP
 --------------------

 ------------
 cyanomethane
 ------------
 Symbolic Z-matrix:
 Charge =  0 Multiplicity = 1

                         Standard orientation:
 ---------------------------------------------------------------------
 Center     Atomic      Atomic             Coordinates (Angstroms)
 Number     Number       Type             X           Y           Z
 ---------------------------------------------------------------------
      1          6           0        1.193960    0.000799   -0.004991
      2          6           0       -0.286296   -0.026593    0.008341
      3          7           0       -1.438482    0.014552   -0.007372
      4          1           0        1.564444    0.985987   -0.286420
      5          1           0        1.567667   -0.731871   -0.656707
      6          1           0        1.491276   -0.201218    0.974630
 ---------------------------------------------------------------------

 SCF Done:  E(RB2PLYPD3) =  -132.533181415     A.U. after   12 cycles
 E2(B2PLYPD3) =    -0.1800067150D+00 E(B2PLYPD3) =    -0.13271318813012D+03

 The electronic state is 1-A.
 Alpha  occ. eigenvalues --  -14.84133 -10.66484 -10.66239  -1.04107  -0.89562
 Alpha  occ. eigenvalues --   -0.59409  -0.55036  -0.54109  -0.44710  -0.39293
 Alpha  occ. eigenvalues --   -0.39178
 Alpha virt. eigenvalues --    0.03826   0.08127   0.08769   0.10230   0.11200
 Alpha virt. eigenvalues --    0.11361   0.15291   0.15825   0.16763   0.20065
 Alpha virt. eigenvalues --    0.20101   0.24949   0.32688   0.34792   0.35383

 Mulliken charges:
               1
     1  C   -0.079423
     2  C   -0.004017
     3  N   -0.205919
     4  H    0.095450
     5  H    0.097057
     6  H    0.096852
 Sum of Mulliken charges =   0.00000

 Dipole moment (field-independent basis, Debye):
    X=              4.1417    Y=             -0.0267    Z=              0.0290  Tot=              4.1419
 Quadrupole moment (field-independent basis, Debye-Ang):
   XX=            -20.9632   YY=            -17.6813   ZZ=            -17.7500
   XY=              0.0782   XZ=             -0.0587   YZ=              0.0222

 Normal termination of Gaussian 09 at Wed Aug 26 15:24:01 2020.
