 Gaussian 09, Revision D.01,
 Gaussian 09:  ES64L-G09RevD.01 24-Apr-2013

 --------------------
 #p B2PLYPD3/Def2QZVP
 --------------------

 ------------
 cyanomethane
 ------------
 Symbolic Z-matrix:
 Charge =  0 Multiplicity = 1

                         Standard orientation:
 ---------------------------------------------------------------------
 Center     Atomic      Atomic             Coordinates (Angstroms)
 Number     Number       Type             X           Y           Z
 ---------------------------------------------------------------------
      1          6           0        1.164051   -0.028165    0.027498
      2          6           0       -0.276363   -0.028414    0.001555
      3          7           0       -1.429337    0.027842   -0.004777
      4          1           0        1.690058    1.029037   -0.316710
      5          1           0        1.472922   -0.694371   -0.724132
      6          1           0        1.516254   -0.190082    0.899967
 ---------------------------------------------------------------------

 SCF Done:  E(RB2PLYPD3) =  -132.508555204     A.U. after   12 cycles
 E2(B2PLYPD3) =    -0.1806482613D+00 E(B2PLYPD3) =    -0.13268920346530D+03

 The electronic state is 1-A.
 Alpha  occ. eigenvalues --  -14.84304 -10.66470 -10.66273  -1.04285  -0.90249
 Alpha  occ. eigenvalues --   -0.61205  -0.56987  -0.50920  -0.44933  -0.39438
 Alpha  occ. eigenvalues --   -0.38584
 Alpha virt. eigenvalues --    0.03157   0.06932   0.08979   0.10116   0.11074
 Alpha virt. eigenvalues --    0.11964   0.15561   0.16149   0.17103   0.19969
 Alpha virt. eigenvalues --    0.20240   0.25636   0.31127   0.33811   0.36114

 Mulliken charges:
               1
     1  C   -0.082908
     2  C    0.003711
     3  N   -0.205615
     4  H    0.077629
     5  H    0.099267
     6  H    0.107916
 Sum of Mulliken charges =   0.00000

 Dipole moment (field-independent basis, Debye):
    X=              4.1001    Y=             -0.0879    Z=              0.0084  Tot=              4.1011
 Quadrupole moment (field-independent basis, Debye-Ang):
   XX=            -20.8302   YY=            -17.9072   ZZ=            -17.6555
   XY=              0.2369   XZ=             -0.0418   YZ=              0.0763

 Normal termination of Gaussian 09 at Wed Aug 26 23:35:19 2020.
