 Gaussian 09, Revision D.01,
 Gaussian 09:  ES64L-G09RevD.01 24-Apr-2013

 --------------------
 #p B2PLYPD3/Def2QZVP
 --------------------

 ------------
 cyanomethane
 ------------
 Symbolic Z-matrix:
 Charge =  0 Multiplicity = 1

                         Standard orientation:
 ---------------------------------------------------------------------
 Center     Atomic      Atomic             Coordinates (Angstroms)
 Number     Number       Type             X           Y           Z
 ---------------------------------------------------------------------
      1          6           0       -1.172313   -0.018906   -0.015287
      2          6           0        0.283915    0.048719   -0.002333
      3          7           0        1.423045   -0.023888    0.000790
      4          1           0       -1.514994   -0.166954    0.999086
      5          1           0       -1.564318   -0.787326   -0.585685
      6          1           0       -1.551618    0.942619   -0.313216
 ---------------------------------------------------------------------

 SCF Done:  E(RB2PLYPD3) =  -132.533225607     A.U. after   12 cycles
 E2(B2PLYPD3) =    -0.1791341580D+00 E(B2PLYPD3) =    -0.13271235976466D+03

 The electronic state is 1-A.
 Alpha  occ. eigenvalues --  -14.83824 -10.66248 -10.65835  -1.04664  -0.89746
 Alpha  occ. eigenvalues --   -0.60218  -0.55070  -0.53536  -0.44762  -0.39575
 Alpha  occ. eigenvalues --   -0.39275
 Alpha virt. eigenvalues --    0.03863   0.08284   0.08513   0.10111   0.11423
 Alpha virt. eigenvalues --    0.11732   0.15569   0.15871   0.17210   0.19965
 Alpha virt. eigenvalues --    0.20116   0.25566   0.33127   0.34406   0.35658

 Mulliken charges:
               1
     1  C   -0.074322
     2  C   -0.002178
     3  N   -0.200045
     4  H    0.088405
     5  H    0.096945
     6  H    0.091195
 Sum of Mulliken charges =   0.00000

 Dipole moment (field-independent basis, Debye):
    X=             -4.1040    Y=              0.0351    Z=              0.0263  Tot=              4.1043
 Quadrupole moment (field-independent basis, Debye-Ang):
   XX=            -20.8752   YY=            -17.5908   ZZ=            -17.7878
   XY=              0.1422   XZ=             -0.0405   YZ=              0.0472

 Normal termination of Gaussian 09 at Wed Aug 26 12:42:34 2020.
