 Gaussian 09, Revision D.01,
 Gaussian 09:  ES64L-G09RevD.01 24-Apr-2013

 --------------------
 #p B2PLYPD3/Def2QZVP
 --------------------

 ------------
 cyanomethane
 ------------
 Symbolic Z-matrix:
 Charge =  0 Multiplicity = 1

                         Standard orientation:
 ---------------------------------------------------------------------
 Center     Atomic      Atomic             Coordinates (Angstroms)
 Number     Number       Type             X           Y           Z
 ---------------------------------------------------------------------
      1          6           0       -1.186651    0.003052   -0.004344
      2          6           0        0.276040    0.018047   -0.011008
      3          7           0        1.437542   -0.014096    0.005642
      4          1           0       -1.484722    0.894622   -0.463472
      5          1           0       -1.527338   -0.036797    1.029012
      6          1           0       -1.587071   -0.885751   -0.512926
 ---------------------------------------------------------------------

 SCF Done:  E(RB2PLYPD3) =  -132.533021968     A.U. after   12 cycles
 E2(B2PLYPD3) =    -0.1809969690D+00 E(B2PLYPD3) =    -0.13271401893696D+03

 The electronic state is 1-A.
 Alpha  occ. eigenvalues --  -14.84338 -10.66888 -10.66417  -1.03767  -0.89520
 Alpha  occ. eigenvalues --   -0.59387  -0.55282  -0.53513  -0.44731  -0.38959
 Alpha  occ. eigenvalues --   -0.38802
 Alpha virt. eigenvalues --    0.03762   0.07625   0.08430   0.10170   0.11139
 Alpha virt. eigenvalues --    0.11459   0.15313   0.15812   0.16497   0.20082
 Alpha virt. eigenvalues --    0.20187   0.25231   0.32633   0.34356   0.35123

 Mulliken charges:
               1
     1  C   -0.086295
     2  C   -0.002018
     3  N   -0.210581
     4  H    0.103421
     5  H    0.097541
     6  H    0.097933
 Sum of Mulliken charges =   0.00000

 Dipole moment (field-independent basis, Debye):
    X=             -4.1378    Y=              0.0211    Z=              0.0049  Tot=              4.1379
 Quadrupole moment (field-independent basis, Debye-Ang):
   XX=            -21.0935   YY=            -17.6706   ZZ=            -17.7940
   XY=              0.1504   XZ=             -0.0528   YZ=             -0.0418

 Normal termination of Gaussian 09 at Thu Aug 27 00:03:23 2020.
