 Gaussian 09, Revision D.01,
 Gaussian 09:  ES64L-G09RevD.01 24-Apr-2013

 --------------------
 #p B2PLYPD3/Def2QZVP
 --------------------

 ------------
 cyanomethane
 ------------
 Symbolic Z-matrix:
 Charge =  0 Multiplicity = 1

                         Standard orientation:
 ---------------------------------------------------------------------
 Center     Atomic      Atomic             Coordinates (Angstroms)
 Number     Number       Type             X           Y           Z
 ---------------------------------------------------------------------
      1          6           0       -1.177236   -0.000147   -0.012021
      2          6           0        0.287543    0.022771    0.011585
      3          7           0        1.434836   -0.013549   -0.004751
      4          1           0       -1.584683   -0.825447   -0.601515
      5          1           0       -1.549288    0.925636   -0.383070
      6          1           0       -1.571726   -0.141093    1.020456
 ---------------------------------------------------------------------

 SCF Done:  E(RB2PLYPD3) =  -132.534841175     A.U. after   12 cycles
 E2(B2PLYPD3) =    -0.1799719965D+00 E(B2PLYPD3) =    -0.13271481317131D+03

 The electronic state is 1-A.
 Alpha  occ. eigenvalues --  -14.84093 -10.67187 -10.66172  -1.04411  -0.88982
 Alpha  occ. eigenvalues --   -0.59900  -0.54311  -0.52914  -0.44832  -0.39389
 Alpha  occ. eigenvalues --   -0.39188
 Alpha virt. eigenvalues --    0.03724   0.07697   0.08257   0.10181   0.11382
 Alpha virt. eigenvalues --    0.11650   0.15415   0.16221   0.16882   0.20006
 Alpha virt. eigenvalues --    0.20091   0.25274   0.32705   0.34254   0.35097

 Mulliken charges:
               1
     1  C   -0.079614
     2  C   -0.001311
     3  N   -0.201942
     4  H    0.095184
     5  H    0.097095
     6  H    0.090588
 Sum of Mulliken charges =   0.00000

 Dipole moment (field-independent basis, Debye):
    X=             -4.1228    Y=              0.0201    Z=              0.0110  Tot=              4.1229
 Quadrupole moment (field-independent basis, Debye-Ang):
   XX=            -20.8803   YY=            -17.7236   ZZ=            -17.8280
   XY=              0.1055   XZ=              0.0124   YZ=             -0.0149

 Normal termination of Gaussian 09 at Thu Aug 27 00:14:11 2020.
