 Gaussian 09, Revision D.01,
 Gaussian 09:  ES64L-G09RevD.01 24-Apr-2013

 --------------------
 #p B2PLYPD3/Def2QZVP
 --------------------

 ------------
 cyanomethane
 ------------
 Symbolic Z-matrix:
 Charge =  0 Multiplicity = 1

                         Standard orientation:
 ---------------------------------------------------------------------
 Center     Atomic      Atomic             Coordinates (Angstroms)
 Number     Number       Type             X           Y           Z
 ---------------------------------------------------------------------
      1          6           0        1.179608    0.017977   -0.013197
      2          6           0       -0.279506    0.028419    0.012240
      3          7           0       -1.444874   -0.020209   -0.006338
      4          1           0        1.529018    1.038967    0.007466
      5          1           0        1.608706   -0.596737   -0.873911
      6          1           0        1.575778   -0.579141    0.916551
 ---------------------------------------------------------------------

 SCF Done:  E(RB2PLYPD3) =  -132.526247273     A.U. after   12 cycles
 E2(B2PLYPD3) =    -0.1822483982D+00 E(B2PLYPD3) =    -0.13270849567109D+03

 The electronic state is 1-A.
 Alpha  occ. eigenvalues --  -14.84618 -10.68446 -10.66723  -1.03677  -0.88366
 Alpha  occ. eigenvalues --   -0.59401  -0.54661  -0.51247  -0.44892  -0.38943
 Alpha  occ. eigenvalues --   -0.38420
 Alpha virt. eigenvalues --    0.03389   0.06529   0.07733   0.10101   0.11034
 Alpha virt. eigenvalues --    0.11801   0.15209   0.15986   0.16727   0.19990
 Alpha virt. eigenvalues --    0.20250   0.25317   0.32001   0.32895   0.34866

 Mulliken charges:
               1
     1  C   -0.094786
     2  C    0.003566
     3  N   -0.209702
     4  H    0.108683
     5  H    0.099376
     6  H    0.092863
 Sum of Mulliken charges =   0.00000

 Dipole moment (field-independent basis, Debye):
    X=              4.1285    Y=              0.0025    Z=              0.0108  Tot=              4.1285
 Quadrupole moment (field-independent basis, Debye-Ang):
   XX=            -21.0981   YY=            -17.6338   ZZ=            -18.0790
   XY=             -0.2389   XZ=             -0.0446   YZ=              0.0362

 Normal termination of Gaussian 09 at Wed Aug 26 13:28:48 2020.
