 Gaussian 09, Revision D.01,
 Gaussian 09:  ES64L-G09RevD.01 24-Apr-2013

 --------------------
 #p B2PLYPD3/Def2QZVP
 --------------------

 ------------
 cyanomethane
 ------------
 Symbolic Z-matrix:
 Charge =  0 Multiplicity = 1

                         Standard orientation:
 ---------------------------------------------------------------------
 Center     Atomic      Atomic             Coordinates (Angstroms)
 Number     Number       Type             X           Y           Z
 ---------------------------------------------------------------------
      1          6           0        1.172064   -0.010143    0.000363
      2          6           0       -0.283253    0.020278   -0.010602
      3          7           0       -1.426537   -0.006009    0.004878
      4          1           0        1.515791   -0.845737   -0.557688
      5          1           0        1.537780   -0.083325    1.009076
      6          1           0        1.599325    0.910313   -0.424094
 ---------------------------------------------------------------------

 SCF Done:  E(RB2PLYPD3) =  -132.535862410     A.U. after   11 cycles
 E2(B2PLYPD3) =    -0.1794081641D+00 E(B2PLYPD3) =    -0.13271527057393D+03

 The electronic state is 1-A.
 Alpha  occ. eigenvalues --  -14.83886 -10.66725 -10.65917  -1.04564  -0.89428
 Alpha  occ. eigenvalues --   -0.59920  -0.54569  -0.53532  -0.44763  -0.39405
 Alpha  occ. eigenvalues --   -0.39291
 Alpha virt. eigenvalues --    0.03830   0.08037   0.08350   0.10207   0.11521
 Alpha virt. eigenvalues --    0.11643   0.15486   0.16461   0.16507   0.20019
 Alpha virt. eigenvalues --    0.20063   0.25429   0.32897   0.34674   0.35110

 Mulliken charges:
               1
     1  C   -0.078711
     2  C   -0.003302
     3  N   -0.200770
     4  H    0.097355
     5  H    0.094156
     6  H    0.091271
 Sum of Mulliken charges =   0.00000

 Dipole moment (field-independent basis, Debye):
    X=              4.1136    Y=              0.0034    Z=              0.0021  Tot=              4.1136
 Quadrupole moment (field-independent basis, Debye-Ang):
   XX=            -20.9137   YY=            -17.6909   ZZ=            -17.7392
   XY=              0.0161   XZ=              0.0403   YZ=              0.0374

 Normal termination of Gaussian 09 at Wed Aug 26 18:42:30 2020.
