 Gaussian 09, Revision D.01,
 Gaussian 09:  ES64L-G09RevD.01 24-Apr-2013

 --------------------
 #p B2PLYPD3/Def2QZVP
 --------------------

 ------------
 cyanomethane
 ------------
 Symbolic Z-matrix:
 Charge =  0 Multiplicity = 1

                         Standard orientation:
 ---------------------------------------------------------------------
 Center     Atomic      Atomic             Coordinates (Angstroms)
 Number     Number       Type             X           Y           Z
 ---------------------------------------------------------------------
      1          6           0       -1.193343   -0.002957    0.008756
      2          6           0        0.270135   -0.028669    0.004479
      3          7           0        1.444607    0.012250   -0.007970
      4          1           0       -1.468240   -0.189934    0.971000
      5          1           0       -1.598146   -0.714582   -0.690112
      6          1           0       -1.506618    1.008521   -0.304512
 ---------------------------------------------------------------------

 SCF Done:  E(RB2PLYPD3) =  -132.528886703     A.U. after   12 cycles
 E2(B2PLYPD3) =    -0.1820268169D+00 E(B2PLYPD3) =    -0.13271091351999D+03

 The electronic state is 1-A.
 Alpha  occ. eigenvalues --  -14.84679 -10.66793 -10.66594  -1.03239  -0.89893
 Alpha  occ. eigenvalues --   -0.59459  -0.55910  -0.53743  -0.44739  -0.38689
 Alpha  occ. eigenvalues --   -0.38473
 Alpha virt. eigenvalues --    0.03767   0.07524   0.08369   0.10178   0.10953
 Alpha virt. eigenvalues --    0.11283   0.15264   0.15735   0.16275   0.20161
 Alpha virt. eigenvalues --    0.20231   0.25193   0.32459   0.34165   0.35480

 Mulliken charges:
               1
     1  C   -0.084882
     2  C   -0.000431
     3  N   -0.217126
     4  H    0.105325
     5  H    0.098811
     6  H    0.098303
 Sum of Mulliken charges =   0.00000

 Dipole moment (field-independent basis, Debye):
    X=             -4.1612    Y=             -0.0084    Z=              0.0142  Tot=              4.1612
 Quadrupole moment (field-independent basis, Debye-Ang):
   XX=            -21.1126   YY=            -17.7854   ZZ=            -17.7168
   XY=             -0.0266   XZ=              0.1184   YZ=             -0.0060

 Normal termination of Gaussian 09 at Wed Aug 26 10:35:33 2020.
