 Gaussian 09, Revision D.01,
 Gaussian 09:  ES64L-G09RevD.01 24-Apr-2013

 --------------------
 #p B2PLYPD3/Def2QZVP
 --------------------

 ------------
 cyanomethane
 ------------
 Symbolic Z-matrix:
 Charge =  0 Multiplicity = 1

                         Standard orientation:
 ---------------------------------------------------------------------
 Center     Atomic      Atomic             Coordinates (Angstroms)
 Number     Number       Type             X           Y           Z
 ---------------------------------------------------------------------
      1          6           0       -1.188134   -0.000611   -0.015910
      2          6           0        0.280375    0.009160    0.040294
      3          7           0        1.438513   -0.007094   -0.024957
      4          1           0       -1.474866   -0.267973    0.946942
      5          1           0       -1.620110   -0.689113   -0.685816
      6          1           0       -1.528064    0.955452   -0.232729
 ---------------------------------------------------------------------

 SCF Done:  E(RB2PLYPD3) =  -132.529302457     A.U. after   12 cycles
 E2(B2PLYPD3) =    -0.1805369868D+00 E(B2PLYPD3) =    -0.13270983944408D+03

 The electronic state is 1-A.
 Alpha  occ. eigenvalues --  -14.84368 -10.66454 -10.65828  -1.03897  -0.90172
 Alpha  occ. eigenvalues --   -0.60214  -0.55305  -0.54359  -0.44801  -0.39143
 Alpha  occ. eigenvalues --   -0.38985
 Alpha virt. eigenvalues --    0.03880   0.07933   0.08798   0.10098   0.11186
 Alpha virt. eigenvalues --    0.11359   0.15432   0.15558   0.17263   0.20108
 Alpha virt. eigenvalues --    0.20194   0.25274   0.32897   0.35030   0.35599

 Mulliken charges:
               1
     1  C   -0.070342
     2  C    0.000630
     3  N   -0.209771
     4  H    0.092861
     5  H    0.092184
     6  H    0.094439
 Sum of Mulliken charges =   0.00000

 Dipole moment (field-independent basis, Debye):
    X=             -4.1487    Y=              0.0084    Z=              0.0559  Tot=              4.1491
 Quadrupole moment (field-independent basis, Debye-Ang):
   XX=            -20.8393   YY=            -17.7025   ZZ=            -17.7695
   XY=              0.0812   XZ=              0.1781   YZ=             -0.0171

 Normal termination of Gaussian 09 at Wed Aug 26 15:12:00 2020.
