 Gaussian 09, Revision D.01,
 Gaussian 09:  ES64L-G09RevD.01 24-Apr-2013

 --------------------
 #p B2PLYPD3/Def2QZVP
 --------------------

 ------------
 cyanomethane
 ------------
 Symbolic Z-matrix:
 Charge =  0 Multiplicity = 1

                         Standard orientation:
 ---------------------------------------------------------------------
 Center     Atomic      Atomic             Coordinates (Angstroms)
 Number     Number       Type             X           Y           Z
 ---------------------------------------------------------------------
      1          6           0       -1.171867   -0.011744    0.002175
      2          6           0        0.280956    0.001284   -0.032496
      3          7           0        1.420252    0.007393    0.019580
      4          1           0       -1.557667   -0.131895    1.004561
      5          1           0       -1.438452   -0.834822   -0.590441
      6          1           0       -1.600175    0.977729   -0.369249
 ---------------------------------------------------------------------

 SCF Done:  E(RB2PLYPD3) =  -132.531859804     A.U. after   12 cycles
 E2(B2PLYPD3) =    -0.1793534372D+00 E(B2PLYPD3) =    -0.13271121324095D+03

 The electronic state is 1-A.
 Alpha  occ. eigenvalues --  -14.83720 -10.67020 -10.65725  -1.04664  -0.89380
 Alpha  occ. eigenvalues --   -0.59441  -0.55216  -0.52800  -0.44681  -0.39425
 Alpha  occ. eigenvalues --   -0.39218
 Alpha virt. eigenvalues --    0.03730   0.07593   0.08716   0.10188   0.11489
 Alpha virt. eigenvalues --    0.11820   0.15405   0.15968   0.16736   0.19977
 Alpha virt. eigenvalues --    0.20106   0.25489   0.32634   0.34293   0.35089

 Mulliken charges:
               1
     1  C   -0.091143
     2  C   -0.004263
     3  N   -0.199509
     4  H    0.096404
     5  H    0.104002
     6  H    0.094509
 Sum of Mulliken charges =   0.00000

 Dipole moment (field-independent basis, Debye):
    X=             -4.0854    Y=             -0.0260    Z=             -0.0051  Tot=              4.0855
 Quadrupole moment (field-independent basis, Debye-Ang):
   XX=            -21.0894   YY=            -17.5607   ZZ=            -17.7820
   XY=             -0.1310   XZ=             -0.2231   YZ=              0.0748

 Normal termination of Gaussian 09 at Wed Aug 26 14:14:27 2020.
