 Gaussian 09, Revision D.01,
 Gaussian 09:  ES64L-G09RevD.01 24-Apr-2013

 --------------------
 #p B2PLYPD3/Def2QZVP
 --------------------

 ------------
 cyanomethane
 ------------
 Symbolic Z-matrix:
 Charge =  0 Multiplicity = 1

                         Standard orientation:
 ---------------------------------------------------------------------
 Center     Atomic      Atomic             Coordinates (Angstroms)
 Number     Number       Type             X           Y           Z
 ---------------------------------------------------------------------
      1          6           0        1.174577    0.027728    0.009055
      2          6           0       -0.297296   -0.052393    0.010580
      3          7           0       -1.437913    0.021218   -0.010169
      4          1           0        1.557320    1.052382   -0.082692
      5          1           0        1.668746   -0.592540   -0.809313
      6          1           0        1.575643   -0.460381    0.845378
 ---------------------------------------------------------------------

 SCF Done:  E(RB2PLYPD3) =  -132.529851617     A.U. after   12 cycles
 E2(B2PLYPD3) =    -0.1798512513D+00 E(B2PLYPD3) =    -0.13270970286834D+03

 The electronic state is 1-A.
 Alpha  occ. eigenvalues --  -14.84112 -10.67352 -10.66219  -1.04694  -0.88686
 Alpha  occ. eigenvalues --   -0.60306  -0.54529  -0.51593  -0.44945  -0.39706
 Alpha  occ. eigenvalues --   -0.39256
 Alpha virt. eigenvalues --    0.03574   0.07371   0.08386   0.10160   0.11349
 Alpha virt. eigenvalues --    0.11833   0.15338   0.16206   0.17558   0.19930
 Alpha virt. eigenvalues --    0.20096   0.25401   0.32432   0.34183   0.35112

 Mulliken charges:
               1
     1  C   -0.072134
     2  C    0.002499
     3  N   -0.198555
     4  H    0.098324
     5  H    0.079602
     6  H    0.090264
 Sum of Mulliken charges =   0.00000

 Dipole moment (field-independent basis, Debye):
    X=              4.1239    Y=             -0.0709    Z=              0.0381  Tot=              4.1247
 Quadrupole moment (field-independent basis, Debye-Ang):
   XX=            -20.6563   YY=            -17.6028   ZZ=            -18.1004
   XY=             -0.0402   XZ=             -0.0705   YZ=             -0.0816

 Normal termination of Gaussian 09 at Wed Aug 26 18:55:12 2020.
