 Gaussian 09, Revision D.01,
 Gaussian 09:  ES64L-G09RevD.01 24-Apr-2013

 --------------------
 #p B2PLYPD3/Def2QZVP
 --------------------

 ------------
 cyanomethane
 ------------
 Symbolic Z-matrix:
 Charge =  0 Multiplicity = 1

                         Standard orientation:
 ---------------------------------------------------------------------
 Center     Atomic      Atomic             Coordinates (Angstroms)
 Number     Number       Type             X           Y           Z
 ---------------------------------------------------------------------
      1          6           0       -1.161202   -0.002210   -0.039043
      2          6           0        0.267785    0.021248    0.063864
      3          7           0        1.420698   -0.007527   -0.034116
      4          1           0       -1.447880   -0.282737    0.954130
      5          1           0       -1.546258   -0.734091   -0.642197
      6          1           0       -1.590249    0.955286   -0.222049
 ---------------------------------------------------------------------

 SCF Done:  E(RB2PLYPD3) =  -132.527163025     A.U. after   12 cycles
 E2(B2PLYPD3) =    -0.1806099041D+00 E(B2PLYPD3) =    -0.13270777292946D+03

 The electronic state is 1-A.
 Alpha  occ. eigenvalues --  -14.84233 -10.66198 -10.65718  -1.04114  -0.90557
 Alpha  occ. eigenvalues --   -0.60924  -0.55598  -0.53776  -0.44849  -0.39167
 Alpha  occ. eigenvalues --   -0.38599
 Alpha virt. eigenvalues --    0.03843   0.07788   0.08368   0.09945   0.11293
 Alpha virt. eigenvalues --    0.11746   0.15089   0.15781   0.17923   0.20144
 Alpha virt. eigenvalues --    0.20262   0.26220   0.33277   0.34100   0.36069

 Mulliken charges:
               1
     1  C   -0.073369
     2  C    0.006727
     3  N   -0.209824
     4  H    0.085983
     5  H    0.095758
     6  H    0.094724
 Sum of Mulliken charges =   0.00000

 Dipole moment (field-independent basis, Debye):
    X=             -4.1150    Y=             -0.0169    Z=              0.1008  Tot=              4.1163
 Quadrupole moment (field-independent basis, Debye-Ang):
   XX=            -20.8676   YY=            -17.5684   ZZ=            -17.8476
   XY=              0.0446   XZ=              0.1430   YZ=              0.0329

 Normal termination of Gaussian 09 at Wed Aug 26 23:12:04 2020.
