 Gaussian 09, Revision D.01,
 Gaussian 09:  ES64L-G09RevD.01 24-Apr-2013

 --------------------
 #p B2PLYPD3/Def2QZVP
 --------------------

 ------------
 cyanomethane
 ------------
 Symbolic Z-matrix:
 Charge =  0 Multiplicity = 1

                         Standard orientation:
 ---------------------------------------------------------------------
 Center     Atomic      Atomic             Coordinates (Angstroms)
 Number     Number       Type             X           Y           Z
 ---------------------------------------------------------------------
      1          6           0        1.186662   -0.016405    0.008369
      2          6           0       -0.272088    0.035503   -0.013771
      3          7           0       -1.445739   -0.015387    0.006639
      4          1           0        1.562665    1.042306   -0.091056
      5          1           0        1.529889   -0.602599   -0.857422
      6          1           0        1.540170   -0.446587    0.934421
 ---------------------------------------------------------------------

 SCF Done:  E(RB2PLYPD3) =  -132.531352709     A.U. after   12 cycles
 E2(B2PLYPD3) =    -0.1824753638D+00 E(B2PLYPD3) =    -0.13271382807238D+03

 The electronic state is 1-A.
 Alpha  occ. eigenvalues --  -14.84743 -10.67669 -10.66844  -1.03286  -0.88991
 Alpha  occ. eigenvalues --   -0.59399  -0.54282  -0.53326  -0.44816  -0.38612
 Alpha  occ. eigenvalues --   -0.38445
 Alpha virt. eigenvalues --    0.03634   0.07359   0.07462   0.10086   0.11217
 Alpha virt. eigenvalues --    0.11266   0.15273   0.15720   0.16433   0.20156
 Alpha virt. eigenvalues --    0.20188   0.25371   0.32224   0.33923   0.34741

 Mulliken charges:
               1
     1  C   -0.093134
     2  C    0.002591
     3  N   -0.215318
     4  H    0.097770
     5  H    0.102858
     6  H    0.105233
 Sum of Mulliken charges =   0.00000

 Dipole moment (field-independent basis, Debye):
    X=              4.1429    Y=              0.0134    Z=             -0.0082  Tot=              4.1429
 Quadrupole moment (field-independent basis, Debye-Ang):
   XX=            -21.1726   YY=            -17.8220   ZZ=            -17.7829
   XY=             -0.0630   XZ=              0.0380   YZ=             -0.0061

 Normal termination of Gaussian 09 at Wed Aug 26 12:42:21 2020.
