 Gaussian 09, Revision D.01,
 Gaussian 09:  ES64L-G09RevD.01 24-Apr-2013

 --------------------
 #p B2PLYPD3/Def2QZVP
 --------------------

 ------------
 cyanomethane
 ------------
 Symbolic Z-matrix:
 Charge =  0 Multiplicity = 1

                         Standard orientation:
 ---------------------------------------------------------------------
 Center     Atomic      Atomic             Coordinates (Angstroms)
 Number     Number       Type             X           Y           Z
 ---------------------------------------------------------------------
      1          6           0        1.190307   -0.003049   -0.012201
      2          6           0       -0.283525    0.019100   -0.009926
      3          7           0       -1.437410   -0.012520    0.013886
      4          1           0        1.650848   -0.305736    0.963175
      5          1           0        1.480400    1.005885   -0.210476
      6          1           0        1.489930   -0.708817   -0.717144
 ---------------------------------------------------------------------

 SCF Done:  E(RB2PLYPD3) =  -132.531094190     A.U. after   12 cycles
 E2(B2PLYPD3) =    -0.1804073776D+00 E(B2PLYPD3) =    -0.13271150156802D+03

 The electronic state is 1-A.
 Alpha  occ. eigenvalues --  -14.84166 -10.66924 -10.66267  -1.04061  -0.89361
 Alpha  occ. eigenvalues --   -0.59350  -0.55785  -0.52719  -0.44713  -0.39244
 Alpha  occ. eigenvalues --   -0.38979
 Alpha virt. eigenvalues --    0.03740   0.07610   0.08745   0.10205   0.11132
 Alpha virt. eigenvalues --    0.11552   0.15225   0.15823   0.16738   0.20028
 Alpha virt. eigenvalues --    0.20164   0.25044   0.32490   0.34257   0.35419

 Mulliken charges:
               1
     1  C   -0.086276
     2  C   -0.002971
     3  N   -0.206578
     4  H    0.090613
     5  H    0.101963
     6  H    0.103248
 Sum of Mulliken charges =   0.00000

 Dipole moment (field-independent basis, Debye):
    X=              4.1319    Y=              0.0119    Z=             -0.0190  Tot=              4.1320
 Quadrupole moment (field-independent basis, Debye-Ang):
   XX=            -21.0345   YY=            -17.5914   ZZ=            -17.8797
   XY=             -0.1356   XZ=              0.2145   YZ=              0.0624

 Normal termination of Gaussian 09 at Wed Aug 26 14:08:59 2020.
