 Gaussian 09, Revision D.01,
 Gaussian 09:  ES64L-G09RevD.01 24-Apr-2013

 --------------------
 #p B2PLYPD3/Def2QZVP
 --------------------

 ------------
 cyanomethane
 ------------
 Symbolic Z-matrix:
 Charge =  0 Multiplicity = 1

                         Standard orientation:
 ---------------------------------------------------------------------
 Center     Atomic      Atomic             Coordinates (Angstroms)
 Number     Number       Type             X           Y           Z
 ---------------------------------------------------------------------
      1          6           0        1.173552    0.012292    0.005629
      2          6           0       -0.275813    0.001479   -0.035543
      3          7           0       -1.439462   -0.004107    0.012985
      4          1           0        1.547411    1.040354   -0.102924
      5          1           0        1.635568   -0.672107   -0.752822
      6          1           0        1.506820   -0.422124    0.944335
 ---------------------------------------------------------------------

 SCF Done:  E(RB2PLYPD3) =  -132.532401426     A.U. after   12 cycles
 E2(B2PLYPD3) =    -0.1816047003D+00 E(B2PLYPD3) =    -0.13271400612666D+03

 The electronic state is 1-A.
 Alpha  occ. eigenvalues --  -14.84528 -10.67472 -10.66598  -1.03768  -0.89080
 Alpha  occ. eigenvalues --   -0.60023  -0.54467  -0.52594  -0.44887  -0.38913
 Alpha  occ. eigenvalues --   -0.38627
 Alpha virt. eigenvalues --    0.03664   0.07258   0.07630   0.10145   0.11205
 Alpha virt. eigenvalues --    0.11670   0.15369   0.16116   0.16703   0.20048
 Alpha virt. eigenvalues --    0.20197   0.25542   0.32400   0.34199   0.34786

 Mulliken charges:
               1
     1  C   -0.082688
     2  C    0.002621
     3  N   -0.210335
     4  H    0.101850
     5  H    0.091685
     6  H    0.096867
 Sum of Mulliken charges =   0.00000

 Dipole moment (field-independent basis, Debye):
    X=              4.1399    Y=             -0.0247    Z=              0.0118  Tot=              4.1400
 Quadrupole moment (field-independent basis, Debye-Ang):
   XX=            -20.9652   YY=            -17.6228   ZZ=            -18.0199
   XY=             -0.1371   XZ=              0.0533   YZ=             -0.0360

 Normal termination of Gaussian 09 at Wed Aug 26 14:44:01 2020.
