 Gaussian 09, Revision D.01,
 Gaussian 09:  ES64L-G09RevD.01 24-Apr-2013

 --------------------
 #p B2PLYPD3/Def2QZVP
 --------------------

 ------------
 cyanomethane
 ------------
 Symbolic Z-matrix:
 Charge =  0 Multiplicity = 1

                         Standard orientation:
 ---------------------------------------------------------------------
 Center     Atomic      Atomic             Coordinates (Angstroms)
 Number     Number       Type             X           Y           Z
 ---------------------------------------------------------------------
      1          6           0        1.168490   -0.007432    0.005432
      2          6           0       -0.271030    0.007558   -0.022946
      3          7           0       -1.432689   -0.000430    0.009174
      4          1           0        1.591741    0.994626   -0.282713
      5          1           0        1.542407   -0.760763   -0.675494
      6          1           0        1.509913   -0.231604    0.999065
 ---------------------------------------------------------------------

 SCF Done:  E(RB2PLYPD3) =  -132.533803995     A.U. after   11 cycles
 E2(B2PLYPD3) =    -0.1811898181D+00 E(B2PLYPD3) =    -0.13271499381316D+03

 The electronic state is 1-A.
 Alpha  occ. eigenvalues --  -14.84388 -10.67095 -10.66403  -1.03862  -0.89476
 Alpha  occ. eigenvalues --   -0.60043  -0.54385  -0.53445  -0.44840  -0.38836
 Alpha  occ. eigenvalues --   -0.38740
 Alpha virt. eigenvalues --    0.03734   0.07407   0.07824   0.10128   0.11410
 Alpha virt. eigenvalues --    0.11546   0.15509   0.16236   0.16367   0.20114
 Alpha virt. eigenvalues --    0.20152   0.25680   0.32643   0.34356   0.34795

 Mulliken charges:
               1
     1  C   -0.083141
     2  C    0.000897
     3  N   -0.209974
     4  H    0.094403
     5  H    0.098554
     6  H    0.099261
 Sum of Mulliken charges =   0.00000

 Dipole moment (field-independent basis, Debye):
    X=              4.1299    Y=             -0.0117    Z=              0.0021  Tot=              4.1299
 Quadrupole moment (field-independent basis, Debye-Ang):
   XX=            -21.0122   YY=            -17.7425   ZZ=            -17.7923
   XY=              0.0190   XZ=              0.0438   YZ=              0.0216

 Normal termination of Gaussian 09 at Thu Aug 27 00:14:36 2020.
