 Gaussian 09, Revision D.01,
 Gaussian 09:  ES64L-G09RevD.01 24-Apr-2013

 --------------------
 #p B2PLYPD3/Def2QZVP
 --------------------

 ------------
 cyanomethane
 ------------
 Symbolic Z-matrix:
 Charge =  0 Multiplicity = 1

                         Standard orientation:
 ---------------------------------------------------------------------
 Center     Atomic      Atomic             Coordinates (Angstroms)
 Number     Number       Type             X           Y           Z
 ---------------------------------------------------------------------
      1          6           0       -1.173696   -0.014323   -0.022828
      2          6           0        0.282484   -0.067764    0.046764
      3          7           0        1.412713    0.034583   -0.027093
      4          1           0       -1.499769    1.028497   -0.252492
      5          1           0       -1.457561   -0.143784    0.963625
      6          1           0       -1.584387   -0.634273   -0.665096
 ---------------------------------------------------------------------

 SCF Done:  E(RB2PLYPD3) =  -132.522096882     A.U. after   12 cycles
 E2(B2PLYPD3) =    -0.1787618345D+00 E(B2PLYPD3) =    -0.13270085871646D+03

 The electronic state is 1-A.
 Alpha  occ. eigenvalues --  -14.83645 -10.65644 -10.65588  -1.04828  -0.90341
 Alpha  occ. eigenvalues --   -0.60413  -0.56517  -0.53034  -0.44698  -0.39802
 Alpha  occ. eigenvalues --   -0.39175
 Alpha virt. eigenvalues --    0.03669   0.08282   0.09409   0.10087   0.11209
 Alpha virt. eigenvalues --    0.11825   0.15489   0.15658   0.17391   0.19933
 Alpha virt. eigenvalues --    0.20079   0.25768   0.33470   0.33851   0.36213

 Mulliken charges:
               1
     1  C   -0.080504
     2  C   -0.001164
     3  N   -0.198531
     4  H    0.087643
     5  H    0.093256
     6  H    0.099301
 Sum of Mulliken charges =   0.00000

 Dipole moment (field-independent basis, Debye):
    X=             -4.0709    Y=             -0.0345    Z=              0.0733  Tot=              4.0717
 Quadrupole moment (field-independent basis, Debye-Ang):
   XX=            -20.9306   YY=            -17.6496   ZZ=            -17.5822
   XY=             -0.2096   XZ=              0.1737   YZ=              0.1289

 Normal termination of Gaussian 09 at Wed Aug 26 23:37:55 2020.
