 Gaussian 09, Revision D.01,
 Gaussian 09:  ES64L-G09RevD.01 24-Apr-2013

 --------------------
 #p B2PLYPD3/Def2QZVP
 --------------------

 ------------
 cyanomethane
 ------------
 Symbolic Z-matrix:
 Charge =  0 Multiplicity = 1

                         Standard orientation:
 ---------------------------------------------------------------------
 Center     Atomic      Atomic             Coordinates (Angstroms)
 Number     Number       Type             X           Y           Z
 ---------------------------------------------------------------------
      1          6           0       -1.176797   -0.009550   -0.008442
      2          6           0        0.278077   -0.015097   -0.028977
      3          7           0        1.424777    0.013696    0.020624
      4          1           0       -1.591911    0.013970    0.999421
      5          1           0       -1.439921   -0.892997   -0.458780
      6          1           0       -1.549284    0.931038   -0.460492
 ---------------------------------------------------------------------

 SCF Done:  E(RB2PLYPD3) =  -132.530031959     A.U. after   11 cycles
 E2(B2PLYPD3) =    -0.1798667169D+00 E(B2PLYPD3) =    -0.13270989867590D+03

 The electronic state is 1-A.
 Alpha  occ. eigenvalues --  -14.83927 -10.66621 -10.65940  -1.04347  -0.89748
 Alpha  occ. eigenvalues --   -0.59606  -0.56208  -0.52573  -0.44691  -0.39342
 Alpha  occ. eigenvalues --   -0.38973
 Alpha virt. eigenvalues --    0.03767   0.07577   0.08864   0.10174   0.11202
 Alpha virt. eigenvalues --    0.11802   0.15344   0.16037   0.16637   0.19966
 Alpha virt. eigenvalues --    0.20184   0.25420   0.32903   0.33996   0.35558

 Mulliken charges:
               1
     1  C   -0.084690
     2  C   -0.003561
     3  N   -0.204097
     4  H    0.090055
     5  H    0.104806
     6  H    0.097487
 Sum of Mulliken charges =   0.00000

 Dipole moment (field-independent basis, Debye):
    X=             -4.1068    Y=             -0.0163    Z=              0.0057  Tot=              4.1069
 Quadrupole moment (field-independent basis, Debye-Ang):
   XX=            -21.0581   YY=            -17.4539   ZZ=            -17.9111
   XY=             -0.1715   XZ=             -0.2859   YZ=              0.0643

 Normal termination of Gaussian 09 at Wed Aug 26 11:08:19 2020.
