 Gaussian 09, Revision D.01,
 Gaussian 09:  ES64L-G09RevD.01 24-Apr-2013

 --------------------
 #p B2PLYPD3/Def2QZVP
 --------------------

 ------------
 cyanomethane
 ------------
 Symbolic Z-matrix:
 Charge =  0 Multiplicity = 1

                         Standard orientation:
 ---------------------------------------------------------------------
 Center     Atomic      Atomic             Coordinates (Angstroms)
 Number     Number       Type             X           Y           Z
 ---------------------------------------------------------------------
      1          6           0       -1.201432   -0.011598   -0.044733
      2          6           0        0.278100    0.047772   -0.016432
      3          7           0        1.445905   -0.032138    0.014148
      4          1           0       -1.416318    1.047976   -0.095542
      5          1           0       -1.581546   -0.349941    1.045813
      6          1           0       -1.583478   -0.690114   -0.682319
 ---------------------------------------------------------------------

 SCF Done:  E(RB2PLYPD3) =  -132.514310109     A.U. after   12 cycles
 E2(B2PLYPD3) =    -0.1825044782D+00 E(B2PLYPD3) =    -0.13269681458757D+03

 The electronic state is 1-A.
 Alpha  occ. eigenvalues --  -14.84620 -10.67732 -10.66792  -1.03403  -0.89113
 Alpha  occ. eigenvalues --   -0.60334  -0.55762  -0.51040  -0.44725  -0.38952
 Alpha  occ. eigenvalues --   -0.38211
 Alpha virt. eigenvalues --    0.03305   0.06944   0.08445   0.09835   0.10908
 Alpha virt. eigenvalues --    0.11609   0.14764   0.15493   0.17049   0.20004
 Alpha virt. eigenvalues --    0.20299   0.24971   0.31276   0.32758   0.35607

 Mulliken charges:
               1
     1  C   -0.098199
     2  C    0.004848
     3  N   -0.214477
     4  H    0.108997
     5  H    0.086454
     6  H    0.112376
 Sum of Mulliken charges =   0.00000

 Dipole moment (field-independent basis, Debye):
    X=             -4.1209    Y=              0.0441    Z=             -0.0033  Tot=              4.1211
 Quadrupole moment (field-independent basis, Debye-Ang):
   XX=            -21.2844   YY=            -17.5788   ZZ=            -18.0096
   XY=              0.3315   XZ=             -0.1564   YZ=              0.1730

 Normal termination of Gaussian 09 at Wed Aug 26 18:44:19 2020.
