 Gaussian 09, Revision D.01,
 Gaussian 09:  ES64L-G09RevD.01 24-Apr-2013

 --------------------
 #p B2PLYPD3/Def2QZVP
 --------------------

 ------------
 cyanomethane
 ------------
 Symbolic Z-matrix:
 Charge =  0 Multiplicity = 1

                         Standard orientation:
 ---------------------------------------------------------------------
 Center     Atomic      Atomic             Coordinates (Angstroms)
 Number     Number       Type             X           Y           Z
 ---------------------------------------------------------------------
      1          6           0       -1.170555   -0.010681   -0.006794
      2          6           0        0.264353    0.023963   -0.001536
      3          7           0        1.430743   -0.019209    0.000552
      4          1           0       -1.434780    0.971704   -0.377712
      5          1           0       -1.525530   -0.105914    1.007812
      6          1           0       -1.617675   -0.811020   -0.583987
 ---------------------------------------------------------------------

 SCF Done:  E(RB2PLYPD3) =  -132.531463636     A.U. after   12 cycles
 E2(B2PLYPD3) =    -0.1815713190D+00 E(B2PLYPD3) =    -0.13271303495529D+03

 The electronic state is 1-A.
 Alpha  occ. eigenvalues --  -14.84432 -10.66733 -10.66465  -1.03642  -0.89949
 Alpha  occ. eigenvalues --   -0.60171  -0.54652  -0.53970  -0.44782  -0.38676
 Alpha  occ. eigenvalues --   -0.38513
 Alpha virt. eigenvalues --    0.03777   0.07370   0.08093   0.10047   0.11365
 Alpha virt. eigenvalues --    0.11511   0.15235   0.15682   0.16956   0.20156
 Alpha virt. eigenvalues --    0.20257   0.25769   0.32884   0.34264   0.34928

 Mulliken charges:
               1
     1  C   -0.085684
     2  C    0.002100
     3  N   -0.214123
     4  H    0.100622
     5  H    0.096902
     6  H    0.100184
 Sum of Mulliken charges =   0.00000

 Dipole moment (field-independent basis, Debye):
    X=             -4.1374    Y=              0.0343    Z=              0.0196  Tot=              4.1376
 Quadrupole moment (field-independent basis, Debye-Ang):
   XX=            -21.0818   YY=            -17.6465   ZZ=            -17.8348
   XY=              0.2235   XZ=             -0.0405   YZ=              0.0017

 Normal termination of Gaussian 09 at Wed Aug 26 14:43:06 2020.
