 Gaussian 09, Revision D.01,
 Gaussian 09:  ES64L-G09RevD.01 24-Apr-2013

 --------------------
 #p B2PLYPD3/Def2QZVP
 --------------------

 ------------
 cyanomethane
 ------------
 Symbolic Z-matrix:
 Charge =  0 Multiplicity = 1

                         Standard orientation:
 ---------------------------------------------------------------------
 Center     Atomic      Atomic             Coordinates (Angstroms)
 Number     Number       Type             X           Y           Z
 ---------------------------------------------------------------------
      1          6           0        1.178152    0.021208    0.003470
      2          6           0       -0.280011   -0.039192    0.014591
      3          7           0       -1.425191    0.019416   -0.009488
      4          1           0        1.547990    0.972032   -0.315536
      5          1           0        1.532807   -0.765590   -0.706290
      6          1           0        1.506696   -0.234455    0.979879
 ---------------------------------------------------------------------

 SCF Done:  E(RB2PLYPD3) =  -132.534043673     A.U. after   12 cycles
 E2(B2PLYPD3) =    -0.1797787383D+00 E(B2PLYPD3) =    -0.13271382241083D+03

 The electronic state is 1-A.
 Alpha  occ. eigenvalues --  -14.83902 -10.66910 -10.65926  -1.04383  -0.89389
 Alpha  occ. eigenvalues --   -0.59382  -0.54985  -0.53452  -0.44690  -0.39331
 Alpha  occ. eigenvalues --   -0.39083
 Alpha virt. eigenvalues --    0.03763   0.07893   0.08513   0.10130   0.11392
 Alpha virt. eigenvalues --    0.11651   0.15430   0.15663   0.16816   0.20035
 Alpha virt. eigenvalues --    0.20102   0.25466   0.32793   0.34160   0.35264

 Mulliken charges:
               1
     1  C   -0.089555
     2  C   -0.003122
     3  N   -0.203205
     4  H    0.102154
     5  H    0.093764
     6  H    0.099964
 Sum of Mulliken charges =   0.00000

 Dipole moment (field-independent basis, Debye):
    X=              4.0984    Y=             -0.0352    Z=              0.0176  Tot=              4.0986
 Quadrupole moment (field-independent basis, Debye-Ang):
   XX=            -21.1083   YY=            -17.6599   ZZ=            -17.6969
   XY=              0.1069   XZ=             -0.0716   YZ=             -0.0534

 Normal termination of Gaussian 09 at Wed Aug 26 13:01:56 2020.
