 Gaussian 09, Revision D.01,
 Gaussian 09:  ES64L-G09RevD.01 24-Apr-2013

 --------------------
 #p B2PLYPD3/Def2QZVP
 --------------------

 ------------
 cyanomethane
 ------------
 Symbolic Z-matrix:
 Charge =  0 Multiplicity = 1

                         Standard orientation:
 ---------------------------------------------------------------------
 Center     Atomic      Atomic             Coordinates (Angstroms)
 Number     Number       Type             X           Y           Z
 ---------------------------------------------------------------------
      1          6           0       -1.193571    0.002568   -0.004738
      2          6           0        0.282603   -0.014043    0.023645
      3          7           0        1.435068    0.006986   -0.015001
      4          1           0       -1.548897   -0.897248   -0.537619
      5          1           0       -1.545106    0.926508   -0.507202
      6          1           0       -1.485663   -0.009314    1.036392
 ---------------------------------------------------------------------

 SCF Done:  E(RB2PLYPD3) =  -132.533843105     A.U. after   12 cycles
 E2(B2PLYPD3) =    -0.1804979130D+00 E(B2PLYPD3) =    -0.13271434101825D+03

 The electronic state is 1-A.
 Alpha  occ. eigenvalues --  -14.84051 -10.67634 -10.66156  -1.04045  -0.88820
 Alpha  occ. eigenvalues --   -0.58531  -0.54302  -0.53723  -0.44622  -0.39081
 Alpha  occ. eigenvalues --   -0.39051
 Alpha virt. eigenvalues --    0.03657   0.07795   0.08380   0.10188   0.11328
 Alpha virt. eigenvalues --    0.11409   0.15163   0.15600   0.16457   0.20080
 Alpha virt. eigenvalues --    0.20096   0.25006   0.32472   0.34349   0.34440

 Mulliken charges:
               1
     1  C   -0.100882
     2  C   -0.003903
     3  N   -0.205974
     4  H    0.103232
     5  H    0.103412
     6  H    0.104115
 Sum of Mulliken charges =   0.00000

 Dipole moment (field-independent basis, Debye):
    X=             -4.1130    Y=             -0.0088    Z=              0.0296  Tot=              4.1131
 Quadrupole moment (field-independent basis, Debye-Ang):
   XX=            -21.2719   YY=            -17.6859   ZZ=            -17.7101
   XY=             -0.0388   XZ=              0.1184   YZ=              0.0059

 Normal termination of Gaussian 09 at Wed Aug 26 12:41:42 2020.
