 Gaussian 09, Revision D.01,
 Gaussian 09:  ES64L-G09RevD.01 24-Apr-2013

 --------------------
 #p B2PLYPD3/Def2QZVP
 --------------------

 ------------
 cyanomethane
 ------------
 Symbolic Z-matrix:
 Charge =  0 Multiplicity = 1

                         Standard orientation:
 ---------------------------------------------------------------------
 Center     Atomic      Atomic             Coordinates (Angstroms)
 Number     Number       Type             X           Y           Z
 ---------------------------------------------------------------------
      1          6           0        1.178040   -0.003690   -0.010353
      2          6           0       -0.286102   -0.004354    0.015773
      3          7           0       -1.437570    0.002346   -0.006180
      4          1           0        1.565282    1.038953   -0.005151
      5          1           0        1.560914   -0.511385   -0.863113
      6          1           0        1.585164   -0.495726    0.879008
 ---------------------------------------------------------------------

 SCF Done:  E(RB2PLYPD3) =  -132.534986441     A.U. after   11 cycles
 E2(B2PLYPD3) =    -0.1802668698D+00 E(B2PLYPD3) =    -0.13271525331063D+03

 The electronic state is 1-A.
 Alpha  occ. eigenvalues --  -14.84203 -10.67190 -10.66293  -1.04264  -0.89010
 Alpha  occ. eigenvalues --   -0.60005  -0.54057  -0.53159  -0.44850  -0.39276
 Alpha  occ. eigenvalues --   -0.39133
 Alpha virt. eigenvalues --    0.03739   0.07780   0.08022   0.10188   0.11423
 Alpha virt. eigenvalues --    0.11541   0.15394   0.16360   0.16717   0.20054
 Alpha virt. eigenvalues --    0.20071   0.25251   0.32644   0.34304   0.35044

 Mulliken charges:
               1
     1  C   -0.078342
     2  C   -0.000521
     3  N   -0.203890
     4  H    0.093325
     5  H    0.097281
     6  H    0.092147
 Sum of Mulliken charges =   0.00000

 Dipole moment (field-independent basis, Debye):
    X=              4.1318    Y=             -0.0114    Z=              0.0105  Tot=              4.1318
 Quadrupole moment (field-independent basis, Debye-Ang):
   XX=            -20.8736   YY=            -17.7668   ZZ=            -17.8139
   XY=             -0.0099   XZ=             -0.0108   YZ=              0.0321

 Normal termination of Gaussian 09 at Thu Aug 27 00:08:10 2020.
