 Gaussian 09, Revision D.01,
 Gaussian 09:  ES64L-G09RevD.01 24-Apr-2013

 --------------------
 #p B2PLYPD3/Def2QZVP
 --------------------

 ------------
 cyanomethane
 ------------
 Symbolic Z-matrix:
 Charge =  0 Multiplicity = 1

                         Standard orientation:
 ---------------------------------------------------------------------
 Center     Atomic      Atomic             Coordinates (Angstroms)
 Number     Number       Type             X           Y           Z
 ---------------------------------------------------------------------
      1          6           0        1.172380   -0.002436   -0.011994
      2          6           0       -0.278779    0.021681    0.015717
      3          7           0       -1.444755   -0.012748   -0.005436
      4          1           0        1.609979   -0.248628    0.948799
      5          1           0        1.555893    0.933158   -0.261575
      6          1           0        1.585805   -0.710764   -0.671508
 ---------------------------------------------------------------------

 SCF Done:  E(RB2PLYPD3) =  -132.531052574     A.U. after   11 cycles
 E2(B2PLYPD3) =    -0.1812983398D+00 E(B2PLYPD3) =    -0.13271235091357D+03

 The electronic state is 1-A.
 Alpha  occ. eigenvalues --  -14.84711 -10.66791 -10.66120  -1.03766  -0.89946
 Alpha  occ. eigenvalues --   -0.61320  -0.54748  -0.53373  -0.45025  -0.38998
 Alpha  occ. eigenvalues --   -0.38838
 Alpha virt. eigenvalues --    0.03843   0.07516   0.08001   0.10126   0.11250
 Alpha virt. eigenvalues --    0.11482   0.15561   0.16440   0.17023   0.20103
 Alpha virt. eigenvalues --    0.20206   0.25511   0.32807   0.34864   0.35477

 Mulliken charges:
               1
     1  C   -0.054171
     2  C    0.005313
     3  N   -0.211407
     4  H    0.082823
     5  H    0.088921
     6  H    0.088521
 Sum of Mulliken charges =   0.00000

 Dipole moment (field-independent basis, Debye):
    X=              4.1722    Y=              0.0182    Z=              0.0097  Tot=              4.1722
 Quadrupole moment (field-independent basis, Debye-Ang):
   XX=            -20.5895   YY=            -17.8032   ZZ=            -17.9131
   XY=             -0.0948   XZ=              0.0067   YZ=              0.0085

 Normal termination of Gaussian 09 at Wed Aug 26 12:02:55 2020.
