 Gaussian 09, Revision D.01,
 Gaussian 09:  ES64L-G09RevD.01 24-Apr-2013

 --------------------
 #p B2PLYPD3/Def2QZVP
 --------------------

 ------------
 cyanomethane
 ------------
 Symbolic Z-matrix:
 Charge =  0 Multiplicity = 1

                         Standard orientation:
 ---------------------------------------------------------------------
 Center     Atomic      Atomic             Coordinates (Angstroms)
 Number     Number       Type             X           Y           Z
 ---------------------------------------------------------------------
      1          6           0       -1.174466    0.006720   -0.001455
      2          6           0        0.274892    0.012800   -0.012093
      3          7           0        1.430939   -0.009589    0.007409
      4          1           0       -1.508994    1.001043   -0.100385
      5          1           0       -1.563188   -0.427731    0.935093
      6          1           0       -1.546946   -0.623315   -0.805280
 ---------------------------------------------------------------------

 SCF Done:  E(RB2PLYPD3) =  -132.534467275     A.U. after   11 cycles
 E2(B2PLYPD3) =    -0.1805253536D+00 E(B2PLYPD3) =    -0.13271499262817D+03

 The electronic state is 1-A.
 Alpha  occ. eigenvalues --  -14.84198 -10.66799 -10.66226  -1.04041  -0.89596
 Alpha  occ. eigenvalues --   -0.59808  -0.55099  -0.53372  -0.44771  -0.39071
 Alpha  occ. eigenvalues --   -0.38877
 Alpha virt. eigenvalues --    0.03780   0.07661   0.08293   0.10164   0.11292
 Alpha virt. eigenvalues --    0.11606   0.15461   0.16160   0.16417   0.20062
 Alpha virt. eigenvalues --    0.20160   0.25487   0.32855   0.34310   0.35130

 Mulliken charges:
               1
     1  C   -0.082129
     2  C   -0.001708
     3  N   -0.207706
     4  H    0.100855
     5  H    0.094343
     6  H    0.096344
 Sum of Mulliken charges =   0.00000

 Dipole moment (field-independent basis, Debye):
    X=             -4.1271    Y=              0.0067    Z=             -0.0087  Tot=              4.1271
 Quadrupole moment (field-independent basis, Debye-Ang):
   XX=            -21.0195   YY=            -17.6488   ZZ=            -17.8068
   XY=              0.1103   XZ=             -0.0630   YZ=              0.0070

 Normal termination of Gaussian 09 at Wed Aug 26 10:11:43 2020.
