 Gaussian 09, Revision D.01,
 Gaussian 09:  ES64L-G09RevD.01 24-Apr-2013

 --------------------
 #p B2PLYPD3/Def2QZVP
 --------------------

 ------------
 cyanomethane
 ------------
 Symbolic Z-matrix:
 Charge =  0 Multiplicity = 1

                         Standard orientation:
 ---------------------------------------------------------------------
 Center     Atomic      Atomic             Coordinates (Angstroms)
 Number     Number       Type             X           Y           Z
 ---------------------------------------------------------------------
      1          6           0        1.163500   -0.012421    0.006819
      2          6           0       -0.273410    0.024199   -0.020835
      3          7           0       -1.429890   -0.013513    0.015972
      4          1           0        1.637938   -0.129867    1.009910
      5          1           0        1.499588    1.000753   -0.401920
      6          1           0        1.531164   -0.846965   -0.635706
 ---------------------------------------------------------------------

 SCF Done:  E(RB2PLYPD3) =  -132.530007684     A.U. after   12 cycles
 E2(B2PLYPD3) =    -0.1813446047D+00 E(B2PLYPD3) =    -0.13271135228824D+03

 The electronic state is 1-A.
 Alpha  occ. eigenvalues --  -14.84298 -10.67980 -10.66321  -1.04067  -0.88843
 Alpha  occ. eigenvalues --   -0.59905  -0.53635  -0.52585  -0.44861  -0.38872
 Alpha  occ. eigenvalues --   -0.38689
 Alpha virt. eigenvalues --    0.03558   0.06974   0.07534   0.10043   0.11568
 Alpha virt. eigenvalues --    0.11723   0.15422   0.15727   0.17053   0.20064
 Alpha virt. eigenvalues --    0.20197   0.25776   0.32496   0.33642   0.34348

 Mulliken charges:
               1
     1  C   -0.096116
     2  C    0.004309
     3  N   -0.207043
     4  H    0.099105
     5  H    0.097605
     6  H    0.102141
 Sum of Mulliken charges =   0.00000

 Dipole moment (field-independent basis, Debye):
    X=              4.1040    Y=              0.0166    Z=             -0.0135  Tot=              4.1040
 Quadrupole moment (field-independent basis, Debye-Ang):
   XX=            -21.0856   YY=            -17.6979   ZZ=            -17.8914
   XY=             -0.1172   XZ=              0.2104   YZ=              0.0314

 Normal termination of Gaussian 09 at Wed Aug 26 16:12:34 2020.
