 Gaussian 09, Revision D.01,
 Gaussian 09:  ES64L-G09RevD.01 24-Apr-2013

 --------------------
 #p B2PLYPD3/Def2QZVP
 --------------------

 ------------
 cyanomethane
 ------------
 Symbolic Z-matrix:
 Charge =  0 Multiplicity = 1

                         Standard orientation:
 ---------------------------------------------------------------------
 Center     Atomic      Atomic             Coordinates (Angstroms)
 Number     Number       Type             X           Y           Z
 ---------------------------------------------------------------------
      1          6           0       -1.175903    0.020086    0.008993
      2          6           0        0.294118   -0.038097    0.014618
      3          7           0        1.433462    0.014934   -0.009832
      4          1           0       -1.548559    0.920052   -0.446278
      5          1           0       -1.570955   -0.086819    0.974201
      6          1           0       -1.624010   -0.829711   -0.600767
 ---------------------------------------------------------------------

 SCF Done:  E(RB2PLYPD3) =  -132.532869022     A.U. after   11 cycles
 E2(B2PLYPD3) =    -0.1793850438D+00 E(B2PLYPD3) =    -0.13271225406570D+03

 The electronic state is 1-A.
 Alpha  occ. eigenvalues --  -14.83959 -10.67089 -10.66044  -1.04737  -0.88913
 Alpha  occ. eigenvalues --   -0.60107  -0.54596  -0.52351  -0.44863  -0.39691
 Alpha  occ. eigenvalues --   -0.39364
 Alpha virt. eigenvalues --    0.03714   0.07695   0.08472   0.10197   0.11393
 Alpha virt. eigenvalues --    0.11760   0.15419   0.16434   0.17031   0.19959
 Alpha virt. eigenvalues --    0.20035   0.25265   0.32517   0.34249   0.35430

 Mulliken charges:
               1
     1  C   -0.074813
     2  C   -0.001084
     3  N   -0.197802
     4  H    0.095284
     5  H    0.094658
     6  H    0.083757
 Sum of Mulliken charges =   0.00000

 Dipole moment (field-independent basis, Debye):
    X=             -4.1133    Y=             -0.0182    Z=              0.0208  Tot=              4.1134
 Quadrupole moment (field-independent basis, Debye-Ang):
   XX=            -20.7689   YY=            -17.8027   ZZ=            -17.7686
   XY=             -0.0406   XZ=              0.0668   YZ=             -0.0694

 Normal termination of Gaussian 09 at Wed Aug 26 14:07:40 2020.
