 Gaussian 09, Revision D.01,
 Gaussian 09:  ES64L-G09RevD.01 24-Apr-2013

 --------------------
 #p B2PLYPD3/Def2QZVP
 --------------------

 ------------
 cyanomethane
 ------------
 Symbolic Z-matrix:
 Charge =  0 Multiplicity = 1

                         Standard orientation:
 ---------------------------------------------------------------------
 Center     Atomic      Atomic             Coordinates (Angstroms)
 Number     Number       Type             X           Y           Z
 ---------------------------------------------------------------------
      1          6           0       -1.178293    0.000695    0.008890
      2          6           0        0.275311    0.006078    0.006568
      3          7           0        1.430449   -0.004327   -0.007745
      4          1           0       -1.489844   -0.245786    0.968051
      5          1           0       -1.574345   -0.750356   -0.708294
      6          1           0       -1.531062    0.985789   -0.298289
 ---------------------------------------------------------------------

 SCF Done:  E(RB2PLYPD3) =  -132.533547992     A.U. after   12 cycles
 E2(B2PLYPD3) =    -0.1803969018D+00 E(B2PLYPD3) =    -0.13271394489334D+03

 The electronic state is 1-A.
 Alpha  occ. eigenvalues --  -14.84131 -10.66807 -10.66169  -1.04056  -0.89616
 Alpha  occ. eigenvalues --   -0.59536  -0.55244  -0.53478  -0.44721  -0.39092
 Alpha  occ. eigenvalues --   -0.38915
 Alpha virt. eigenvalues --    0.03781   0.07702   0.08456   0.10183   0.11309
 Alpha virt. eigenvalues --    0.11554   0.15417   0.16012   0.16389   0.20083
 Alpha virt. eigenvalues --    0.20139   0.25388   0.32741   0.34272   0.35158

 Mulliken charges:
               1
     1  C   -0.086185
     2  C   -0.002699
     3  N   -0.207501
     4  H    0.102417
     5  H    0.095068
     6  H    0.098899
 Sum of Mulliken charges =   0.00000

 Dipole moment (field-independent basis, Debye):
    X=             -4.1231    Y=              0.0029    Z=              0.0177  Tot=              4.1232
 Quadrupole moment (field-independent basis, Debye-Ang):
   XX=            -21.0821   YY=            -17.6985   ZZ=            -17.7123
   XY=              0.0526   XZ=              0.0887   YZ=             -0.0478

 Normal termination of Gaussian 09 at Thu Aug 27 00:00:28 2020.
