 Gaussian 09, Revision D.01,
 Gaussian 09:  ES64L-G09RevD.01 24-Apr-2013

 --------------------
 #p B2PLYPD3/Def2QZVP
 --------------------

 ------------
 cyanomethane
 ------------
 Symbolic Z-matrix:
 Charge =  0 Multiplicity = 1

                         Standard orientation:
 ---------------------------------------------------------------------
 Center     Atomic      Atomic             Coordinates (Angstroms)
 Number     Number       Type             X           Y           Z
 ---------------------------------------------------------------------
      1          6           0       -1.174840    0.001595    0.026719
      2          6           0        0.252181   -0.046550    0.005720
      3          7           0        1.427640    0.011312   -0.006222
      4          1           0       -1.473304    0.080109    0.981826
      5          1           0       -1.625474   -0.887475   -0.558890
      6          1           0       -1.358741    0.997918   -0.574014
 ---------------------------------------------------------------------

 SCF Done:  E(RB2PLYPD3) =  -132.516795118     A.U. after   12 cycles
 E2(B2PLYPD3) =    -0.1828798638D+00 E(B2PLYPD3) =    -0.13269967498192D+03

 The electronic state is 1-A.
 Alpha  occ. eigenvalues --  -14.84499 -10.67653 -10.66591  -1.03208  -0.89869
 Alpha  occ. eigenvalues --   -0.59636  -0.55491  -0.52661  -0.44636  -0.38433
 Alpha  occ. eigenvalues --   -0.37797
 Alpha virt. eigenvalues --    0.03395   0.06673   0.08058   0.10060   0.11095
 Alpha virt. eigenvalues --    0.11735   0.14944   0.15471   0.16197   0.20172
 Alpha virt. eigenvalues --    0.20305   0.25787   0.31811   0.32224   0.35107

 Mulliken charges:
               1
     1  C   -0.113141
     2  C    0.005605
     3  N   -0.220607
     4  H    0.115715
     5  H    0.105910
     6  H    0.106518
 Sum of Mulliken charges =   0.00000

 Dipole moment (field-independent basis, Debye):
    X=             -4.1124    Y=              0.0095    Z=              0.0098  Tot=              4.1124
 Quadrupole moment (field-independent basis, Debye-Ang):
   XX=            -21.5230   YY=            -17.7095   ZZ=            -17.6922
   XY=              0.1256   XZ=              0.0272   YZ=              0.0392

 Normal termination of Gaussian 09 at Wed Aug 26 23:27:59 2020.
