 Gaussian 09, Revision D.01,
 Gaussian 09:  ES64L-G09RevD.01 24-Apr-2013

 --------------------
 #p B2PLYPD3/Def2QZVP
 --------------------

 ------------
 cyanomethane
 ------------
 Symbolic Z-matrix:
 Charge =  0 Multiplicity = 1

                         Standard orientation:
 ---------------------------------------------------------------------
 Center     Atomic      Atomic             Coordinates (Angstroms)
 Number     Number       Type             X           Y           Z
 ---------------------------------------------------------------------
      1          6           0        1.179117    0.021599   -0.000990
      2          6           0       -0.281948   -0.025453    0.014086
      3          7           0       -1.422495    0.012626   -0.010460
      4          1           0        1.552182    1.019769   -0.237050
      5          1           0        1.542786   -0.753867   -0.760972
      6          1           0        1.479485   -0.331160    0.992665
 ---------------------------------------------------------------------

 SCF Done:  E(RB2PLYPD3) =  -132.532555416     A.U. after   12 cycles
 E2(B2PLYPD3) =    -0.1796864730D+00 E(B2PLYPD3) =    -0.13271224188870D+03

 The electronic state is 1-A.
 Alpha  occ. eigenvalues --  -14.83695 -10.67798 -10.65744  -1.04559  -0.88765
 Alpha  occ. eigenvalues --   -0.58685  -0.54506  -0.52915  -0.44612  -0.39393
 Alpha  occ. eigenvalues --   -0.39092
 Alpha virt. eigenvalues --    0.03620   0.07735   0.08306   0.10153   0.11500
 Alpha virt. eigenvalues --    0.11825   0.15293   0.15498   0.16785   0.19999
 Alpha virt. eigenvalues --    0.20100   0.25334   0.32511   0.33623   0.34854

 Mulliken charges:
               1
     1  C   -0.105097
     2  C   -0.003631
     3  N   -0.199953
     4  H    0.108114
     5  H    0.097990
     6  H    0.102577
 Sum of Mulliken charges =   0.00000

 Dipole moment (field-independent basis, Debye):
    X=              4.0782    Y=             -0.0307    Z=              0.0296  Tot=              4.0784
 Quadrupole moment (field-independent basis, Debye-Ang):
   XX=            -21.2920   YY=            -17.5669   ZZ=            -17.7584
   XY=              0.0653   XZ=             -0.0852   YZ=             -0.0542

 Normal termination of Gaussian 09 at Wed Aug 26 15:41:53 2020.
