 Gaussian 09, Revision D.01,
 Gaussian 09:  ES64L-G09RevD.01 24-Apr-2013

 --------------------
 #p B2PLYPD3/Def2QZVP
 --------------------

 ------------
 cyanomethane
 ------------
 Symbolic Z-matrix:
 Charge =  0 Multiplicity = 1

                         Standard orientation:
 ---------------------------------------------------------------------
 Center     Atomic      Atomic             Coordinates (Angstroms)
 Number     Number       Type             X           Y           Z
 ---------------------------------------------------------------------
      1          6           0        1.162679   -0.011051   -0.018444
      2          6           0       -0.275032    0.030406    0.015144
      3          7           0       -1.428540   -0.017331   -0.006771
      4          1           0        1.523586    1.017566   -0.049236
      5          1           0        1.588868   -0.569889   -0.759867
      6          1           0        1.561449   -0.442481    0.876299
 ---------------------------------------------------------------------

 SCF Done:  E(RB2PLYPD3) =  -132.530418531     A.U. after   12 cycles
 E2(B2PLYPD3) =    -0.1802868487D+00 E(B2PLYPD3) =    -0.13271070537946D+03

 The electronic state is 1-A.
 Alpha  occ. eigenvalues --  -14.84255 -10.66262 -10.65993  -1.04222  -0.90163
 Alpha  occ. eigenvalues --   -0.61399  -0.54737  -0.53558  -0.44906  -0.39175
 Alpha  occ. eigenvalues --   -0.38944
 Alpha virt. eigenvalues --    0.03886   0.07920   0.08058   0.10050   0.11429
 Alpha virt. eigenvalues --    0.11676   0.15591   0.16143   0.17240   0.20044
 Alpha virt. eigenvalues --    0.20210   0.25811   0.33093   0.34468   0.35565

 Mulliken charges:
               1
     1  C   -0.062918
     2  C    0.003983
     3  N   -0.207010
     4  H    0.089985
     5  H    0.091702
     6  H    0.084257
 Sum of Mulliken charges =   0.00000

 Dipole moment (field-independent basis, Debye):
    X=              4.1346    Y=              0.0014    Z=              0.0298  Tot=              4.1347
 Quadrupole moment (field-independent basis, Debye-Ang):
   XX=            -20.7307   YY=            -17.6232   ZZ=            -17.9029
   XY=             -0.1962   XZ=              0.0023   YZ=              0.0444

 Normal termination of Gaussian 09 at Wed Aug 26 11:21:54 2020.
