 Gaussian 09, Revision D.01,
 Gaussian 09:  ES64L-G09RevD.01 24-Apr-2013

 --------------------
 #p B2PLYPD3/Def2QZVP
 --------------------

 ------------
 cyanomethane
 ------------
 Symbolic Z-matrix:
 Charge =  0 Multiplicity = 1

                         Standard orientation:
 ---------------------------------------------------------------------
 Center     Atomic      Atomic             Coordinates (Angstroms)
 Number     Number       Type             X           Y           Z
 ---------------------------------------------------------------------
      1          6           0       -1.167380    0.019622    0.007056
      2          6           0        0.285100   -0.009595   -0.040668
      3          7           0        1.424448    0.000056    0.020238
      4          1           0       -1.522823    1.054081   -0.008026
      5          1           0       -1.570374   -0.532878    0.917696
      6          1           0       -1.584260   -0.581758   -0.849667
 ---------------------------------------------------------------------

 SCF Done:  E(RB2PLYPD3) =  -132.532241028     A.U. after   11 cycles
 E2(B2PLYPD3) =    -0.1798138763D+00 E(B2PLYPD3) =    -0.13271205490434D+03

 The electronic state is 1-A.
 Alpha  occ. eigenvalues --  -14.83841 -10.67923 -10.65859  -1.04696  -0.88556
 Alpha  occ. eigenvalues --   -0.59383  -0.54346  -0.52020  -0.44779  -0.39481
 Alpha  occ. eigenvalues --   -0.39081
 Alpha virt. eigenvalues --    0.03562   0.07417   0.07987   0.10152   0.11525
 Alpha virt. eigenvalues --    0.11931   0.15390   0.16063   0.16897   0.19939
 Alpha virt. eigenvalues --    0.20082   0.25559   0.32665   0.33518   0.34846

 Mulliken charges:
               1
     1  C   -0.094020
     2  C   -0.001342
     3  N   -0.197901
     4  H    0.105057
     5  H    0.094869
     6  H    0.093337
 Sum of Mulliken charges =   0.00000

 Dipole moment (field-independent basis, Debye):
    X=             -4.0830    Y=             -0.0228    Z=             -0.0290  Tot=              4.0832
 Quadrupole moment (field-independent basis, Debye-Ang):
   XX=            -21.0567   YY=            -17.5573   ZZ=            -17.9315
   XY=              0.1131   XZ=             -0.1190   YZ=              0.0007

 Normal termination of Gaussian 09 at Wed Aug 26 10:27:52 2020.
