 Gaussian 09, Revision D.01,
 Gaussian 09:  ES64L-G09RevD.01 24-Apr-2013

 --------------------
 #p B2PLYPD3/Def2QZVP
 --------------------

 ------------
 cyanomethane
 ------------
 Symbolic Z-matrix:
 Charge =  0 Multiplicity = 1

                         Standard orientation:
 ---------------------------------------------------------------------
 Center     Atomic      Atomic             Coordinates (Angstroms)
 Number     Number       Type             X           Y           Z
 ---------------------------------------------------------------------
      1          6           0        1.173249    0.001814    0.002008
      2          6           0       -0.277287   -0.003570   -0.011642
      3          7           0       -1.433313    0.001372    0.001388
      4          1           0        1.562829    0.999654   -0.205015
      5          1           0        1.602118   -0.699277   -0.701405
      6          1           0        1.492466   -0.299441    0.954501
 ---------------------------------------------------------------------

 SCF Done:  E(RB2PLYPD3) =  -132.534471972     A.U. after   12 cycles
 E2(B2PLYPD3) =    -0.1804191901D+00 E(B2PLYPD3) =    -0.13271489116223D+03

 The electronic state is 1-A.
 Alpha  occ. eigenvalues --  -14.84246 -10.66563 -10.66292  -1.04087  -0.89704
 Alpha  occ. eigenvalues --   -0.60244  -0.54460  -0.53909  -0.44826  -0.39067
 Alpha  occ. eigenvalues --   -0.39020
 Alpha virt. eigenvalues --    0.03835   0.07791   0.08209   0.10188   0.11408
 Alpha virt. eigenvalues --    0.11501   0.15496   0.16127   0.16757   0.20091
 Alpha virt. eigenvalues --    0.20127   0.25477   0.32817   0.34868   0.34970

 Mulliken charges:
               1
     1  C   -0.074523
     2  C   -0.000427
     3  N   -0.207388
     4  H    0.094820
     5  H    0.092040
     6  H    0.095478
 Sum of Mulliken charges =   0.00000

 Dipole moment (field-independent basis, Debye):
    X=              4.1395    Y=             -0.0166    Z=              0.0207  Tot=              4.1396
 Quadrupole moment (field-independent basis, Debye-Ang):
   XX=            -20.8814   YY=            -17.6811   ZZ=            -17.8286
   XY=             -0.0334   XZ=             -0.0173   YZ=             -0.0179

 Normal termination of Gaussian 09 at Wed Aug 26 09:32:24 2020.
