 Gaussian 09, Revision D.01,
 Gaussian 09:  ES64L-G09RevD.01 24-Apr-2013

 --------------------
 #p B2PLYPD3/Def2QZVP
 --------------------

 ------------
 cyanomethane
 ------------
 Symbolic Z-matrix:
 Charge =  0 Multiplicity = 1

                         Standard orientation:
 ---------------------------------------------------------------------
 Center     Atomic      Atomic             Coordinates (Angstroms)
 Number     Number       Type             X           Y           Z
 ---------------------------------------------------------------------
      1          6           0       -1.165148   -0.004341   -0.000050
      2          6           0        0.285110    0.000810   -0.034269
      3          7           0        1.429171    0.003512    0.013924
      4          1           0       -1.616454    1.043341    0.106640
      5          1           0       -1.500142   -0.586288    0.879009
      6          1           0       -1.607372   -0.460455   -0.877204
 ---------------------------------------------------------------------

 SCF Done:  E(RB2PLYPD3) =  -132.533258106     A.U. after   12 cycles
 E2(B2PLYPD3) =    -0.1800287686D+00 E(B2PLYPD3) =    -0.13271328687420D+03

 The electronic state is 1-A.
 Alpha  occ. eigenvalues --  -14.84027 -10.67643 -10.66070  -1.04585  -0.88756
 Alpha  occ. eigenvalues --   -0.60034  -0.53589  -0.52673  -0.44869  -0.39327
 Alpha  occ. eigenvalues --   -0.39174
 Alpha virt. eigenvalues --    0.03607   0.07372   0.07962   0.10181   0.11580
 Alpha virt. eigenvalues --    0.11806   0.15463   0.16374   0.16857   0.19998
 Alpha virt. eigenvalues --    0.20070   0.25547   0.32611   0.34086   0.34625

 Mulliken charges:
               1
     1  C   -0.084890
     2  C    0.000468
     3  N   -0.199932
     4  H    0.092328
     5  H    0.096361
     6  H    0.095665
 Sum of Mulliken charges =   0.00000

 Dipole moment (field-independent basis, Debye):
    X=             -4.1046    Y=             -0.0269    Z=             -0.0136  Tot=              4.1047
 Quadrupole moment (field-independent basis, Debye-Ang):
   XX=            -20.8885   YY=            -17.7736   ZZ=            -17.8133
   XY=             -0.0314   XZ=             -0.0290   YZ=              0.0078

 Normal termination of Gaussian 09 at Wed Aug 26 10:48:08 2020.
