 Gaussian 09, Revision D.01,
 Gaussian 09:  ES64L-G09RevD.01 24-Apr-2013

 --------------------
 #p B2PLYPD3/Def2QZVP
 --------------------

 ------------
 cyanomethane
 ------------
 Symbolic Z-matrix:
 Charge =  0 Multiplicity = 1

                         Standard orientation:
 ---------------------------------------------------------------------
 Center     Atomic      Atomic             Coordinates (Angstroms)
 Number     Number       Type             X           Y           Z
 ---------------------------------------------------------------------
      1          6           0       -1.198218    0.023730   -0.009204
      2          6           0        0.291061    0.018434    0.054424
      3          7           0        1.435328   -0.012080   -0.033889
      4          1           0       -1.609449   -0.622170   -0.741157
      5          1           0       -1.544686    0.884253   -0.124974
      6          1           0       -1.450217   -0.430502    0.832032
 ---------------------------------------------------------------------

 SCF Done:  E(RB2PLYPD3) =  -132.504821259     A.U. after   12 cycles
 E2(B2PLYPD3) =    -0.1791788129D+00 E(B2PLYPD3) =    -0.13268400007207D+03

 The electronic state is 1-A.
 Alpha  occ. eigenvalues --  -14.84074 -10.66153 -10.64397  -1.04373  -0.91266
 Alpha  occ. eigenvalues --   -0.60663  -0.58019  -0.53495  -0.44762  -0.39784
 Alpha  occ. eigenvalues --   -0.39269
 Alpha virt. eigenvalues --    0.03877   0.08524   0.09800   0.10154   0.10865
 Alpha virt. eigenvalues --    0.11544   0.15478   0.15664   0.17541   0.19978
 Alpha virt. eigenvalues --    0.20197   0.24923   0.32974   0.35027   0.36745

 Mulliken charges:
               1
     1  C   -0.068600
     2  C    0.001205
     3  N   -0.203546
     4  H    0.078534
     5  H    0.101230
     6  H    0.091178
 Sum of Mulliken charges =   0.00000

 Dipole moment (field-independent basis, Debye):
    X=             -4.1444    Y=             -0.0241    Z=              0.0750  Tot=              4.1451
 Quadrupole moment (field-independent basis, Debye-Ang):
   XX=            -20.6237   YY=            -17.5168   ZZ=            -17.8096
   XY=              0.1646   XZ=              0.2426   YZ=             -0.0956

 Normal termination of Gaussian 09 at Wed Aug 26 21:12:08 2020.
