 Gaussian 09, Revision D.01,
 Gaussian 09:  ES64L-G09RevD.01 24-Apr-2013

 --------------------
 #p B2PLYPD3/Def2QZVP
 --------------------

 ------------
 cyanomethane
 ------------
 Symbolic Z-matrix:
 Charge =  0 Multiplicity = 1

                         Standard orientation:
 ---------------------------------------------------------------------
 Center     Atomic      Atomic             Coordinates (Angstroms)
 Number     Number       Type             X           Y           Z
 ---------------------------------------------------------------------
      1          6           0       -1.178772   -0.013113    0.017129
      2          6           0        0.262290   -0.001953    0.052044
      3          7           0        1.426828    0.005513   -0.039732
      4          1           0       -1.343571   -0.401646    0.915121
      5          1           0       -1.588850   -0.661627   -0.869108
      6          1           0       -1.556479    1.115078   -0.182928
 ---------------------------------------------------------------------

 SCF Done:  E(RB2PLYPD3) =  -132.508306040     A.U. after   12 cycles
 E2(B2PLYPD3) =    -0.1825236698D+00 E(B2PLYPD3) =    -0.13269082971006D+03

 The electronic state is 1-A.
 Alpha  occ. eigenvalues --  -14.84399 -10.67965 -10.66397  -1.03583  -0.89713
 Alpha  occ. eigenvalues --   -0.58150  -0.56479  -0.51564  -0.44662  -0.38631
 Alpha  occ. eigenvalues --   -0.38187
 Alpha virt. eigenvalues --    0.03142   0.05972   0.08909   0.10052   0.10953
 Alpha virt. eigenvalues --    0.11783   0.14898   0.15369   0.16508   0.20077
 Alpha virt. eigenvalues --    0.20273   0.25558   0.31477   0.32536   0.34820

 Mulliken charges:
               1
     1  C   -0.118208
     2  C    0.002900
     3  N   -0.214154
     4  H    0.121630
     5  H    0.103527
     6  H    0.104305
 Sum of Mulliken charges =   0.00000

 Dipole moment (field-independent basis, Debye):
    X=             -4.0644    Y=             -0.0208    Z=              0.0406  Tot=              4.0646
 Quadrupole moment (field-independent basis, Debye-Ang):
   XX=            -21.5360   YY=            -17.6818   ZZ=            -17.6991
   XY=             -0.0494   XZ=              0.4303   YZ=             -0.1132

 Normal termination of Gaussian 09 at Wed Aug 26 23:45:05 2020.
