 Gaussian 09, Revision D.01,
 Gaussian 09:  ES64L-G09RevD.01 24-Apr-2013

 --------------------
 #p B2PLYPD3/Def2QZVP
 --------------------

 ------------
 cyanomethane
 ------------
 Symbolic Z-matrix:
 Charge =  0 Multiplicity = 1

                         Standard orientation:
 ---------------------------------------------------------------------
 Center     Atomic      Atomic             Coordinates (Angstroms)
 Number     Number       Type             X           Y           Z
 ---------------------------------------------------------------------
      1          6           0       -1.175795    0.007415    0.004424
      2          6           0        0.271799   -0.008404    0.018079
      3          7           0        1.430632    0.004176   -0.011805
      4          1           0       -1.503726   -0.251823    0.996758
      5          1           0       -1.542366   -0.787550   -0.730793
      6          1           0       -1.544352    1.016069   -0.318353
 ---------------------------------------------------------------------

 SCF Done:  E(RB2PLYPD3) =  -132.531833509     A.U. after   12 cycles
 E2(B2PLYPD3) =    -0.1811986007D+00 E(B2PLYPD3) =    -0.13271303210998D+03

 The electronic state is 1-A.
 Alpha  occ. eigenvalues --  -14.84220 -10.67796 -10.66258  -1.03892  -0.89021
 Alpha  occ. eigenvalues --   -0.59042  -0.54454  -0.53047  -0.44718  -0.38868
 Alpha  occ. eigenvalues --   -0.38685
 Alpha virt. eigenvalues --    0.03577   0.07245   0.07984   0.10136   0.11368
 Alpha virt. eigenvalues --    0.11620   0.15337   0.15760   0.16343   0.20096
 Alpha virt. eigenvalues --    0.20157   0.25483   0.32468   0.33675   0.34524

 Mulliken charges:
               1
     1  C   -0.101054
     2  C   -0.000022
     3  N   -0.208925
     4  H    0.105533
     5  H    0.099823
     6  H    0.104644
 Sum of Mulliken charges =   0.00000

 Dipole moment (field-independent basis, Debye):
    X=             -4.1070    Y=             -0.0128    Z=              0.0251  Tot=              4.1071
 Quadrupole moment (field-independent basis, Debye-Ang):
   XX=            -21.2723   YY=            -17.6915   ZZ=            -17.7552
   XY=             -0.0120   XZ=              0.0790   YZ=             -0.0452

 Normal termination of Gaussian 09 at Wed Aug 26 23:12:36 2020.
