 Gaussian 09, Revision D.01,
 Gaussian 09:  ES64L-G09RevD.01 24-Apr-2013

 --------------------
 #p B2PLYPD3/Def2QZVP
 --------------------

 ------------
 cyanomethane
 ------------
 Symbolic Z-matrix:
 Charge =  0 Multiplicity = 1

                         Standard orientation:
 ---------------------------------------------------------------------
 Center     Atomic      Atomic             Coordinates (Angstroms)
 Number     Number       Type             X           Y           Z
 ---------------------------------------------------------------------
      1          6           0        1.187155    0.025348   -0.010570
      2          6           0       -0.298592    0.020430   -0.067081
      3          7           0       -1.427882   -0.008587    0.041714
      4          1           0        1.600967   -0.371541    0.960677
      5          1           0        1.606402    0.909508   -0.134046
      6          1           0        1.456421   -0.752522   -0.652718
 ---------------------------------------------------------------------

 SCF Done:  E(RB2PLYPD3) =  -132.520285537     A.U. after   12 cycles
 E2(B2PLYPD3) =    -0.1787563070D+00 E(B2PLYPD3) =    -0.13269904184436D+03

 The electronic state is 1-A.
 Alpha  occ. eigenvalues --  -14.83733 -10.66170 -10.65822  -1.04925  -0.89654
 Alpha  occ. eigenvalues --   -0.60349  -0.56755  -0.51554  -0.44766  -0.40085
 Alpha  occ. eigenvalues --   -0.39306
 Alpha virt. eigenvalues --    0.03586   0.08021   0.09461   0.10206   0.11013
 Alpha virt. eigenvalues --    0.11881   0.15456   0.15987   0.17525   0.19838
 Alpha virt. eigenvalues --    0.20127   0.25083   0.32886   0.33683   0.36350

 Mulliken charges:
               1
     1  C   -0.073478
     2  C   -0.002011
     3  N   -0.194901
     4  H    0.077640
     5  H    0.099425
     6  H    0.093325
 Sum of Mulliken charges =   0.00000

 Dipole moment (field-independent basis, Debye):
    X=              4.1030    Y=             -0.0299    Z=             -0.0518  Tot=              4.1034
 Quadrupole moment (field-independent basis, Debye-Ang):
   XX=            -20.7523   YY=            -17.4547   ZZ=            -17.9794
   XY=             -0.0683   XZ=              0.3846   YZ=              0.0580

 Normal termination of Gaussian 09 at Wed Aug 26 20:46:56 2020.
