 Gaussian 09, Revision D.01,
 Gaussian 09:  ES64L-G09RevD.01 24-Apr-2013

 --------------------
 #p B2PLYPD3/Def2QZVP
 --------------------

 ------------
 cyanomethane
 ------------
 Symbolic Z-matrix:
 Charge =  0 Multiplicity = 1

                         Standard orientation:
 ---------------------------------------------------------------------
 Center     Atomic      Atomic             Coordinates (Angstroms)
 Number     Number       Type             X           Y           Z
 ---------------------------------------------------------------------
      1          6           0        1.171387   -0.008054    0.001967
      2          6           0       -0.290501    0.020527   -0.022928
      3          7           0       -1.434427   -0.005582    0.014441
      4          1           0        1.516191   -0.750114   -0.664475
      5          1           0        1.605716   -0.234398    0.970959
      6          1           0        1.633769    0.948746   -0.281802
 ---------------------------------------------------------------------

 SCF Done:  E(RB2PLYPD3) =  -132.534076480     A.U. after   12 cycles
 E2(B2PLYPD3) =    -0.1796469494D+00 E(B2PLYPD3) =    -0.13271372342929D+03

 The electronic state is 1-A.
 Alpha  occ. eigenvalues --  -14.84086 -10.66798 -10.66165  -1.04606  -0.89203
 Alpha  occ. eigenvalues --   -0.60555  -0.54221  -0.52866  -0.44912  -0.39485
 Alpha  occ. eigenvalues --   -0.39367
 Alpha virt. eigenvalues --    0.03777   0.07716   0.08334   0.10193   0.11468
 Alpha virt. eigenvalues --    0.11671   0.15491   0.16510   0.17093   0.19980
 Alpha virt. eigenvalues --    0.20098   0.25351   0.32797   0.34745   0.35142

 Mulliken charges:
               1
     1  C   -0.068185
     2  C    0.000689
     3  N   -0.200227
     4  H    0.092852
     5  H    0.088198
     6  H    0.086673
 Sum of Mulliken charges =   0.00000

 Dipole moment (field-independent basis, Debye):
    X=              4.1286    Y=             -0.0046    Z=             -0.0188  Tot=              4.1286
 Quadrupole moment (field-independent basis, Debye-Ang):
   XX=            -20.6761   YY=            -17.7732   ZZ=            -17.8421
   XY=              0.0130   XZ=              0.1367   YZ=              0.0470

 Normal termination of Gaussian 09 at Wed Aug 26 14:12:22 2020.
