 Gaussian 09, Revision D.01,
 Gaussian 09:  ES64L-G09RevD.01 24-Apr-2013

 --------------------
 #p B2PLYPD3/Def2QZVP
 --------------------

 ------------
 cyanomethane
 ------------
 Symbolic Z-matrix:
 Charge =  0 Multiplicity = 1

                         Standard orientation:
 ---------------------------------------------------------------------
 Center     Atomic      Atomic             Coordinates (Angstroms)
 Number     Number       Type             X           Y           Z
 ---------------------------------------------------------------------
      1          6           0       -1.183684   -0.002601   -0.003453
      2          6           0        0.283041    0.010129   -0.006802
      3          7           0        1.435471   -0.002552    0.006622
      4          1           0       -1.584946   -0.033822    0.997212
      5          1           0       -1.499819   -0.893138   -0.511883
      6          1           0       -1.559677    0.899660   -0.470151
 ---------------------------------------------------------------------

 SCF Done:  E(RB2PLYPD3) =  -132.535333253     A.U. after   11 cycles
 E2(B2PLYPD3) =    -0.1801593045D+00 E(B2PLYPD3) =    -0.13271549255758D+03

 The electronic state is 1-A.
 Alpha  occ. eigenvalues --  -14.84128 -10.66880 -10.66215  -1.04164  -0.89319
 Alpha  occ. eigenvalues --   -0.59665  -0.54724  -0.53516  -0.44751  -0.39217
 Alpha  occ. eigenvalues --   -0.39110
 Alpha virt. eigenvalues --    0.03810   0.07974   0.08298   0.10214   0.11307
 Alpha virt. eigenvalues --    0.11519   0.15327   0.16239   0.16479   0.20036
 Alpha virt. eigenvalues --    0.20124   0.25171   0.32723   0.34646   0.35005

 Mulliken charges:
               1
     1  C   -0.081367
     2  C   -0.002661
     3  N   -0.205405
     4  H    0.093167
     5  H    0.099189
     6  H    0.097077
 Sum of Mulliken charges =   0.00000

 Dipole moment (field-independent basis, Debye):
    X=             -4.1335    Y=             -0.0011    Z=              0.0065  Tot=              4.1335
 Quadrupole moment (field-independent basis, Debye-Ang):
   XX=            -20.9772   YY=            -17.6266   ZZ=            -17.8487
   XY=             -0.0203   XZ=             -0.1252   YZ=              0.0113

 Normal termination of Gaussian 09 at Thu Aug 27 00:07:40 2020.
