 Gaussian 09, Revision D.01,
 Gaussian 09:  ES64L-G09RevD.01 24-Apr-2013

 --------------------
 #p B2PLYPD3/Def2QZVP
 --------------------

 ------------
 cyanomethane
 ------------
 Symbolic Z-matrix:
 Charge =  0 Multiplicity = 1

                         Standard orientation:
 ---------------------------------------------------------------------
 Center     Atomic      Atomic             Coordinates (Angstroms)
 Number     Number       Type             X           Y           Z
 ---------------------------------------------------------------------
      1          6           0        1.164272    0.004097    0.007504
      2          6           0       -0.271940   -0.004102   -0.020812
      3          7           0       -1.433100    0.002688    0.009993
      4          1           0        1.572469    1.015965   -0.223319
      5          1           0        1.550948   -0.714806   -0.761320
      6          1           0        1.554294   -0.319946    0.994533
 ---------------------------------------------------------------------

 SCF Done:  E(RB2PLYPD3) =  -132.532908109     A.U. after   12 cycles
 E2(B2PLYPD3) =    -0.1814568361D+00 E(B2PLYPD3) =    -0.13271436494504D+03

 The electronic state is 1-A.
 Alpha  occ. eigenvalues --  -14.84413 -10.67702 -10.66425  -1.03909  -0.89035
 Alpha  occ. eigenvalues --   -0.59957  -0.53504  -0.53250  -0.44880  -0.38790
 Alpha  occ. eigenvalues --   -0.38702
 Alpha virt. eigenvalues --    0.03624   0.07260   0.07371   0.10096   0.11533
 Alpha virt. eigenvalues --    0.11593   0.15498   0.16077   0.16621   0.20115
 Alpha virt. eigenvalues --    0.20141   0.25736   0.32639   0.34006   0.34387

 Mulliken charges:
               1
     1  C   -0.088652
     2  C    0.002395
     3  N   -0.208737
     4  H    0.098869
     5  H    0.096629
     6  H    0.099496
 Sum of Mulliken charges =   0.00000

 Dipole moment (field-independent basis, Debye):
    X=              4.1218    Y=             -0.0095    Z=             -0.0118  Tot=              4.1218
 Quadrupole moment (field-independent basis, Debye-Ang):
   XX=            -21.0339   YY=            -17.7828   ZZ=            -17.8161
   XY=              0.0171   XZ=              0.0562   YZ=             -0.0149

 Normal termination of Gaussian 09 at Wed Aug 26 13:57:00 2020.
