 Gaussian 09, Revision D.01,
 Gaussian 09:  ES64L-G09RevD.01 24-Apr-2013

 --------------------
 #p B2PLYPD3/Def2QZVP
 --------------------

 ------------
 cyanomethane
 ------------
 Symbolic Z-matrix:
 Charge =  0 Multiplicity = 1

                         Standard orientation:
 ---------------------------------------------------------------------
 Center     Atomic      Atomic             Coordinates (Angstroms)
 Number     Number       Type             X           Y           Z
 ---------------------------------------------------------------------
      1          6           0       -1.191530    0.030990    0.003805
      2          6           0        0.262802   -0.077470   -0.003907
      3          7           0        1.459244    0.040579   -0.002551
      4          1           0       -1.473380   -0.261874    0.911653
      5          1           0       -1.554582   -0.706101   -0.657256
      6          1           0       -1.614378    0.962804   -0.235925
 ---------------------------------------------------------------------

 SCF Done:  E(RB2PLYPD3) =  -132.515686479     A.U. after   13 cycles
 E2(B2PLYPD3) =    -0.1844472875D+00 E(B2PLYPD3) =    -0.13270013376695D+03

 The electronic state is 1-A.
 Alpha  occ. eigenvalues --  -14.85612 -10.67700 -10.65532  -1.02379  -0.90727
 Alpha  occ. eigenvalues --   -0.60913  -0.55742  -0.54568  -0.45023  -0.38188
 Alpha  occ. eigenvalues --   -0.37999
 Alpha virt. eigenvalues --    0.03596   0.06767   0.07982   0.09873   0.10984
 Alpha virt. eigenvalues --    0.11168   0.15195   0.15530   0.17310   0.20334
 Alpha virt. eigenvalues --    0.20407   0.25782   0.32515   0.35032   0.35481

 Mulliken charges:
               1
     1  C   -0.064016
     2  C    0.009574
     3  N   -0.225972
     4  H    0.096042
     5  H    0.087910
     6  H    0.096461
 Sum of Mulliken charges =   0.00000

 Dipole moment (field-independent basis, Debye):
    X=             -4.1981    Y=             -0.0744    Z=              0.0270  Tot=              4.1988
 Quadrupole moment (field-independent basis, Debye-Ang):
   XX=            -20.7664   YY=            -17.7604   ZZ=            -17.9839
   XY=             -0.1609   XZ=              0.0283   YZ=             -0.0425

 Normal termination of Gaussian 09 at Wed Aug 26 23:03:37 2020.
