 Gaussian 09, Revision D.01,
 Gaussian 09:  ES64L-G09RevD.01 24-Apr-2013

 --------------------
 #p B2PLYPD3/Def2QZVP
 --------------------

 ------------
 cyanomethane
 ------------
 Symbolic Z-matrix:
 Charge =  0 Multiplicity = 1

                         Standard orientation:
 ---------------------------------------------------------------------
 Center     Atomic      Atomic             Coordinates (Angstroms)
 Number     Number       Type             X           Y           Z
 ---------------------------------------------------------------------
      1          6           0       -1.149353   -0.006054    0.004281
      2          6           0        0.276035    0.001508   -0.035508
      3          7           0        1.429109   -0.011816    0.007417
      4          1           0       -1.476903    1.055002   -0.206435
      5          1           0       -1.475705   -0.237112    0.978990
      6          1           0       -1.811242   -0.707904   -0.637106
 ---------------------------------------------------------------------

 SCF Done:  E(RB2PLYPD3) =  -132.524565327     A.U. after   12 cycles
 E2(B2PLYPD3) =    -0.1811203509D+00 E(B2PLYPD3) =    -0.13270568567777D+03

 The electronic state is 1-A.
 Alpha  occ. eigenvalues --  -14.84306 -10.67464 -10.66373  -1.04355  -0.89344
 Alpha  occ. eigenvalues --   -0.61140  -0.53729  -0.52025  -0.44995  -0.38920
 Alpha  occ. eigenvalues --   -0.38843
 Alpha virt. eigenvalues --    0.03592   0.06485   0.07819   0.10145   0.11745
 Alpha virt. eigenvalues --    0.11887   0.15467   0.15917   0.17822   0.20060
 Alpha virt. eigenvalues --    0.20383   0.25983   0.32124   0.33773   0.34888

 Mulliken charges:
               1
     1  C   -0.082532
     2  C    0.009247
     3  N   -0.205782
     4  H    0.091347
     5  H    0.096584
     6  H    0.091136
 Sum of Mulliken charges =   0.00000

 Dipole moment (field-independent basis, Debye):
    X=             -4.1351    Y=              0.0246    Z=              0.0592  Tot=              4.1356
 Quadrupole moment (field-independent basis, Debye-Ang):
   XX=            -20.6637   YY=            -17.7570   ZZ=            -18.0292
   XY=              0.2420   XZ=             -0.0337   YZ=             -0.0542

 Normal termination of Gaussian 09 at Wed Aug 26 16:37:05 2020.
