 Gaussian 09, Revision D.01,
 Gaussian 09:  ES64L-G09RevD.01 24-Apr-2013

 --------------------
 #p B2PLYPD3/Def2QZVP
 --------------------

 ------------
 cyanomethane
 ------------
 Symbolic Z-matrix:
 Charge =  0 Multiplicity = 1

                         Standard orientation:
 ---------------------------------------------------------------------
 Center     Atomic      Atomic             Coordinates (Angstroms)
 Number     Number       Type             X           Y           Z
 ---------------------------------------------------------------------
      1          6           0        1.167207   -0.004178   -0.014139
      2          6           0       -0.274219    0.030886    0.007782
      3          7           0       -1.428109   -0.017854   -0.005611
      4          1           0        1.522347    1.004777   -0.072460
      5          1           0        1.599209   -0.609978   -0.749119
      6          1           0        1.517280   -0.430074    0.899004
 ---------------------------------------------------------------------

 SCF Done:  E(RB2PLYPD3) =  -132.532442038     A.U. after   12 cycles
 E2(B2PLYPD3) =    -0.1802610157D+00 E(B2PLYPD3) =    -0.13271270305330D+03

 The electronic state is 1-A.
 Alpha  occ. eigenvalues --  -14.84203 -10.66219 -10.66060  -1.04162  -0.90127
 Alpha  occ. eigenvalues --   -0.60837  -0.54997  -0.53739  -0.44840  -0.39146
 Alpha  occ. eigenvalues --   -0.38931
 Alpha virt. eigenvalues --    0.03886   0.07899   0.08282   0.10088   0.11332
 Alpha virt. eigenvalues --    0.11678   0.15567   0.15980   0.17109   0.20040
 Alpha virt. eigenvalues --    0.20212   0.25711   0.33125   0.34614   0.35438

 Mulliken charges:
               1
     1  C   -0.068313
     2  C    0.001439
     3  N   -0.207445
     4  H    0.094124
     5  H    0.092080
     6  H    0.088115
 Sum of Mulliken charges =   0.00000

 Dipole moment (field-independent basis, Debye):
    X=              4.1346    Y=              0.0000    Z=              0.0335  Tot=              4.1347
 Quadrupole moment (field-independent basis, Debye-Ang):
   XX=            -20.8256   YY=            -17.5832   ZZ=            -17.8885
   XY=             -0.1973   XZ=             -0.0180   YZ=              0.0190

 Normal termination of Gaussian 09 at Wed Aug 26 10:33:29 2020.
