 Gaussian 09, Revision D.01,
 Gaussian 09:  ES64L-G09RevD.01 24-Apr-2013

 --------------------
 #p B2PLYPD3/Def2QZVP
 --------------------

 ------------
 cyanomethane
 ------------
 Symbolic Z-matrix:
 Charge =  0 Multiplicity = 1

                         Standard orientation:
 ---------------------------------------------------------------------
 Center     Atomic      Atomic             Coordinates (Angstroms)
 Number     Number       Type             X           Y           Z
 ---------------------------------------------------------------------
      1          6           0        1.167851   -0.000196    0.053114
      2          6           0       -0.273253    0.006025   -0.085500
      3          7           0       -1.457104   -0.001608    0.032987
      4          1           0        1.645869    1.048566   -0.187132
      5          1           0        1.659102   -0.707874   -0.741288
      6          1           0        1.527172   -0.364413    0.891826
 ---------------------------------------------------------------------

 SCF Done:  E(RB2PLYPD3) =  -132.509629968     A.U. after   12 cycles
 E2(B2PLYPD3) =    -0.1844504183D+00 E(B2PLYPD3) =    -0.13269408038583D+03

 The electronic state is 1-A.
 Alpha  occ. eigenvalues --  -14.85564 -10.67673 -10.67605  -1.03037  -0.89102
 Alpha  occ. eigenvalues --   -0.61935  -0.54035  -0.51115  -0.45288  -0.38565
 Alpha  occ. eigenvalues --   -0.38026
 Alpha virt. eigenvalues --    0.03459   0.06020   0.06391   0.09936   0.11131
 Alpha virt. eigenvalues --    0.11585   0.15481   0.15986   0.17540   0.20189
 Alpha virt. eigenvalues --    0.20249   0.26084   0.31401   0.32686   0.35293

 Mulliken charges:
               1
     1  C   -0.075445
     2  C    0.018406
     3  N   -0.217483
     4  H    0.091123
     5  H    0.077823
     6  H    0.105576
 Sum of Mulliken charges =   0.00000

 Dipole moment (field-independent basis, Debye):
    X=              4.1288    Y=             -0.0383    Z=             -0.0148  Tot=              4.1290
 Quadrupole moment (field-independent basis, Debye-Ang):
   XX=            -20.7185   YY=            -17.9014   ZZ=            -18.1378
   XY=             -0.0744   XZ=              0.0932   YZ=             -0.1399

 Normal termination of Gaussian 09 at Wed Aug 26 17:30:06 2020.
