 Gaussian 09, Revision D.01,
 Gaussian 09:  ES64L-G09RevD.01 24-Apr-2013

 --------------------
 #p B2PLYPD3/Def2QZVP
 --------------------

 ------------
 cyanomethane
 ------------
 Symbolic Z-matrix:
 Charge =  0 Multiplicity = 1

                         Standard orientation:
 ---------------------------------------------------------------------
 Center     Atomic      Atomic             Coordinates (Angstroms)
 Number     Number       Type             X           Y           Z
 ---------------------------------------------------------------------
      1          6           0        1.153030   -0.013652    0.007975
      2          6           0       -0.273867   -0.016006   -0.035673
      3          7           0       -1.436667    0.002728    0.005632
      4          1           0        1.605963    0.907634   -0.504916
      5          1           0        1.764442   -0.864481   -0.390044
      6          1           0        1.411287    0.115700    1.021718
 ---------------------------------------------------------------------

 SCF Done:  E(RB2PLYPD3) =  -132.526064775     A.U. after   12 cycles
 E2(B2PLYPD3) =    -0.1818402894D+00 E(B2PLYPD3) =    -0.13270790506412D+03

 The electronic state is 1-A.
 Alpha  occ. eigenvalues --  -14.84613 -10.67337 -10.66701  -1.03983  -0.89434
 Alpha  occ. eigenvalues --   -0.61254  -0.54002  -0.52066  -0.45059  -0.38848
 Alpha  occ. eigenvalues --   -0.38586
 Alpha virt. eigenvalues --    0.03625   0.06533   0.07563   0.10173   0.11564
 Alpha virt. eigenvalues --    0.11814   0.15471   0.15999   0.17726   0.20130
 Alpha virt. eigenvalues --    0.20341   0.25932   0.32206   0.33862   0.35119

 Mulliken charges:
               1
     1  C   -0.075076
     2  C    0.009647
     3  N   -0.210082
     4  H    0.084557
     5  H    0.093205
     6  H    0.097750
 Sum of Mulliken charges =   0.00000

 Dipole moment (field-independent basis, Debye):
    X=              4.1575    Y=              0.0235    Z=              0.0443  Tot=              4.1578
 Quadrupole moment (field-independent basis, Debye-Ang):
   XX=            -20.6162   YY=            -17.9148   ZZ=            -17.9467
   XY=             -0.0295   XZ=             -0.0625   YZ=              0.0468

 Normal termination of Gaussian 09 at Wed Aug 26 21:03:54 2020.
