 Gaussian 09, Revision D.01,
 Gaussian 09:  ES64L-G09RevD.01 24-Apr-2013

 --------------------
 #p B2PLYPD3/Def2QZVP
 --------------------

 ------------
 cyanomethane
 ------------
 Symbolic Z-matrix:
 Charge =  0 Multiplicity = 1

                         Standard orientation:
 ---------------------------------------------------------------------
 Center     Atomic      Atomic             Coordinates (Angstroms)
 Number     Number       Type             X           Y           Z
 ---------------------------------------------------------------------
      1          6           0        1.208914    0.026846    0.011732
      2          6           0       -0.299140   -0.062919    0.006585
      3          7           0       -1.440705    0.029245   -0.006333
      4          1           0        1.524118    1.063246   -0.079725
      5          1           0        1.572204   -0.578631   -0.882880
      6          1           0        1.529966   -0.472893    0.897036
 ---------------------------------------------------------------------

 SCF Done:  E(RB2PLYPD3) =  -132.530787234     A.U. after   12 cycles
 E2(B2PLYPD3) =    -0.1799568395D+00 E(B2PLYPD3) =    -0.13271074407349D+03

 The electronic state is 1-A.
 Alpha  occ. eigenvalues --  -14.83914 -10.67932 -10.66059  -1.04334  -0.88187
 Alpha  occ. eigenvalues --   -0.58073  -0.54895  -0.52631  -0.44592  -0.39550
 Alpha  occ. eigenvalues --   -0.39262
 Alpha virt. eigenvalues --    0.03547   0.07874   0.08720   0.10173   0.11119
 Alpha virt. eigenvalues --    0.11470   0.14926   0.15544   0.16738   0.19939
 Alpha virt. eigenvalues --    0.20066   0.24710   0.32111   0.33733   0.35172

 Mulliken charges:
               1
     1  C   -0.100886
     2  C   -0.005837
     3  N   -0.200753
     4  H    0.108872
     5  H    0.094525
     6  H    0.104079
 Sum of Mulliken charges =   0.00000

 Dipole moment (field-independent basis, Debye):
    X=              4.1121    Y=             -0.0524    Z=              0.0123  Tot=              4.1124
 Quadrupole moment (field-independent basis, Debye-Ang):
   XX=            -21.2092   YY=            -17.6046   ZZ=            -17.8222
   XY=              0.1077   XZ=             -0.0611   YZ=             -0.0698

 Normal termination of Gaussian 09 at Wed Aug 26 23:52:47 2020.
