 Gaussian 09, Revision D.01,
 Gaussian 09:  ES64L-G09RevD.01 24-Apr-2013

 --------------------
 #p B2PLYPD3/Def2QZVP
 --------------------

 ------------
 cyanomethane
 ------------
 Symbolic Z-matrix:
 Charge =  0 Multiplicity = 1

                         Standard orientation:
 ---------------------------------------------------------------------
 Center     Atomic      Atomic             Coordinates (Angstroms)
 Number     Number       Type             X           Y           Z
 ---------------------------------------------------------------------
      1          6           0       -1.168417   -0.001841    0.009441
      2          6           0        0.279685    0.005267    0.004347
      3          7           0        1.430857    0.000098   -0.002647
      4          1           0       -1.556897   -0.392060    0.935085
      5          1           0       -1.531475   -0.652094   -0.829109
      6          1           0       -1.595236    1.022912   -0.170179
 ---------------------------------------------------------------------

 SCF Done:  E(RB2PLYPD3) =  -132.534088632     A.U. after   11 cycles
 E2(B2PLYPD3) =    -0.1804401858D+00 E(B2PLYPD3) =    -0.13271452881732D+03

 The electronic state is 1-A.
 Alpha  occ. eigenvalues --  -14.84131 -10.67549 -10.66171  -1.04295  -0.88955
 Alpha  occ. eigenvalues --   -0.59867  -0.53977  -0.52878  -0.44830  -0.39170
 Alpha  occ. eigenvalues --   -0.38968
 Alpha virt. eigenvalues --    0.03665   0.07453   0.07869   0.10159   0.11499
 Alpha virt. eigenvalues --    0.11722   0.15458   0.16222   0.16667   0.20052
 Alpha virt. eigenvalues --    0.20100   0.25514   0.32666   0.33899   0.34798

 Mulliken charges:
               1
     1  C   -0.087177
     2  C   -0.000043
     3  N   -0.203745
     4  H    0.100127
     5  H    0.095414
     6  H    0.095424
 Sum of Mulliken charges =   0.00000

 Dipole moment (field-independent basis, Debye):
    X=             -4.1144    Y=             -0.0103    Z=              0.0012  Tot=              4.1145
 Quadrupole moment (field-independent basis, Debye-Ang):
   XX=            -20.9890   YY=            -17.7808   ZZ=            -17.7650
   XY=             -0.0231   XZ=              0.0136   YZ=             -0.0330

 Normal termination of Gaussian 09 at Wed Aug 26 11:02:26 2020.
