 Gaussian 09, Revision D.01,
 Gaussian 09:  ES64L-G09RevD.01 24-Apr-2013

 --------------------
 #p B2PLYPD3/Def2QZVP
 --------------------

 ------------
 cyanomethane
 ------------
 Symbolic Z-matrix:
 Charge =  0 Multiplicity = 1

                         Standard orientation:
 ---------------------------------------------------------------------
 Center     Atomic      Atomic             Coordinates (Angstroms)
 Number     Number       Type             X           Y           Z
 ---------------------------------------------------------------------
      1          6           0        1.132230    0.012639   -0.016565
      2          6           0       -0.267587   -0.000263   -0.045248
      3          7           0       -1.427813    0.009245    0.029349
      4          1           0        1.482181   -0.630681   -0.765245
      5          1           0        1.579217   -0.497313    0.944473
      6          1           0        1.745429    0.989021   -0.013793
 ---------------------------------------------------------------------

 SCF Done:  E(RB2PLYPD3) =  -132.518599986     A.U. after   12 cycles
 E2(B2PLYPD3) =    -0.1822355311D+00 E(B2PLYPD3) =    -0.13270083551681D+03

 The electronic state is 1-A.
 Alpha  occ. eigenvalues --  -14.84625 -10.67503 -10.66534  -1.04127  -0.89634
 Alpha  occ. eigenvalues --   -0.61666  -0.54391  -0.51064  -0.45147  -0.38847
 Alpha  occ. eigenvalues --   -0.38213
 Alpha virt. eigenvalues --    0.03308   0.05782   0.07646   0.09918   0.11494
 Alpha virt. eigenvalues --    0.12228   0.15680   0.16087   0.17943   0.20051
 Alpha virt. eigenvalues --    0.20543   0.26399   0.32629   0.32975   0.34909

 Mulliken charges:
               1
     1  C   -0.073624
     2  C    0.010071
     3  N   -0.208252
     4  H    0.096072
     5  H    0.080878
     6  H    0.094855
 Sum of Mulliken charges =   0.00000

 Dipole moment (field-independent basis, Debye):
    X=              4.1413    Y=             -0.0665    Z=             -0.0315  Tot=              4.1419
 Quadrupole moment (field-independent basis, Debye-Ang):
   XX=            -20.5646   YY=            -17.8339   ZZ=            -18.0636
   XY=              0.0912   XZ=              0.2707   YZ=              0.1293

 Normal termination of Gaussian 09 at Wed Aug 26 22:49:24 2020.
