 Gaussian 09, Revision D.01,
 Gaussian 09:  ES64L-G09RevD.01 24-Apr-2013

 --------------------
 #p B2PLYPD3/Def2QZVP
 --------------------

 ------------
 cyanomethane
 ------------
 Symbolic Z-matrix:
 Charge =  0 Multiplicity = 1

                         Standard orientation:
 ---------------------------------------------------------------------
 Center     Atomic      Atomic             Coordinates (Angstroms)
 Number     Number       Type             X           Y           Z
 ---------------------------------------------------------------------
      1          6           0       -1.146146   -0.012501   -0.034912
      2          6           0        0.263291    0.060704    0.011170
      3          7           0        1.432858   -0.034685   -0.002382
      4          1           0       -1.522162    1.100557    0.053254
      5          1           0       -1.595528   -0.576441    0.926813
      6          1           0       -1.615188   -0.570536   -0.820944
 ---------------------------------------------------------------------

 SCF Done:  E(RB2PLYPD3) =  -132.515399494     A.U. after   12 cycles
 E2(B2PLYPD3) =    -0.1834595638D+00 E(B2PLYPD3) =    -0.13269885905760D+03

 The electronic state is 1-A.
 Alpha  occ. eigenvalues --  -14.84870 -10.68471 -10.66811  -1.03621  -0.88893
 Alpha  occ. eigenvalues --   -0.61169  -0.53508  -0.51078  -0.45097  -0.38488
 Alpha  occ. eigenvalues --   -0.37949
 Alpha virt. eigenvalues --    0.03241   0.05937   0.06625   0.09729   0.11471
 Alpha virt. eigenvalues --    0.12011   0.15252   0.16028   0.17434   0.20008
 Alpha virt. eigenvalues --    0.20421   0.26294   0.31888   0.32129   0.34892

 Mulliken charges:
               1
     1  C   -0.094527
     2  C    0.013823
     3  N   -0.212411
     4  H    0.096880
     5  H    0.088241
     6  H    0.107994
 Sum of Mulliken charges =   0.00000

 Dipole moment (field-independent basis, Debye):
    X=             -4.0981    Y=              0.0039    Z=              0.0045  Tot=              4.0981
 Quadrupole moment (field-independent basis, Debye-Ang):
   XX=            -21.0159   YY=            -17.6793   ZZ=            -18.1429
   XY=              0.3657   XZ=             -0.0069   YZ=              0.1253

 Normal termination of Gaussian 09 at Wed Aug 26 23:53:42 2020.
