 Gaussian 09, Revision D.01,
 Gaussian 09:  ES64L-G09RevD.01 24-Apr-2013

 --------------------
 #p B2PLYPD3/Def2QZVP
 --------------------

 ------------
 cyanomethane
 ------------
 Symbolic Z-matrix:
 Charge =  0 Multiplicity = 1

                         Standard orientation:
 ---------------------------------------------------------------------
 Center     Atomic      Atomic             Coordinates (Angstroms)
 Number     Number       Type             X           Y           Z
 ---------------------------------------------------------------------
      1          6           0       -1.189952    0.012534    0.002358
      2          6           0        0.287640   -0.012799   -0.037546
      3          7           0        1.437443    0.007678    0.017883
      4          1           0       -1.521148   -0.174403    0.987318
      5          1           0       -1.540809   -0.814991   -0.578105
      6          1           0       -1.586273    0.937236   -0.323271
 ---------------------------------------------------------------------

 SCF Done:  E(RB2PLYPD3) =  -132.533701647     A.U. after   11 cycles
 E2(B2PLYPD3) =    -0.1798967221D+00 E(B2PLYPD3) =    -0.13271359836916D+03

 The electronic state is 1-A.
 Alpha  occ. eigenvalues --  -14.84125 -10.66452 -10.66225  -1.04209  -0.89519
 Alpha  occ. eigenvalues --   -0.59726  -0.55047  -0.53755  -0.44756  -0.39402
 Alpha  occ. eigenvalues --   -0.39172
 Alpha virt. eigenvalues --    0.03851   0.08263   0.08489   0.10198   0.11161
 Alpha virt. eigenvalues --    0.11510   0.15359   0.15960   0.16884   0.20005
 Alpha virt. eigenvalues --    0.20119   0.25057   0.32737   0.34750   0.35520

 Mulliken charges:
               1
     1  C   -0.074745
     2  C   -0.002604
     3  N   -0.204806
     4  H    0.092351
     5  H    0.092476
     6  H    0.097328
 Sum of Mulliken charges =   0.00000

 Dipole moment (field-independent basis, Debye):
    X=             -4.1386    Y=             -0.0307    Z=              0.0010  Tot=              4.1387
 Quadrupole moment (field-independent basis, Debye-Ang):
   XX=            -20.8951   YY=            -17.6016   ZZ=            -17.8596
   XY=             -0.0324   XZ=             -0.1384   YZ=             -0.0231

 Normal termination of Gaussian 09 at Wed Aug 26 13:33:39 2020.
