 Gaussian 09, Revision D.01,
 Gaussian 09:  ES64L-G09RevD.01 24-Apr-2013

 --------------------
 #p B2PLYPD3/Def2QZVP
 --------------------

 ------------
 cyanomethane
 ------------
 Symbolic Z-matrix:
 Charge =  0 Multiplicity = 1

                         Standard orientation:
 ---------------------------------------------------------------------
 Center     Atomic      Atomic             Coordinates (Angstroms)
 Number     Number       Type             X           Y           Z
 ---------------------------------------------------------------------
      1          6           0        1.181918    0.004327    0.010717
      2          6           0       -0.274464   -0.022994   -0.014197
      3          7           0       -1.436314    0.013521    0.004860
      4          1           0        1.523247   -0.880729   -0.505492
      5          1           0        1.516726    0.010808    1.009450
      6          1           0        1.569496    0.887272   -0.517101
 ---------------------------------------------------------------------

 SCF Done:  E(RB2PLYPD3) =  -132.533848722     A.U. after   11 cycles
 E2(B2PLYPD3) =    -0.1810201806D+00 E(B2PLYPD3) =    -0.13271486890228D+03

 The electronic state is 1-A.
 Alpha  occ. eigenvalues --  -14.84369 -10.66799 -10.66427  -1.03775  -0.89586
 Alpha  occ. eigenvalues --   -0.59669  -0.54906  -0.53806  -0.44767  -0.38926
 Alpha  occ. eigenvalues --   -0.38796
 Alpha virt. eigenvalues --    0.03786   0.07730   0.08181   0.10146   0.11266
 Alpha virt. eigenvalues --    0.11396   0.15403   0.15850   0.16539   0.20111
 Alpha virt. eigenvalues --    0.20159   0.25386   0.32710   0.34418   0.35099

 Mulliken charges:
               1
     1  C   -0.083291
     2  C   -0.001023
     3  N   -0.210762
     4  H    0.097388
     5  H    0.101219
     6  H    0.096468
 Sum of Mulliken charges =   0.00000

 Dipole moment (field-independent basis, Debye):
    X=              4.1366    Y=             -0.0228    Z=             -0.0053  Tot=              4.1367
 Quadrupole moment (field-independent basis, Debye-Ang):
   XX=            -21.0551   YY=            -17.7601   ZZ=            -17.7166
   XY=              0.0973   XZ=              0.0005   YZ=              0.0117

 Normal termination of Gaussian 09 at Wed Aug 26 09:43:20 2020.
