 Gaussian 09, Revision D.01,
 Gaussian 09:  ES64L-G09RevD.01 24-Apr-2013

 --------------------
 #p B2PLYPD3/Def2QZVP
 --------------------

 ------------
 cyanomethane
 ------------
 Symbolic Z-matrix:
 Charge =  0 Multiplicity = 1

                         Standard orientation:
 ---------------------------------------------------------------------
 Center     Atomic      Atomic             Coordinates (Angstroms)
 Number     Number       Type             X           Y           Z
 ---------------------------------------------------------------------
      1          6           0        1.171464   -0.034722   -0.019377
      2          6           0       -0.296424    0.034137   -0.043623
      3          7           0       -1.440945   -0.011595    0.026798
      4          1           0        1.578360   -0.944585   -0.445168
      5          1           0        1.626725    0.070822    1.152064
      6          1           0        1.631293    0.958439   -0.516483
 ---------------------------------------------------------------------

 SCF Done:  E(RB2PLYPD3) =  -132.511838708     A.U. after   12 cycles
 E2(B2PLYPD3) =    -0.1815978240D+00 E(B2PLYPD3) =    -0.13269343653247D+03

 The electronic state is 1-A.
 Alpha  occ. eigenvalues --  -14.84312 -10.69849 -10.66433  -1.04576  -0.87103
 Alpha  occ. eigenvalues --   -0.59328  -0.53342  -0.49600  -0.45007  -0.39518
 Alpha  occ. eigenvalues --   -0.38655
 Alpha virt. eigenvalues --    0.02835   0.05973   0.07416   0.10064   0.11372
 Alpha virt. eigenvalues --    0.12077   0.15243   0.16050   0.17337   0.19871
 Alpha virt. eigenvalues --    0.20106   0.25301   0.30853   0.31529   0.34646

 Mulliken charges:
               1
     1  C   -0.109582
     2  C    0.008554
     3  N   -0.197028
     4  H    0.114404
     5  H    0.089535
     6  H    0.094118
 Sum of Mulliken charges =   0.00000

 Dipole moment (field-independent basis, Debye):
    X=              4.0618    Y=              0.0135    Z=             -0.0488  Tot=              4.0621
 Quadrupole moment (field-independent basis, Debye-Ang):
   XX=            -21.0541   YY=            -17.7455   ZZ=            -18.0924
   XY=             -0.0175   XZ=              0.1903   YZ=              0.1168

 Normal termination of Gaussian 09 at Wed Aug 26 19:26:03 2020.
