 Gaussian 09, Revision D.01,
 Gaussian 09:  ES64L-G09RevD.01 24-Apr-2013

 --------------------
 #p B2PLYPD3/Def2QZVP
 --------------------

 ------------
 cyanomethane
 ------------
 Symbolic Z-matrix:
 Charge =  0 Multiplicity = 1

                         Standard orientation:
 ---------------------------------------------------------------------
 Center     Atomic      Atomic             Coordinates (Angstroms)
 Number     Number       Type             X           Y           Z
 ---------------------------------------------------------------------
      1          6           0        1.200843    0.001999    0.023109
      2          6           0       -0.302313   -0.070102   -0.002591
      3          7           0       -1.429529    0.025380    0.004295
      4          1           0        1.596930    0.170552    0.974162
      5          1           0        1.381059    1.009288   -0.632211
      6          1           0        1.637537   -0.948881   -0.495118
 ---------------------------------------------------------------------

 SCF Done:  E(RB2PLYPD3) =  -132.518197238     A.U. after   12 cycles
 E2(B2PLYPD3) =    -0.1794936676D+00 E(B2PLYPD3) =    -0.13269769090580D+03

 The electronic state is 1-A.
 Alpha  occ. eigenvalues --  -14.83475 -10.69123 -10.65714  -1.04931  -0.87384
 Alpha  occ. eigenvalues --   -0.58704  -0.53344  -0.51416  -0.44536  -0.39852
 Alpha  occ. eigenvalues --   -0.39240
 Alpha virt. eigenvalues --    0.03183   0.07571   0.08254   0.10221   0.11363
 Alpha virt. eigenvalues --    0.12020   0.14755   0.15673   0.16858   0.19832
 Alpha virt. eigenvalues --    0.20054   0.24692   0.31252   0.31994   0.34575

 Mulliken charges:
               1
     1  C   -0.124895
     2  C   -0.001541
     3  N   -0.192351
     4  H    0.111379
     5  H    0.102274
     6  H    0.105134
 Sum of Mulliken charges =   0.00000

 Dipole moment (field-independent basis, Debye):
    X=              4.0597    Y=             -0.0209    Z=              0.0285  Tot=              4.0598
 Quadrupole moment (field-independent basis, Debye-Ang):
   XX=            -21.3699   YY=            -17.5661   ZZ=            -17.8471
   XY=             -0.0019   XZ=              0.1975   YZ=              0.0848

 Normal termination of Gaussian 09 at Wed Aug 26 16:34:26 2020.
