 Gaussian 09, Revision D.01,
 Gaussian 09:  ES64L-G09RevD.01 24-Apr-2013

 --------------------
 #p B2PLYPD3/Def2QZVP
 --------------------

 ------------
 cyanomethane
 ------------
 Symbolic Z-matrix:
 Charge =  0 Multiplicity = 1

                         Standard orientation:
 ---------------------------------------------------------------------
 Center     Atomic      Atomic             Coordinates (Angstroms)
 Number     Number       Type             X           Y           Z
 ---------------------------------------------------------------------
      1          6           0       -1.182573   -0.024848    0.013915
      2          6           0        0.290802    0.031618   -0.010349
      3          7           0        1.437712   -0.010731    0.003682
      4          1           0       -1.553565   -0.333408    0.968419
      5          1           0       -1.545419   -0.689278   -0.802114
      6          1           0       -1.614368    1.057181   -0.213478
 ---------------------------------------------------------------------

 SCF Done:  E(RB2PLYPD3) =  -132.529366109     A.U. after   12 cycles
 E2(B2PLYPD3) =    -0.1804304058D+00 E(B2PLYPD3) =    -0.13270979651522D+03

 The electronic state is 1-A.
 Alpha  occ. eigenvalues --  -14.84098 -10.68277 -10.66214  -1.04402  -0.88178
 Alpha  occ. eigenvalues --   -0.59264  -0.54171  -0.51750  -0.44807  -0.39434
 Alpha  occ. eigenvalues --   -0.39031
 Alpha virt. eigenvalues --    0.03520   0.07222   0.07992   0.10156   0.11380
 Alpha virt. eigenvalues --    0.11729   0.15237   0.16047   0.16811   0.20008
 Alpha virt. eigenvalues --    0.20039   0.25146   0.31677   0.33517   0.35001

 Mulliken charges:
               1
     1  C   -0.097383
     2  C    0.000576
     3  N   -0.200897
     4  H    0.105865
     5  H    0.101730
     6  H    0.090109
 Sum of Mulliken charges =   0.00000

 Dipole moment (field-independent basis, Debye):
    X=             -4.0996    Y=             -0.0032    Z=             -0.0007  Tot=              4.0996
 Quadrupole moment (field-independent basis, Debye-Ang):
   XX=            -21.0778   YY=            -17.8469   ZZ=            -17.7375
   XY=              0.0394   XZ=             -0.0228   YZ=              0.0099

 Normal termination of Gaussian 09 at Wed Aug 26 11:32:09 2020.
