 Gaussian 09, Revision D.01,
 Gaussian 09:  ES64L-G09RevD.01 24-Apr-2013

 --------------------
 #p B2PLYPD3/Def2QZVP
 --------------------

 ------------
 cyanomethane
 ------------
 Symbolic Z-matrix:
 Charge =  0 Multiplicity = 1

                         Standard orientation:
 ---------------------------------------------------------------------
 Center     Atomic      Atomic             Coordinates (Angstroms)
 Number     Number       Type             X           Y           Z
 ---------------------------------------------------------------------
      1          6           0        1.183972   -0.021557   -0.040351
      2          6           0       -0.296533    0.014400    0.062750
      3          7           0       -1.439672   -0.002269   -0.026274
      4          1           0        1.618536    1.083854   -0.114028
      5          1           0        1.531532   -0.626166   -0.782064
      6          1           0        1.603000   -0.398862    0.945616
 ---------------------------------------------------------------------

 SCF Done:  E(RB2PLYPD3) =  -132.523195561     A.U. after   12 cycles
 E2(B2PLYPD3) =    -0.1804188094D+00 E(B2PLYPD3) =    -0.13270361437073D+03

 The electronic state is 1-A.
 Alpha  occ. eigenvalues --  -14.84176 -10.68074 -10.66294  -1.04507  -0.88227
 Alpha  occ. eigenvalues --   -0.59850  -0.54294  -0.51259  -0.44889  -0.39609
 Alpha  occ. eigenvalues --   -0.39073
 Alpha virt. eigenvalues --    0.03465   0.07277   0.07880   0.10074   0.11393
 Alpha virt. eigenvalues --    0.11685   0.15234   0.15837   0.17434   0.19948
 Alpha virt. eigenvalues --    0.20053   0.25298   0.31797   0.32845   0.35268

 Mulliken charges:
               1
     1  C   -0.091488
     2  C    0.003762
     3  N   -0.200006
     4  H    0.091471
     5  H    0.108486
     6  H    0.087776
 Sum of Mulliken charges =   0.00000

 Dipole moment (field-independent basis, Debye):
    X=              4.0905    Y=             -0.0258    Z=              0.0579  Tot=              4.0910
 Quadrupole moment (field-independent basis, Debye-Ang):
   XX=            -20.9519   YY=            -17.7436   ZZ=            -17.9034
   XY=             -0.0184   XZ=             -0.0494   YZ=              0.1333

 Normal termination of Gaussian 09 at Wed Aug 26 18:32:47 2020.
