 Gaussian 09, Revision D.01,
 Gaussian 09:  ES64L-G09RevD.01 24-Apr-2013

 --------------------
 #p B2PLYPD3/Def2QZVP
 --------------------

 ------------
 cyanomethane
 ------------
 Symbolic Z-matrix:
 Charge =  0 Multiplicity = 1

                         Standard orientation:
 ---------------------------------------------------------------------
 Center     Atomic      Atomic             Coordinates (Angstroms)
 Number     Number       Type             X           Y           Z
 ---------------------------------------------------------------------
      1          6           0       -1.177375   -0.012647   -0.028549
      2          6           0        0.305818    0.073534    0.020484
      3          7           0        1.438917   -0.034628   -0.007340
      4          1           0       -1.598913   -0.418997    0.958724
      5          1           0       -1.581781   -0.660488   -0.748500
      6          1           0       -1.662388    0.956558   -0.110454
 ---------------------------------------------------------------------

 SCF Done:  E(RB2PLYPD3) =  -132.529019505     A.U. after   12 cycles
 E2(B2PLYPD3) =    -0.1795408906D+00 E(B2PLYPD3) =    -0.13270856039532D+03

 The electronic state is 1-A.
 Alpha  occ. eigenvalues --  -14.84091 -10.67432 -10.66230  -1.04936  -0.88356
 Alpha  occ. eigenvalues --   -0.60479  -0.54006  -0.51547  -0.45013  -0.39907
 Alpha  occ. eigenvalues --   -0.39475
 Alpha virt. eigenvalues --    0.03559   0.07621   0.08118   0.10112   0.11380
 Alpha virt. eigenvalues --    0.11825   0.15411   0.16414   0.17656   0.19864
 Alpha virt. eigenvalues --    0.20095   0.25287   0.32501   0.33638   0.35570

 Mulliken charges:
               1
     1  C   -0.069903
     2  C    0.004199
     3  N   -0.194919
     4  H    0.079051
     5  H    0.095029
     6  H    0.086543
 Sum of Mulliken charges =   0.00000

 Dipole moment (field-independent basis, Debye):
    X=             -4.1026    Y=              0.0423    Z=              0.0184  Tot=              4.1029
 Quadrupole moment (field-independent basis, Debye-Ang):
   XX=            -20.5754   YY=            -17.8050   ZZ=            -17.9481
   XY=              0.1833   XZ=              0.0020   YZ=              0.0806

 Normal termination of Gaussian 09 at Wed Aug 26 20:42:02 2020.
