 Gaussian 09, Revision D.01,
 Gaussian 09:  ES64L-G09RevD.01 24-Apr-2013

 --------------------
 #p B2PLYPD3/Def2QZVP
 --------------------

 ------------
 cyanomethane
 ------------
 Symbolic Z-matrix:
 Charge =  0 Multiplicity = 1

                         Standard orientation:
 ---------------------------------------------------------------------
 Center     Atomic      Atomic             Coordinates (Angstroms)
 Number     Number       Type             X           Y           Z
 ---------------------------------------------------------------------
      1          6           0        1.176650   -0.007947   -0.004790
      2          6           0       -0.285818    0.005528    0.022674
      3          7           0       -1.435966   -0.000606   -0.009144
      4          1           0        1.586091    1.011546   -0.094330
      5          1           0        1.530535   -0.566680   -0.826272
      6          1           0        1.590144   -0.426115    0.877304
 ---------------------------------------------------------------------

 SCF Done:  E(RB2PLYPD3) =  -132.534650890     A.U. after   11 cycles
 E2(B2PLYPD3) =    -0.1799540502D+00 E(B2PLYPD3) =    -0.13271460493979D+03

 The electronic state is 1-A.
 Alpha  occ. eigenvalues --  -14.84176 -10.66603 -10.66252  -1.04321  -0.89443
 Alpha  occ. eigenvalues --   -0.60342  -0.54429  -0.53482  -0.44860  -0.39331
 Alpha  occ. eigenvalues --   -0.39220
 Alpha virt. eigenvalues --    0.03822   0.07941   0.08268   0.10207   0.11409
 Alpha virt. eigenvalues --    0.11519   0.15460   0.16570   0.16641   0.20046
 Alpha virt. eigenvalues --    0.20076   0.25296   0.32789   0.34675   0.35312

 Mulliken charges:
               1
     1  C   -0.069754
     2  C   -0.000472
     3  N   -0.203856
     4  H    0.089032
     5  H    0.094007
     6  H    0.091043
 Sum of Mulliken charges =   0.00000

 Dipole moment (field-independent basis, Debye):
    X=              4.1376    Y=             -0.0095    Z=              0.0116  Tot=              4.1376
 Quadrupole moment (field-independent basis, Debye-Ang):
   XX=            -20.7767   YY=            -17.7683   ZZ=            -17.7851
   XY=              0.0003   XZ=             -0.0160   YZ=              0.0149

 Normal termination of Gaussian 09 at Wed Aug 26 23:57:22 2020.
