 Gaussian 09, Revision D.01,
 Gaussian 09:  ES64L-G09RevD.01 24-Apr-2013

 --------------------
 #p B2PLYPD3/Def2QZVP
 --------------------

 ------------
 cyanomethane
 ------------
 Symbolic Z-matrix:
 Charge =  0 Multiplicity = 1

                         Standard orientation:
 ---------------------------------------------------------------------
 Center     Atomic      Atomic             Coordinates (Angstroms)
 Number     Number       Type             X           Y           Z
 ---------------------------------------------------------------------
      1          6           0       -1.180547   -0.004615    0.036330
      2          6           0        0.265875    0.043333   -0.028660
      3          7           0        1.431215   -0.021304    0.008352
      4          1           0       -1.532660   -0.735326   -0.704733
      5          1           0       -1.531284    0.911014   -0.301842
      6          1           0       -1.466529   -0.258869    0.902091
 ---------------------------------------------------------------------

 SCF Done:  E(RB2PLYPD3) =  -132.515600965     A.U. after   12 cycles
 E2(B2PLYPD3) =    -0.1810261640D+00 E(B2PLYPD3) =    -0.13269662712867D+03

 The electronic state is 1-A.
 Alpha  occ. eigenvalues --  -14.84464 -10.66464 -10.65159  -1.03628  -0.91107
 Alpha  occ. eigenvalues --   -0.60677  -0.57514  -0.53691  -0.44767  -0.39004
 Alpha  occ. eigenvalues --   -0.38534
 Alpha virt. eigenvalues --    0.03904   0.08013   0.08582   0.10088   0.11069
 Alpha virt. eigenvalues --    0.11448   0.15584   0.15706   0.16621   0.20080
 Alpha virt. eigenvalues --    0.20255   0.25665   0.32831   0.34171   0.36329

 Mulliken charges:
               1
     1  C   -0.075637
     2  C    0.001774
     3  N   -0.215185
     4  H    0.087510
     5  H    0.094087
     6  H    0.107452
 Sum of Mulliken charges =   0.00000

 Dipole moment (field-independent basis, Debye):
    X=             -4.1394    Y=              0.0279    Z=             -0.0319  Tot=              4.1396
 Quadrupole moment (field-independent basis, Debye-Ang):
   XX=            -20.9560   YY=            -17.7287   ZZ=            -17.6214
   XY=              0.1003   XZ=              0.0637   YZ=             -0.0941

 Normal termination of Gaussian 09 at Wed Aug 26 19:09:29 2020.
