 Gaussian 09, Revision D.01,
 Gaussian 09:  ES64L-G09RevD.01 24-Apr-2013

 --------------------
 #p B2PLYPD3/Def2QZVP
 --------------------

 ------------
 cyanomethane
 ------------
 Symbolic Z-matrix:
 Charge =  0 Multiplicity = 1

                         Standard orientation:
 ---------------------------------------------------------------------
 Center     Atomic      Atomic             Coordinates (Angstroms)
 Number     Number       Type             X           Y           Z
 ---------------------------------------------------------------------
      1          6           0       -1.192995   -0.034503    0.016819
      2          6           0        0.284503    0.046602    0.002713
      3          7           0        1.410925   -0.011860   -0.005482
      4          1           0       -1.404302   -0.344239    0.947884
      5          1           0       -1.422981   -0.718688   -0.798298
      6          1           0       -1.598242    1.073356   -0.228406
 ---------------------------------------------------------------------

 SCF Done:  E(RB2PLYPD3) =  -132.519867557     A.U. after   12 cycles
 E2(B2PLYPD3) =    -0.1785540999D+00 E(B2PLYPD3) =    -0.13269842165715D+03

 The electronic state is 1-A.
 Alpha  occ. eigenvalues --  -14.83125 -10.67581 -10.65167  -1.04981  -0.89178
 Alpha  occ. eigenvalues --   -0.57698  -0.56212  -0.52460  -0.44332  -0.39796
 Alpha  occ. eigenvalues --   -0.39327
 Alpha virt. eigenvalues --    0.03588   0.07715   0.09365   0.10176   0.11520
 Alpha virt. eigenvalues --    0.11975   0.15056   0.15723   0.15827   0.19992
 Alpha virt. eigenvalues --    0.20025   0.25015   0.31087   0.33888   0.35340

 Mulliken charges:
               1
     1  C   -0.119873
     2  C   -0.011550
     3  N   -0.193826
     4  H    0.116613
     5  H    0.112237
     6  H    0.096398
 Sum of Mulliken charges =   0.00000

 Dipole moment (field-independent basis, Debye):
    X=             -4.0224    Y=             -0.0088    Z=              0.0073  Tot=              4.0225
 Quadrupole moment (field-independent basis, Debye-Ang):
   XX=            -21.6093   YY=            -17.5323   ZZ=            -17.5023
   XY=             -0.0290   XZ=              0.0693   YZ=             -0.0010

 Normal termination of Gaussian 09 at Wed Aug 26 21:20:53 2020.
