 Gaussian 09, Revision D.01,
 Gaussian 09:  ES64L-G09RevD.01 24-Apr-2013

 --------------------
 #p B2PLYPD3/Def2QZVP
 --------------------

 ------------
 cyanomethane
 ------------
 Symbolic Z-matrix:
 Charge =  0 Multiplicity = 1

                         Standard orientation:
 ---------------------------------------------------------------------
 Center     Atomic      Atomic             Coordinates (Angstroms)
 Number     Number       Type             X           Y           Z
 ---------------------------------------------------------------------
      1          6           0       -1.202164   -0.027541    0.010115
      2          6           0        0.290381    0.040180    0.026052
      3          7           0        1.431148   -0.019013   -0.021614
      4          1           0       -1.585009   -0.733662   -0.767386
      5          1           0       -1.533620    1.058427   -0.288694
      6          1           0       -1.428709   -0.267501    0.990375
 ---------------------------------------------------------------------

 SCF Done:  E(RB2PLYPD3) =  -132.524914269     A.U. after   12 cycles
 E2(B2PLYPD3) =    -0.1799905241D+00 E(B2PLYPD3) =    -0.13270490479281D+03

 The electronic state is 1-A.
 Alpha  occ. eigenvalues --  -14.83745 -10.68087 -10.65860  -1.04403  -0.88471
 Alpha  occ. eigenvalues --   -0.57848  -0.55544  -0.52086  -0.44514  -0.39499
 Alpha  occ. eigenvalues --   -0.39076
 Alpha virt. eigenvalues --    0.03489   0.07418   0.08978   0.10169   0.11183
 Alpha virt. eigenvalues --    0.11669   0.14988   0.15294   0.16647   0.19996
 Alpha virt. eigenvalues --    0.20081   0.24826   0.31717   0.33268   0.35219

 Mulliken charges:
               1
     1  C   -0.112645
     2  C   -0.005618
     3  N   -0.200561
     4  H    0.107138
     5  H    0.097453
     6  H    0.114233
 Sum of Mulliken charges =   0.00000

 Dipole moment (field-independent basis, Debye):
    X=             -4.0779    Y=              0.0197    Z=              0.0290  Tot=              4.0780
 Quadrupole moment (field-independent basis, Debye-Ang):
   XX=            -21.4185   YY=            -17.7289   ZZ=            -17.5888
   XY=              0.1338   XZ=              0.2537   YZ=             -0.0155

 Normal termination of Gaussian 09 at Wed Aug 26 19:31:25 2020.
