 Gaussian 09, Revision D.01,
 Gaussian 09:  ES64L-G09RevD.01 24-Apr-2013

 --------------------
 #p B2PLYPD3/Def2QZVP
 --------------------

 ------------
 cyanomethane
 ------------
 Symbolic Z-matrix:
 Charge =  0 Multiplicity = 1

                         Standard orientation:
 ---------------------------------------------------------------------
 Center     Atomic      Atomic             Coordinates (Angstroms)
 Number     Number       Type             X           Y           Z
 ---------------------------------------------------------------------
      1          6           0       -1.179369   -0.010180    0.009401
      2          6           0        0.284117    0.028757   -0.008583
      3          7           0        1.424136   -0.010126    0.001220
      4          1           0       -1.486605   -0.310983    0.957957
      5          1           0       -1.519661   -0.729581   -0.735117
      6          1           0       -1.591170    0.999982   -0.236283
 ---------------------------------------------------------------------

 SCF Done:  E(RB2PLYPD3) =  -132.534410352     A.U. after   11 cycles
 E2(B2PLYPD3) =    -0.1791937417D+00 E(B2PLYPD3) =    -0.13271360409345D+03

 The electronic state is 1-A.
 Alpha  occ. eigenvalues --  -14.83722 -10.66947 -10.65762  -1.04615  -0.89292
 Alpha  occ. eigenvalues --   -0.59225  -0.54790  -0.53573  -0.44653  -0.39461
 Alpha  occ. eigenvalues --   -0.39331
 Alpha virt. eigenvalues --    0.03798   0.08051   0.08588   0.10214   0.11524
 Alpha virt. eigenvalues --    0.11629   0.15390   0.16255   0.16304   0.20008
 Alpha virt. eigenvalues --    0.20055   0.25281   0.32665   0.34416   0.35142

 Mulliken charges:
               1
     1  C   -0.090278
     2  C   -0.005687
     3  N   -0.199556
     4  H    0.102089
     5  H    0.098120
     6  H    0.095311
 Sum of Mulliken charges =   0.00000

 Dipole moment (field-independent basis, Debye):
    X=             -4.0967    Y=             -0.0021    Z=              0.0075  Tot=              4.0967
 Quadrupole moment (field-independent basis, Debye-Ang):
   XX=            -21.0912   YY=            -17.6378   ZZ=            -17.6906
   XY=              0.0304   XZ=              0.0127   YZ=             -0.0129

 Normal termination of Gaussian 09 at Wed Aug 26 11:24:50 2020.
