 Gaussian 09, Revision D.01,
 Gaussian 09:  ES64L-G09RevD.01 24-Apr-2013

 --------------------
 #p B2PLYPD3/Def2QZVP
 --------------------

 ------------
 cyanomethane
 ------------
 Symbolic Z-matrix:
 Charge =  0 Multiplicity = 1

                         Standard orientation:
 ---------------------------------------------------------------------
 Center     Atomic      Atomic             Coordinates (Angstroms)
 Number     Number       Type             X           Y           Z
 ---------------------------------------------------------------------
      1          6           0       -1.190466    0.026508   -0.001876
      2          6           0        0.281992   -0.073463    0.016322
      3          7           0        1.415487    0.030603   -0.007649
      4          1           0       -1.411207    0.992668   -0.220404
      5          1           0       -1.517716   -0.271395    0.916265
      6          1           0       -1.528638   -0.653765   -0.728992
 ---------------------------------------------------------------------

 SCF Done:  E(RB2PLYPD3) =  -132.527192638     A.U. after   12 cycles
 E2(B2PLYPD3) =    -0.1784981897D+00 E(B2PLYPD3) =    -0.13270569082794D+03

 The electronic state is 1-A.
 Alpha  occ. eigenvalues --  -14.83539 -10.65518 -10.65372  -1.04643  -0.90492
 Alpha  occ. eigenvalues --   -0.58733  -0.56570  -0.55149  -0.44506  -0.39590
 Alpha  occ. eigenvalues --   -0.39479
 Alpha virt. eigenvalues --    0.03948   0.08892   0.09360   0.10229   0.11356
 Alpha virt. eigenvalues --    0.11436   0.15337   0.15656   0.16407   0.19972
 Alpha virt. eigenvalues --    0.20077   0.25432   0.33178   0.35223   0.35858

 Mulliken charges:
               1
     1  C   -0.082639
     2  C   -0.009603
     3  N   -0.200989
     4  H    0.104248
     5  H    0.095327
     6  H    0.093657
 Sum of Mulliken charges =   0.00000

 Dipole moment (field-independent basis, Debye):
    X=             -4.0827    Y=             -0.0562    Z=              0.0184  Tot=              4.0832
 Quadrupole moment (field-independent basis, Debye-Ang):
   XX=            -21.1122   YY=            -17.4633   ZZ=            -17.6203
   XY=             -0.0480   XZ=              0.0110   YZ=             -0.0239

 Normal termination of Gaussian 09 at Wed Aug 26 23:26:57 2020.
