 Gaussian 09, Revision D.01,
 Gaussian 09:  ES64L-G09RevD.01 24-Apr-2013

 --------------------
 #p B2PLYPD3/Def2QZVP
 --------------------

 ------------
 cyanomethane
 ------------
 Symbolic Z-matrix:
 Charge =  0 Multiplicity = 1

                         Standard orientation:
 ---------------------------------------------------------------------
 Center     Atomic      Atomic             Coordinates (Angstroms)
 Number     Number       Type             X           Y           Z
 ---------------------------------------------------------------------
      1          6           0       -1.186731    0.010126    0.001931
      2          6           0        0.264243   -0.013946    0.036350
      3          7           0        1.433790    0.016619   -0.021221
      4          1           0       -1.438813   -0.256392    0.896238
      5          1           0       -1.423597   -0.808654   -0.665527
      6          1           0       -1.639193    0.971631   -0.311847
 ---------------------------------------------------------------------

 SCF Done:  E(RB2PLYPD3) =  -132.517975237     A.U. after   13 cycles
 E2(B2PLYPD3) =    -0.1817042701D+00 E(B2PLYPD3) =    -0.13269967950740D+03

 The electronic state is 1-A.
 Alpha  occ. eigenvalues --  -14.84487 -10.66561 -10.65987  -1.03432  -0.90759
 Alpha  occ. eigenvalues --   -0.59537  -0.56162  -0.54373  -0.44684  -0.38717
 Alpha  occ. eigenvalues --   -0.38457
 Alpha virt. eigenvalues --    0.03683   0.07413   0.09084   0.10106   0.11035
 Alpha virt. eigenvalues --    0.11388   0.14843   0.15494   0.17034   0.20184
 Alpha virt. eigenvalues --    0.20296   0.25497   0.32640   0.34386   0.35263

 Mulliken charges:
               1
     1  C   -0.095774
     2  C    0.000820
     3  N   -0.217365
     4  H    0.109300
     5  H    0.099600
     6  H    0.103419
 Sum of Mulliken charges =   0.00000

 Dipole moment (field-independent basis, Debye):
    X=             -4.1447    Y=             -0.0597    Z=              0.0526  Tot=              4.1455
 Quadrupole moment (field-independent basis, Debye-Ang):
   XX=            -21.1312   YY=            -17.5316   ZZ=            -17.8414
   XY=             -0.1760   XZ=              0.0772   YZ=             -0.0364

 Normal termination of Gaussian 09 at Wed Aug 26 21:21:23 2020.
