 Gaussian 09, Revision D.01,
 Gaussian 09:  ES64L-G09RevD.01 24-Apr-2013

 --------------------
 #p B2PLYPD3/Def2QZVP
 --------------------

 ------------
 cyanomethane
 ------------
 Symbolic Z-matrix:
 Charge =  0 Multiplicity = 1

                         Standard orientation:
 ---------------------------------------------------------------------
 Center     Atomic      Atomic             Coordinates (Angstroms)
 Number     Number       Type             X           Y           Z
 ---------------------------------------------------------------------
      1          6           0       -1.189352   -0.017062   -0.000047
      2          6           0        0.280322    0.034808    0.001676
      3          7           0        1.426281   -0.015031   -0.000104
      4          1           0       -1.517355   -0.138341    1.000878
      5          1           0       -1.486906   -0.803322   -0.623855
      6          1           0       -1.525524    0.940405   -0.386068
 ---------------------------------------------------------------------

 SCF Done:  E(RB2PLYPD3) =  -132.534124074     A.U. after   11 cycles
 E2(B2PLYPD3) =    -0.1795123017D+00 E(B2PLYPD3) =    -0.13271363637527D+03

 The electronic state is 1-A.
 Alpha  occ. eigenvalues --  -14.83821 -10.66499 -10.65869  -1.04299  -0.89697
 Alpha  occ. eigenvalues --   -0.58895  -0.55422  -0.54328  -0.44579  -0.39334
 Alpha  occ. eigenvalues --   -0.39176
 Alpha virt. eigenvalues --    0.03876   0.08532   0.08598   0.10197   0.11338
 Alpha virt. eigenvalues --    0.11458   0.15314   0.15751   0.16377   0.20062
 Alpha virt. eigenvalues --    0.20087   0.25167   0.32827   0.34589   0.35371

 Mulliken charges:
               1
     1  C   -0.089668
     2  C   -0.006722
     3  N   -0.204200
     4  H    0.100504
     5  H    0.103438
     6  H    0.096648
 Sum of Mulliken charges =   0.00000

 Dipole moment (field-independent basis, Debye):
    X=             -4.1077    Y=              0.0246    Z=              0.0009  Tot=              4.1077
 Quadrupole moment (field-independent basis, Debye-Ang):
   XX=            -21.1797   YY=            -17.6365   ZZ=            -17.6210
   XY=              0.0488   XZ=             -0.0158   YZ=              0.0358

 Normal termination of Gaussian 09 at Wed Aug 26 15:44:00 2020.
