 Gaussian 09, Revision D.01,
 Gaussian 09:  ES64L-G09RevD.01 24-Apr-2013

 --------------------
 #p B2PLYPD3/Def2QZVP
 --------------------

 ------------
 cyanomethane
 ------------
 Symbolic Z-matrix:
 Charge =  0 Multiplicity = 1

                         Standard orientation:
 ---------------------------------------------------------------------
 Center     Atomic      Atomic             Coordinates (Angstroms)
 Number     Number       Type             X           Y           Z
 ---------------------------------------------------------------------
      1          6           0       -1.174763    0.004591   -0.003907
      2          6           0        0.282819    0.004847    0.015248
      3          7           0        1.433835   -0.004150   -0.011840
      4          1           0       -1.618680   -0.551176   -0.865772
      5          1           0       -1.548625    1.028595   -0.021628
      6          1           0       -1.517876   -0.504996    0.902236
 ---------------------------------------------------------------------

 SCF Done:  E(RB2PLYPD3) =  -132.534520889     A.U. after   12 cycles
 E2(B2PLYPD3) =    -0.1803872102D+00 E(B2PLYPD3) =    -0.13271490809886D+03

 The electronic state is 1-A.
 Alpha  occ. eigenvalues --  -14.84147 -10.67447 -10.66216  -1.04269  -0.88932
 Alpha  occ. eigenvalues --   -0.59737  -0.54093  -0.52969  -0.44818  -0.39190
 Alpha  occ. eigenvalues --   -0.39059
 Alpha virt. eigenvalues --    0.03683   0.07501   0.08089   0.10167   0.11446
 Alpha virt. eigenvalues --    0.11628   0.15409   0.16007   0.16891   0.20042
 Alpha virt. eigenvalues --    0.20115   0.25372   0.32675   0.34239   0.34708

 Mulliken charges:
               1
     1  C   -0.085827
     2  C   -0.000699
     3  N   -0.203838
     4  H    0.094745
     5  H    0.098953
     6  H    0.096666
 Sum of Mulliken charges =   0.00000

 Dipole moment (field-independent basis, Debye):
    X=             -4.1204    Y=             -0.0010    Z=              0.0275  Tot=              4.1205
 Quadrupole moment (field-independent basis, Debye-Ang):
   XX=            -20.9691   YY=            -17.7155   ZZ=            -17.8344
   XY=              0.0614   XZ=              0.1167   YZ=             -0.0199

 Normal termination of Gaussian 09 at Thu Aug 27 00:14:47 2020.
