 Gaussian 09, Revision D.01,
 Gaussian 09:  ES64L-G09RevD.01 24-Apr-2013

 --------------------
 #p B2PLYPD3/Def2QZVP
 --------------------

 ------------
 cyanomethane
 ------------
 Symbolic Z-matrix:
 Charge =  0 Multiplicity = 1

                         Standard orientation:
 ---------------------------------------------------------------------
 Center     Atomic      Atomic             Coordinates (Angstroms)
 Number     Number       Type             X           Y           Z
 ---------------------------------------------------------------------
      1          6           0        1.177849   -0.002678   -0.006070
      2          6           0       -0.292838   -0.020415    0.023605
      3          7           0       -1.431947    0.014831   -0.016251
      4          1           0        1.636200    1.002040   -0.250320
      5          1           0        1.580162   -0.718291   -0.681393
      6          1           0        1.497202   -0.249002    0.940260
 ---------------------------------------------------------------------

 SCF Done:  E(RB2PLYPD3) =  -132.531029830     A.U. after   12 cycles
 E2(B2PLYPD3) =    -0.1791975036D+00 E(B2PLYPD3) =    -0.13271022733333D+03

 The electronic state is 1-A.
 Alpha  occ. eigenvalues --  -14.83904 -10.66668 -10.65980  -1.04732  -0.89334
 Alpha  occ. eigenvalues --   -0.60025  -0.54638  -0.53026  -0.44823  -0.39620
 Alpha  occ. eigenvalues --   -0.39487
 Alpha virt. eigenvalues --    0.03699   0.07769   0.08920   0.10207   0.11446
 Alpha virt. eigenvalues --    0.11611   0.15473   0.15928   0.17460   0.19979
 Alpha virt. eigenvalues --    0.20099   0.25217   0.32727   0.34530   0.35352

 Mulliken charges:
               1
     1  C   -0.075090
     2  C   -0.002205
     3  N   -0.198080
     4  H    0.089156
     5  H    0.092505
     6  H    0.093714
 Sum of Mulliken charges =   0.00000

 Dipole moment (field-independent basis, Debye):
    X=              4.1195    Y=             -0.0488    Z=              0.0576  Tot=              4.1201
 Quadrupole moment (field-independent basis, Debye-Ang):
   XX=            -20.7574   YY=            -17.6986   ZZ=            -17.8079
   XY=              0.0923   XZ=             -0.0943   YZ=              0.0224

 Normal termination of Gaussian 09 at Wed Aug 26 12:41:21 2020.
