 Gaussian 09, Revision D.01,
 Gaussian 09:  ES64L-G09RevD.01 24-Apr-2013

 --------------------
 #p B2PLYPD3/Def2QZVP
 --------------------

 ------------
 cyanomethane
 ------------
 Symbolic Z-matrix:
 Charge =  0 Multiplicity = 1

                         Standard orientation:
 ---------------------------------------------------------------------
 Center     Atomic      Atomic             Coordinates (Angstroms)
 Number     Number       Type             X           Y           Z
 ---------------------------------------------------------------------
      1          6           0       -1.180954   -0.012762   -0.000233
      2          6           0        0.274591    0.010046    0.027703
      3          7           0        1.428746   -0.006742   -0.015514
      4          1           0       -1.507993   -0.025254    1.000979
      5          1           0       -1.559227   -0.869212   -0.566785
      6          1           0       -1.495830    0.957953   -0.490418
 ---------------------------------------------------------------------

 SCF Done:  E(RB2PLYPD3) =  -132.532695195     A.U. after   12 cycles
 E2(B2PLYPD3) =    -0.1805825004D+00 E(B2PLYPD3) =    -0.13271327769530D+03

 The electronic state is 1-A.
 Alpha  occ. eigenvalues --  -14.84079 -10.67253 -10.66128  -1.04030  -0.89326
 Alpha  occ. eigenvalues --   -0.59115  -0.54891  -0.53454  -0.44667  -0.39058
 Alpha  occ. eigenvalues --   -0.38826
 Alpha virt. eigenvalues --    0.03675   0.07623   0.08389   0.10147   0.11311
 Alpha virt. eigenvalues --    0.11594   0.15325   0.15600   0.16541   0.20081
 Alpha virt. eigenvalues --    0.20147   0.25389   0.32615   0.33847   0.34980

 Mulliken charges:
               1
     1  C   -0.096824
     2  C   -0.002024
     3  N   -0.207666
     4  H    0.103526
     5  H    0.103849
     6  H    0.099138
 Sum of Mulliken charges =   0.00000

 Dipole moment (field-independent basis, Debye):
    X=             -4.1076    Y=              0.0127    Z=              0.0340  Tot=              4.1077
 Quadrupole moment (field-independent basis, Debye-Ang):
   XX=            -21.2333   YY=            -17.6596   ZZ=            -17.7167
   XY=              0.0766   XZ=              0.0727   YZ=              0.0313

 Normal termination of Gaussian 09 at Wed Aug 26 12:32:47 2020.
