 Gaussian 09, Revision D.01,
 Gaussian 09:  ES64L-G09RevD.01 24-Apr-2013

 --------------------
 #p B2PLYPD3/Def2QZVP
 --------------------

 ------------
 cyanomethane
 ------------
 Symbolic Z-matrix:
 Charge =  0 Multiplicity = 1

                         Standard orientation:
 ---------------------------------------------------------------------
 Center     Atomic      Atomic             Coordinates (Angstroms)
 Number     Number       Type             X           Y           Z
 ---------------------------------------------------------------------
      1          6           0       -1.170619    0.006948    0.000858
      2          6           0        0.274794    0.011437   -0.008206
      3          7           0        1.431882   -0.011681    0.005232
      4          1           0       -1.482120    1.020338   -0.080240
      5          1           0       -1.590639   -0.449044    0.898159
      6          1           0       -1.575466   -0.599836   -0.810454
 ---------------------------------------------------------------------

 SCF Done:  E(RB2PLYPD3) =  -132.533959847     A.U. after   12 cycles
 E2(B2PLYPD3) =    -0.1806633416D+00 E(B2PLYPD3) =    -0.13271462318853D+03

 The electronic state is 1-A.
 Alpha  occ. eigenvalues --  -14.84266 -10.66762 -10.66293  -1.04040  -0.89627
 Alpha  occ. eigenvalues --   -0.60217  -0.55041  -0.53086  -0.44824  -0.39043
 Alpha  occ. eigenvalues --   -0.38855
 Alpha virt. eigenvalues --    0.03790   0.07533   0.08195   0.10150   0.11299
 Alpha virt. eigenvalues --    0.11662   0.15443   0.16231   0.16621   0.20043
 Alpha virt. eigenvalues --    0.20192   0.25570   0.32885   0.34450   0.35045

 Mulliken charges:
               1
     1  C   -0.077525
     2  C   -0.000229
     3  N   -0.207991
     4  H    0.100279
     5  H    0.092476
     6  H    0.092991
 Sum of Mulliken charges =   0.00000

 Dipole moment (field-independent basis, Debye):
    X=             -4.1340    Y=              0.0013    Z=             -0.0041  Tot=              4.1340
 Quadrupole moment (field-independent basis, Debye-Ang):
   XX=            -20.9321   YY=            -17.6168   ZZ=            -17.8996
   XY=              0.1933   XZ=             -0.0548   YZ=             -0.0047

 Normal termination of Gaussian 09 at Thu Aug 27 00:07:20 2020.
