 Gaussian 09, Revision D.01,
 Gaussian 09:  ES64L-G09RevD.01 24-Apr-2013

 --------------------
 #p B2PLYPD3/Def2QZVP
 --------------------

 ------------
 cyanomethane
 ------------
 Symbolic Z-matrix:
 Charge =  0 Multiplicity = 1

                         Standard orientation:
 ---------------------------------------------------------------------
 Center     Atomic      Atomic             Coordinates (Angstroms)
 Number     Number       Type             X           Y           Z
 ---------------------------------------------------------------------
      1          6           0       -1.164969    0.008944   -0.001824
      2          6           0        0.288454   -0.010036   -0.037347
      3          7           0        1.421236    0.002146    0.021215
      4          1           0       -1.534551    1.041518    0.044312
      5          1           0       -1.591801   -0.540381    0.880889
      6          1           0       -1.563205   -0.509606   -0.838677
 ---------------------------------------------------------------------

 SCF Done:  E(RB2PLYPD3) =  -132.534013918     A.U. after   11 cycles
 E2(B2PLYPD3) =    -0.1789078893D+00 E(B2PLYPD3) =    -0.13271292180702D+03

 The electronic state is 1-A.
 Alpha  occ. eigenvalues --  -14.83676 -10.67108 -10.65681  -1.04982  -0.89046
 Alpha  occ. eigenvalues --   -0.59964  -0.54485  -0.52576  -0.44787  -0.39682
 Alpha  occ. eigenvalues --   -0.39406
 Alpha virt. eigenvalues --    0.03684   0.07724   0.08509   0.10186   0.11580
 Alpha virt. eigenvalues --    0.11907   0.15524   0.16319   0.16988   0.19915
 Alpha virt. eigenvalues --    0.20061   0.25543   0.33045   0.34143   0.35028

 Mulliken charges:
               1
     1  C   -0.081401
     2  C   -0.003392
     3  N   -0.194573
     4  H    0.097051
     5  H    0.088547
     6  H    0.093769
 Sum of Mulliken charges =   0.00000

 Dipole moment (field-independent basis, Debye):
    X=             -4.0897    Y=             -0.0237    Z=             -0.0375  Tot=              4.0900
 Quadrupole moment (field-independent basis, Debye-Ang):
   XX=            -20.8722   YY=            -17.5965   ZZ=            -17.8527
   XY=              0.0782   XZ=             -0.1442   YZ=              0.0510

 Normal termination of Gaussian 09 at Wed Aug 26 13:50:50 2020.
