 Gaussian 09, Revision D.01,
 Gaussian 09:  ES64L-G09RevD.01 24-Apr-2013

 --------------------
 #p B2PLYPD3/Def2QZVP
 --------------------

 ------------
 cyanomethane
 ------------
 Symbolic Z-matrix:
 Charge =  0 Multiplicity = 1

                         Standard orientation:
 ---------------------------------------------------------------------
 Center     Atomic      Atomic             Coordinates (Angstroms)
 Number     Number       Type             X           Y           Z
 ---------------------------------------------------------------------
      1          6           0        1.185172   -0.007714   -0.004876
      2          6           0       -0.284280    0.005933    0.029457
      3          7           0       -1.425398   -0.001599   -0.018900
      4          1           0        1.552829    0.970345   -0.370524
      5          1           0        1.549624   -0.797853   -0.635876
      6          1           0        1.469984   -0.150608    0.991214
 ---------------------------------------------------------------------

 SCF Done:  E(RB2PLYPD3) =  -132.533948610     A.U. after   12 cycles
 E2(B2PLYPD3) =    -0.1792672303D+00 E(B2PLYPD3) =    -0.13271321584019D+03

 The electronic state is 1-A.
 Alpha  occ. eigenvalues --  -14.83738 -10.66800 -10.65786  -1.04525  -0.89408
 Alpha  occ. eigenvalues --   -0.58999  -0.55004  -0.53835  -0.44618  -0.39422
 Alpha  occ. eigenvalues --   -0.39329
 Alpha virt. eigenvalues --    0.03788   0.08074   0.08883   0.10206   0.11415
 Alpha virt. eigenvalues --    0.11570   0.15356   0.15658   0.16762   0.20025
 Alpha virt. eigenvalues --    0.20073   0.25178   0.32832   0.34551   0.35093

 Mulliken charges:
               1
     1  C   -0.091300
     2  C   -0.006417
     3  N   -0.200690
     4  H    0.097003
     5  H    0.100381
     6  H    0.101024
 Sum of Mulliken charges =   0.00000

 Dipole moment (field-independent basis, Debye):
    X=              4.1007    Y=             -0.0019    Z=              0.0422  Tot=              4.1009
 Quadrupole moment (field-independent basis, Debye-Ang):
   XX=            -21.1225   YY=            -17.6378   ZZ=            -17.6616
   XY=             -0.0048   XZ=             -0.1443   YZ=              0.0139

 Normal termination of Gaussian 09 at Wed Aug 26 11:59:38 2020.
