 Gaussian 09, Revision D.01,
 Gaussian 09:  ES64L-G09RevD.01 24-Apr-2013

 --------------------
 #p B2PLYPD3/Def2QZVP
 --------------------

 ------------
 cyanomethane
 ------------
 Symbolic Z-matrix:
 Charge =  0 Multiplicity = 1

                         Standard orientation:
 ---------------------------------------------------------------------
 Center     Atomic      Atomic             Coordinates (Angstroms)
 Number     Number       Type             X           Y           Z
 ---------------------------------------------------------------------
      1          6           0        1.166789   -0.018544    0.004361
      2          6           0       -0.289485    0.022502    0.042364
      3          7           0       -1.442762   -0.003174   -0.019129
      4          1           0        1.692029    0.985316   -0.216756
      5          1           0        1.504408   -0.647378   -0.752763
      6          1           0        1.639074   -0.339469    0.823074
 ---------------------------------------------------------------------

 SCF Done:  E(RB2PLYPD3) =  -132.522395637     A.U. after   12 cycles
 E2(B2PLYPD3) =    -0.1805538614D+00 E(B2PLYPD3) =    -0.13270294949881D+03

 The electronic state is 1-A.
 Alpha  occ. eigenvalues --  -14.84541 -10.66661 -10.66218  -1.04324  -0.89814
 Alpha  occ. eigenvalues --   -0.62013  -0.54597  -0.52202  -0.45117  -0.39413
 Alpha  occ. eigenvalues --   -0.39125
 Alpha virt. eigenvalues --    0.03659   0.07224   0.08355   0.10204   0.11389
 Alpha virt. eigenvalues --    0.11661   0.15511   0.16863   0.17309   0.20042
 Alpha virt. eigenvalues --    0.20153   0.25463   0.32284   0.34459   0.35705

 Mulliken charges:
               1
     1  C   -0.052347
     2  C    0.011426
     3  N   -0.205729
     4  H    0.076144
     5  H    0.085778
     6  H    0.084728
 Sum of Mulliken charges =   0.00000

 Dipole moment (field-independent basis, Debye):
    X=              4.1504    Y=             -0.0494    Z=              0.0300  Tot=              4.1509
 Quadrupole moment (field-independent basis, Debye-Ang):
   XX=            -20.3853   YY=            -17.8605   ZZ=            -17.9532
   XY=             -0.0240   XZ=             -0.0487   YZ=              0.0185

 Normal termination of Gaussian 09 at Wed Aug 26 19:27:39 2020.
