 Gaussian 09, Revision D.01,
 Gaussian 09:  ES64L-G09RevD.01 24-Apr-2013

 --------------------
 #p B2PLYPD3/Def2QZVP
 --------------------

 ------------
 cyanomethane
 ------------
 Symbolic Z-matrix:
 Charge =  0 Multiplicity = 1

                         Standard orientation:
 ---------------------------------------------------------------------
 Center     Atomic      Atomic             Coordinates (Angstroms)
 Number     Number       Type             X           Y           Z
 ---------------------------------------------------------------------
      1          6           0        1.180496    0.004134   -0.003074
      2          6           0       -0.287703   -0.001318    0.019080
      3          7           0       -1.435592    0.000382   -0.010519
      4          1           0        1.567428    1.014170   -0.146449
      5          1           0        1.571290   -0.639650   -0.804948
      6          1           0        1.553669   -0.394087    0.928996
 ---------------------------------------------------------------------

 SCF Done:  E(RB2PLYPD3) =  -132.535762191     A.U. after   11 cycles
 E2(B2PLYPD3) =    -0.1799596098D+00 E(B2PLYPD3) =    -0.13271572180111D+03

 The electronic state is 1-A.
 Alpha  occ. eigenvalues --  -14.84075 -10.67230 -10.66165  -1.04371  -0.88938
 Alpha  occ. eigenvalues --   -0.59690  -0.53981  -0.53382  -0.44799  -0.39328
 Alpha  occ. eigenvalues --   -0.39244
 Alpha virt. eigenvalues --    0.03737   0.07867   0.08188   0.10203   0.11426
 Alpha virt. eigenvalues --    0.11552   0.15367   0.16233   0.16740   0.20025
 Alpha virt. eigenvalues --    0.20072   0.25182   0.32697   0.34528   0.34831

 Mulliken charges:
               1
     1  C   -0.081902
     2  C   -0.002198
     3  N   -0.202226
     4  H    0.096884
     5  H    0.094411
     6  H    0.095031
 Sum of Mulliken charges =   0.00000

 Dipole moment (field-independent basis, Debye):
    X=              4.1254    Y=             -0.0101    Z=              0.0210  Tot=              4.1254
 Quadrupole moment (field-independent basis, Debye-Ang):
   XX=            -20.9235   YY=            -17.7175   ZZ=            -17.8111
   XY=             -0.0204   XZ=             -0.0614   YZ=             -0.0156

 Normal termination of Gaussian 09 at Wed Aug 26 12:44:10 2020.
