 Gaussian 09, Revision D.01,
 Gaussian 09:  ES64L-G09RevD.01 24-Apr-2013

 --------------------
 #p B2PLYPD3/Def2QZVP
 --------------------

 ------------
 cyanomethane
 ------------
 Symbolic Z-matrix:
 Charge =  0 Multiplicity = 1

                         Standard orientation:
 ---------------------------------------------------------------------
 Center     Atomic      Atomic             Coordinates (Angstroms)
 Number     Number       Type             X           Y           Z
 ---------------------------------------------------------------------
      1          6           0       -1.173585    0.012034    0.007008
      2          6           0        0.272280   -0.008978   -0.002260
      3          7           0        1.431159    0.002446   -0.000923
      4          1           0       -1.519990   -0.153999    0.993269
      5          1           0       -1.558689   -0.826393   -0.627633
      6          1           0       -1.531610    0.944935   -0.387667
 ---------------------------------------------------------------------

 SCF Done:  E(RB2PLYPD3) =  -132.534073479     A.U. after   11 cycles
 E2(B2PLYPD3) =    -0.1807643880D+00 E(B2PLYPD3) =    -0.13271483786734D+03

 The electronic state is 1-A.
 Alpha  occ. eigenvalues --  -14.84249 -10.66869 -10.66276  -1.03941  -0.89618
 Alpha  occ. eigenvalues --   -0.59813  -0.55022  -0.53445  -0.44769  -0.38993
 Alpha  occ. eigenvalues --   -0.38775
 Alpha virt. eigenvalues --    0.03782   0.07660   0.08113   0.10152   0.11326
 Alpha virt. eigenvalues --    0.11571   0.15464   0.16057   0.16411   0.20100
 Alpha virt. eigenvalues --    0.20154   0.25538   0.32705   0.34206   0.35162

 Mulliken charges:
               1
     1  C   -0.084041
     2  C   -0.000978
     3  N   -0.209159
     4  H    0.099816
     5  H    0.093502
     6  H    0.100861
 Sum of Mulliken charges =   0.00000

 Dipole moment (field-independent basis, Debye):
    X=             -4.1282    Y=             -0.0083    Z=              0.0104  Tot=              4.1283
 Quadrupole moment (field-independent basis, Debye-Ang):
   XX=            -21.0580   YY=            -17.6981   ZZ=            -17.7585
   XY=              0.0203   XZ=              0.0095   YZ=             -0.0548

 Normal termination of Gaussian 09 at Thu Aug 27 00:02:51 2020.
