 Gaussian 09, Revision D.01,
 Gaussian 09:  ES64L-G09RevD.01 24-Apr-2013

 --------------------
 #p B2PLYPD3/Def2QZVP
 --------------------

 ------------
 cyanomethane
 ------------
 Symbolic Z-matrix:
 Charge =  0 Multiplicity = 1

                         Standard orientation:
 ---------------------------------------------------------------------
 Center     Atomic      Atomic             Coordinates (Angstroms)
 Number     Number       Type             X           Y           Z
 ---------------------------------------------------------------------
      1          6           0       -1.177100    0.005288   -0.002998
      2          6           0        0.286448    0.013357    0.010938
      3          7           0        1.436819   -0.007133   -0.007523
      4          1           0       -1.591113   -0.592352   -0.800254
      5          1           0       -1.581450    0.967067   -0.088023
      6          1           0       -1.541256   -0.436657    0.893299
 ---------------------------------------------------------------------

 SCF Done:  E(RB2PLYPD3) =  -132.534152152     A.U. after   11 cycles
 E2(B2PLYPD3) =    -0.1798708827D+00 E(B2PLYPD3) =    -0.13271402303518D+03

 The electronic state is 1-A.
 Alpha  occ. eigenvalues --  -14.84193 -10.66332 -10.66265  -1.04324  -0.89637
 Alpha  occ. eigenvalues --   -0.60550  -0.54644  -0.53542  -0.44875  -0.39384
 Alpha  occ. eigenvalues --   -0.39226
 Alpha virt. eigenvalues --    0.03858   0.08005   0.08402   0.10204   0.11324
 Alpha virt. eigenvalues --    0.11558   0.15491   0.16397   0.16943   0.20032
 Alpha virt. eigenvalues --    0.20110   0.25258   0.32901   0.34838   0.35433

 Mulliken charges:
               1
     1  C   -0.064250
     2  C   -0.000042
     3  N   -0.204040
     4  H    0.087736
     5  H    0.091540
     6  H    0.089056
 Sum of Mulliken charges =   0.00000

 Dipole moment (field-independent basis, Debye):
    X=             -4.1456    Y=              0.0005    Z=              0.0186  Tot=              4.1457
 Quadrupole moment (field-independent basis, Debye-Ang):
   XX=            -20.7094   YY=            -17.7317   ZZ=            -17.8273
   XY=              0.0583   XZ=              0.0607   YZ=             -0.0192

 Normal termination of Gaussian 09 at Wed Aug 26 10:07:34 2020.
