 Gaussian 09, Revision D.01,
 Gaussian 09:  ES64L-G09RevD.01 24-Apr-2013

 --------------------
 #p B2PLYPD3/Def2QZVP
 --------------------

 ------------
 cyanomethane
 ------------
 Symbolic Z-matrix:
 Charge =  0 Multiplicity = 1

                         Standard orientation:
 ---------------------------------------------------------------------
 Center     Atomic      Atomic             Coordinates (Angstroms)
 Number     Number       Type             X           Y           Z
 ---------------------------------------------------------------------
      1          6           0       -1.182609    0.011752    0.012740
      2          6           0        0.294711    0.000073   -0.031813
      3          7           0        1.436856   -0.002103    0.014103
      4          1           0       -1.567061    1.064734    0.011182
      5          1           0       -1.565422   -0.566040    0.904724
      6          1           0       -1.598117   -0.554918   -0.900184
 ---------------------------------------------------------------------

 SCF Done:  E(RB2PLYPD3) =  -132.530628242     A.U. after   12 cycles
 E2(B2PLYPD3) =    -0.1801781402D+00 E(B2PLYPD3) =    -0.13271080638254D+03

 The electronic state is 1-A.
 Alpha  occ. eigenvalues --  -14.83969 -10.68632 -10.66097  -1.04581  -0.87783
 Alpha  occ. eigenvalues --   -0.58915  -0.53464  -0.51929  -0.44786  -0.39481
 Alpha  occ. eigenvalues --   -0.39200
 Alpha virt. eigenvalues --    0.03472   0.07438   0.07745   0.10195   0.11470
 Alpha virt. eigenvalues --    0.11768   0.15174   0.16119   0.16826   0.19956
 Alpha virt. eigenvalues --    0.20042   0.25065   0.32131   0.33494   0.34461

 Mulliken charges:
               1
     1  C   -0.100076
     2  C   -0.000813
     3  N   -0.197749
     4  H    0.104127
     5  H    0.100322
     6  H    0.094188
 Sum of Mulliken charges =   0.00000

 Dipole moment (field-independent basis, Debye):
    X=             -4.0978    Y=             -0.0138    Z=             -0.0183  Tot=              4.0978
 Quadrupole moment (field-independent basis, Debye-Ang):
   XX=            -21.0817   YY=            -17.6594   ZZ=            -17.9286
   XY=              0.0732   XZ=             -0.0637   YZ=             -0.0285

 Normal termination of Gaussian 09 at Wed Aug 26 13:37:54 2020.
