 Gaussian 09, Revision D.01,
 Gaussian 09:  ES64L-G09RevD.01 24-Apr-2013

 --------------------
 #p B2PLYPD3/Def2QZVP
 --------------------

 ------------
 cyanomethane
 ------------
 Symbolic Z-matrix:
 Charge =  0 Multiplicity = 1

                         Standard orientation:
 ---------------------------------------------------------------------
 Center     Atomic      Atomic             Coordinates (Angstroms)
 Number     Number       Type             X           Y           Z
 ---------------------------------------------------------------------
      1          6           0        1.165014   -0.015947   -0.003479
      2          6           0       -0.293136    0.045699   -0.028266
      3          7           0       -1.437708   -0.029481    0.022897
      4          1           0        1.742046   -0.421258    0.949873
      5          1           0        1.506639    1.064975   -0.091689
      6          1           0        1.584003   -0.615862   -0.827994
 ---------------------------------------------------------------------

 SCF Done:  E(RB2PLYPD3) =  -132.522925575     A.U. after   12 cycles
 E2(B2PLYPD3) =    -0.1810922607D+00 E(B2PLYPD3) =    -0.13270401783612D+03

 The electronic state is 1-A.
 Alpha  occ. eigenvalues --  -14.84321 -10.68590 -10.66412  -1.04580  -0.87962
 Alpha  occ. eigenvalues --   -0.60077  -0.53299  -0.50893  -0.45045  -0.39347
 Alpha  occ. eigenvalues --   -0.38970
 Alpha virt. eigenvalues --    0.03222   0.06414   0.07809   0.09987   0.11505
 Alpha virt. eigenvalues --    0.11899   0.15377   0.15909   0.17833   0.19901
 Alpha virt. eigenvalues --    0.20417   0.25623   0.32206   0.33024   0.34398

 Mulliken charges:
               1
     1  C   -0.091269
     2  C    0.007376
     3  N   -0.198963
     4  H    0.091119
     5  H    0.092588
     6  H    0.099149
 Sum of Mulliken charges =   0.00000

 Dipole moment (field-independent basis, Debye):
    X=              4.0934    Y=              0.0507    Z=             -0.0506  Tot=              4.0940
 Quadrupole moment (field-independent basis, Debye-Ang):
   XX=            -20.7673   YY=            -17.8343   ZZ=            -18.0165
   XY=             -0.2749   XZ=              0.2252   YZ=              0.0878

 Normal termination of Gaussian 09 at Wed Aug 26 20:45:29 2020.
