 Gaussian 09, Revision D.01,
 Gaussian 09:  ES64L-G09RevD.01 24-Apr-2013

 --------------------
 #p B2PLYPD3/Def2QZVP
 --------------------

 ------------
 cyanomethane
 ------------
 Symbolic Z-matrix:
 Charge =  0 Multiplicity = 1

                         Standard orientation:
 ---------------------------------------------------------------------
 Center     Atomic      Atomic             Coordinates (Angstroms)
 Number     Number       Type             X           Y           Z
 ---------------------------------------------------------------------
      1          6           0       -1.165358    0.022174   -0.005643
      2          6           0        0.271906    0.028592   -0.019763
      3          7           0        1.429555   -0.021676    0.014285
      4          1           0       -1.481930    0.954635   -0.350486
      5          1           0       -1.600735   -0.226405    1.062965
      6          1           0       -1.563506   -0.881095   -0.660036
 ---------------------------------------------------------------------

 SCF Done:  E(RB2PLYPD3) =  -132.522008063     A.U. after   12 cycles
 E2(B2PLYPD3) =    -0.1816688316D+00 E(B2PLYPD3) =    -0.13270367689413D+03

 The electronic state is 1-A.
 Alpha  occ. eigenvalues --  -14.84320 -10.68271 -10.66308  -1.03992  -0.88866
 Alpha  occ. eigenvalues --   -0.59319  -0.55140  -0.51203  -0.44832  -0.38990
 Alpha  occ. eigenvalues --   -0.38390
 Alpha virt. eigenvalues --    0.03286   0.06227   0.08130   0.10093   0.11185
 Alpha virt. eigenvalues --    0.12016   0.15358   0.16042   0.16442   0.19976
 Alpha virt. eigenvalues --    0.20238   0.25652   0.32098   0.32493   0.34790

 Mulliken charges:
               1
     1  C   -0.101436
     2  C    0.002544
     3  N   -0.207308
     4  H    0.112206
     5  H    0.096787
     6  H    0.097208
 Sum of Mulliken charges =   0.00000

 Dipole moment (field-independent basis, Debye):
    X=             -4.0898    Y=              0.0222    Z=             -0.0143  Tot=              4.0899
 Quadrupole moment (field-independent basis, Debye-Ang):
   XX=            -21.2142   YY=            -17.6315   ZZ=            -17.9239
   XY=              0.2214   XZ=             -0.1536   YZ=             -0.0895

 Normal termination of Gaussian 09 at Wed Aug 26 14:55:55 2020.
