 Gaussian 09, Revision D.01,
 Gaussian 09:  ES64L-G09RevD.01 24-Apr-2013

 --------------------
 #p B2PLYPD3/Def2QZVP
 --------------------

 ------------
 cyanomethane
 ------------
 Symbolic Z-matrix:
 Charge =  0 Multiplicity = 1

                         Standard orientation:
 ---------------------------------------------------------------------
 Center     Atomic      Atomic             Coordinates (Angstroms)
 Number     Number       Type             X           Y           Z
 ---------------------------------------------------------------------
      1          6           0        1.178597    0.003155   -0.004670
      2          6           0       -0.272038    0.008962   -0.036005
      3          7           0       -1.418318    0.002519    0.031636
      4          1           0        1.649039   -0.252069    0.952404
      5          1           0        1.530420    1.000945   -0.292780
      6          1           0        1.309412   -0.839206   -0.637024
 ---------------------------------------------------------------------

 SCF Done:  E(RB2PLYPD3) =  -132.525235173     A.U. after   12 cycles
 E2(B2PLYPD3) =    -0.1802592771D+00 E(B2PLYPD3) =    -0.13270549444966D+03

 The electronic state is 1-A.
 Alpha  occ. eigenvalues --  -14.83803 -10.66949 -10.65880  -1.04321  -0.89821
 Alpha  occ. eigenvalues --   -0.59507  -0.56158  -0.52252  -0.44578  -0.39184
 Alpha  occ. eigenvalues --   -0.38742
 Alpha virt. eigenvalues --    0.03729   0.07289   0.08888   0.10180   0.11414
 Alpha virt. eigenvalues --    0.11823   0.14937   0.15504   0.17090   0.20045
 Alpha virt. eigenvalues --    0.20211   0.25505   0.32859   0.33694   0.35196

 Mulliken charges:
               1
     1  C   -0.101076
     2  C   -0.001320
     3  N   -0.205934
     4  H    0.094087
     5  H    0.106468
     6  H    0.107774
 Sum of Mulliken charges =   0.00000

 Dipole moment (field-independent basis, Debye):
    X=              4.0821    Y=             -0.0337    Z=             -0.0178  Tot=              4.0823
 Quadrupole moment (field-independent basis, Debye-Ang):
   XX=            -21.2705   YY=            -17.3435   ZZ=            -17.9713
   XY=              0.0877   XZ=              0.4708   YZ=              0.0427

 Normal termination of Gaussian 09 at Wed Aug 26 23:21:10 2020.
