 Gaussian 09, Revision D.01,
 Gaussian 09:  ES64L-G09RevD.01 24-Apr-2013

 --------------------
 #p B2PLYPD3/Def2QZVP
 --------------------

 ------------
 cyanomethane
 ------------
 Symbolic Z-matrix:
 Charge =  0 Multiplicity = 1

                         Standard orientation:
 ---------------------------------------------------------------------
 Center     Atomic      Atomic             Coordinates (Angstroms)
 Number     Number       Type             X           Y           Z
 ---------------------------------------------------------------------
      1          6           0       -1.152658    0.017356    0.004075
      2          6           0        0.255217   -0.074200   -0.007319
      3          7           0        1.439042    0.036524    0.002972
      4          1           0       -1.557954    0.032924    0.994767
      5          1           0       -1.564877   -0.869347   -0.491876
      6          1           0       -1.565819    0.921814   -0.504229
 ---------------------------------------------------------------------

 SCF Done:  E(RB2PLYPD3) =  -132.526224182     A.U. after   12 cycles
 E2(B2PLYPD3) =    -0.1838678431D+00 E(B2PLYPD3) =    -0.13271009202476D+03

 The electronic state is 1-A.
 Alpha  occ. eigenvalues --  -14.85235 -10.67147 -10.66845  -1.03005  -0.89936
 Alpha  occ. eigenvalues --   -0.61277  -0.54032  -0.53499  -0.45102  -0.38106
 Alpha  occ. eigenvalues --   -0.38046
 Alpha virt. eigenvalues --    0.03499   0.06478   0.07111   0.09846   0.11285
 Alpha virt. eigenvalues --    0.11515   0.15654   0.15885   0.17008   0.20136
 Alpha virt. eigenvalues --    0.20373   0.26452   0.32871   0.34250   0.34630

 Mulliken charges:
               1
     1  C   -0.070879
     2  C    0.008729
     3  N   -0.219986
     4  H    0.094717
     5  H    0.091740
     6  H    0.095678
 Sum of Mulliken charges =   0.00000

 Dipole moment (field-independent basis, Debye):
    X=             -4.1536    Y=             -0.0423    Z=              0.0156  Tot=              4.1539
 Quadrupole moment (field-independent basis, Debye-Ang):
   XX=            -20.8435   YY=            -17.8157   ZZ=            -17.9527
   XY=             -0.1768   XZ=             -0.0519   YZ=              0.0053

 Normal termination of Gaussian 09 at Wed Aug 26 23:33:26 2020.
