 Gaussian 09, Revision D.01,
 Gaussian 09:  ES64L-G09RevD.01 24-Apr-2013

 --------------------
 #p B2PLYPD3/Def2QZVP
 --------------------

 ------------
 cyanomethane
 ------------
 Symbolic Z-matrix:
 Charge =  0 Multiplicity = 1

                         Standard orientation:
 ---------------------------------------------------------------------
 Center     Atomic      Atomic             Coordinates (Angstroms)
 Number     Number       Type             X           Y           Z
 ---------------------------------------------------------------------
      1          6           0        1.170995   -0.004083   -0.000336
      2          6           0       -0.271387    0.009335   -0.010699
      3          7           0       -1.432623   -0.001741    0.004054
      4          1           0        1.585405    0.938560   -0.403086
      5          1           0        1.526824   -0.845018   -0.585564
      6          1           0        1.518483   -0.112863    1.026484
 ---------------------------------------------------------------------

 SCF Done:  E(RB2PLYPD3) =  -132.534716281     A.U. after   11 cycles
 E2(B2PLYPD3) =    -0.1810942674D+00 E(B2PLYPD3) =    -0.13271581054801D+03

 The electronic state is 1-A.
 Alpha  occ. eigenvalues --  -14.84341 -10.67114 -10.66369  -1.03865  -0.89449
 Alpha  occ. eigenvalues --   -0.59868  -0.54257  -0.53715  -0.44807  -0.38838
 Alpha  occ. eigenvalues --   -0.38771
 Alpha virt. eigenvalues --    0.03748   0.07576   0.07806   0.10144   0.11414
 Alpha virt. eigenvalues --    0.11518   0.15472   0.16136   0.16378   0.20115
 Alpha virt. eigenvalues --    0.20154   0.25601   0.32738   0.34422   0.34666

 Mulliken charges:
               1
     1  C   -0.085023
     2  C    0.000059
     3  N   -0.209852
     4  H    0.096812
     5  H    0.099792
     6  H    0.098212
 Sum of Mulliken charges =   0.00000

 Dipole moment (field-independent basis, Debye):
    X=              4.1310    Y=             -0.0042    Z=              0.0057  Tot=              4.1310
 Quadrupole moment (field-independent basis, Debye-Ang):
   XX=            -21.0471   YY=            -17.7247   ZZ=            -17.7854
   XY=              0.0243   XZ=              0.0217   YZ=              0.0188

 Normal termination of Gaussian 09 at Wed Aug 26 10:06:16 2020.
