 Gaussian 09, Revision D.01,
 Gaussian 09:  ES64L-G09RevD.01 24-Apr-2013

 --------------------
 #p B2PLYPD3/Def2QZVP
 --------------------

 ------------
 cyanomethane
 ------------
 Symbolic Z-matrix:
 Charge =  0 Multiplicity = 1

                         Standard orientation:
 ---------------------------------------------------------------------
 Center     Atomic      Atomic             Coordinates (Angstroms)
 Number     Number       Type             X           Y           Z
 ---------------------------------------------------------------------
      1          6           0        1.146502   -0.029335   -0.021925
      2          6           0       -0.278804    0.014186    0.055820
      3          7           0       -1.419469    0.003117   -0.017670
      4          1           0        1.660511    1.051154   -0.113006
      5          1           0        1.413074   -0.566360   -0.825948
      6          1           0        1.656508   -0.415723    0.859278
 ---------------------------------------------------------------------

 SCF Done:  E(RB2PLYPD3) =  -132.521979455     A.U. after   12 cycles
 E2(B2PLYPD3) =    -0.1798751980D+00 E(B2PLYPD3) =    -0.13270185465292D+03

 The electronic state is 1-A.
 Alpha  occ. eigenvalues --  -14.84015 -10.66877 -10.65945  -1.04802  -0.89681
 Alpha  occ. eigenvalues --   -0.60988  -0.55601  -0.51316  -0.44956  -0.39533
 Alpha  occ. eigenvalues --   -0.38914
 Alpha virt. eigenvalues --    0.03545   0.06925   0.08175   0.10196   0.11610
 Alpha virt. eigenvalues --    0.12080   0.15618   0.16762   0.16857   0.19915
 Alpha virt. eigenvalues --    0.20119   0.26147   0.31834   0.33736   0.36064

 Mulliken charges:
               1
     1  C   -0.076414
     2  C    0.004433
     3  N   -0.199936
     4  H    0.080144
     5  H    0.104231
     6  H    0.087542
 Sum of Mulliken charges =   0.00000

 Dipole moment (field-independent basis, Debye):
    X=              4.0865    Y=             -0.0424    Z=              0.0311  Tot=              4.0868
 Quadrupole moment (field-independent basis, Debye-Ang):
   XX=            -20.7095   YY=            -17.8205   ZZ=            -17.7829
   XY=              0.0717   XZ=              0.0681   YZ=              0.1139

 Normal termination of Gaussian 09 at Wed Aug 26 20:43:16 2020.
