 Gaussian 09, Revision D.01,
 Gaussian 09:  ES64L-G09RevD.01 24-Apr-2013

 --------------------
 #p B2PLYPD3/Def2QZVP
 --------------------

 ------------
 cyanomethane
 ------------
 Symbolic Z-matrix:
 Charge =  0 Multiplicity = 1

                         Standard orientation:
 ---------------------------------------------------------------------
 Center     Atomic      Atomic             Coordinates (Angstroms)
 Number     Number       Type             X           Y           Z
 ---------------------------------------------------------------------
      1          6           0        1.165386    0.002694   -0.004980
      2          6           0       -0.275960   -0.009219    0.021372
      3          7           0       -1.431704    0.006511   -0.010881
      4          1           0        1.544222   -0.722983   -0.705448
      5          1           0        1.552336   -0.249846    0.960803
      6          1           0        1.588814    0.966406   -0.277539
 ---------------------------------------------------------------------

 SCF Done:  E(RB2PLYPD3) =  -132.534912653     A.U. after   11 cycles
 E2(B2PLYPD3) =    -0.1805304409D+00 E(B2PLYPD3) =    -0.13271544309372D+03

 The electronic state is 1-A.
 Alpha  occ. eigenvalues --  -14.84295 -10.66592 -10.66305  -1.04131  -0.89686
 Alpha  occ. eigenvalues --   -0.60612  -0.54149  -0.53798  -0.44891  -0.39018
 Alpha  occ. eigenvalues --   -0.39009
 Alpha virt. eigenvalues --    0.03805   0.07658   0.08031   0.10132   0.11483
 Alpha virt. eigenvalues --    0.11549   0.15595   0.16217   0.16873   0.20082
 Alpha virt. eigenvalues --    0.20139   0.25685   0.33005   0.34824   0.34854

 Mulliken charges:
               1
     1  C   -0.070572
     2  C    0.001021
     3  N   -0.207002
     4  H    0.092833
     5  H    0.091668
     6  H    0.092052
 Sum of Mulliken charges =   0.00000

 Dipole moment (field-independent basis, Debye):
    X=              4.1364    Y=             -0.0164    Z=              0.0196  Tot=              4.1365
 Quadrupole moment (field-independent basis, Debye-Ang):
   XX=            -20.8124   YY=            -17.7734   ZZ=            -17.7839
   XY=              0.0531   XZ=             -0.0538   YZ=              0.0054

 Normal termination of Gaussian 09 at Wed Aug 26 23:02:25 2020.
