 Gaussian 09, Revision D.01,
 Gaussian 09:  ES64L-G09RevD.01 24-Apr-2013

 --------------------
 #p B2PLYPD3/Def2QZVP
 --------------------

 ------------
 cyanomethane
 ------------
 Symbolic Z-matrix:
 Charge =  0 Multiplicity = 1

                         Standard orientation:
 ---------------------------------------------------------------------
 Center     Atomic      Atomic             Coordinates (Angstroms)
 Number     Number       Type             X           Y           Z
 ---------------------------------------------------------------------
      1          6           0        1.179538    0.003242   -0.008946
      2          6           0       -0.269635   -0.012910    0.022603
      3          7           0       -1.434377    0.004705   -0.009978
      4          1           0        1.548162   -0.492524    0.901608
      5          1           0        1.504443    1.045933   -0.023136
      6          1           0        1.528623   -0.528335   -0.890564
 ---------------------------------------------------------------------

 SCF Done:  E(RB2PLYPD3) =  -132.534053231     A.U. after   11 cycles
 E2(B2PLYPD3) =    -0.1814337875D+00 E(B2PLYPD3) =    -0.13271548701875D+03

 The electronic state is 1-A.
 Alpha  occ. eigenvalues --  -14.84385 -10.67235 -10.66435  -1.03650  -0.89401
 Alpha  occ. eigenvalues --   -0.59332  -0.54398  -0.54008  -0.44733  -0.38730
 Alpha  occ. eigenvalues --   -0.38664
 Alpha virt. eigenvalues --    0.03725   0.07723   0.07768   0.10134   0.11348
 Alpha virt. eigenvalues --    0.11374   0.15359   0.15857   0.16232   0.20143
 Alpha virt. eigenvalues --    0.20164   0.25483   0.32629   0.34314   0.34613

 Mulliken charges:
               1
     1  C   -0.092501
     2  C   -0.000420
     3  N   -0.212316
     4  H    0.099474
     5  H    0.102803
     6  H    0.102960
 Sum of Mulliken charges =   0.00000

 Dipole moment (field-independent basis, Debye):
    X=              4.1282    Y=             -0.0047    Z=              0.0133  Tot=              4.1283
 Quadrupole moment (field-independent basis, Debye-Ang):
   XX=            -21.1991   YY=            -17.7183   ZZ=            -17.7406
   XY=             -0.0032   XZ=             -0.0348   YZ=              0.0182

 Normal termination of Gaussian 09 at Wed Aug 26 23:59:50 2020.
