 Gaussian 09, Revision D.01,
 Gaussian 09:  ES64L-G09RevD.01 24-Apr-2013

 --------------------
 #p B2PLYPD3/Def2QZVP
 --------------------

 ------------
 cyanomethane
 ------------
 Symbolic Z-matrix:
 Charge =  0 Multiplicity = 1

                         Standard orientation:
 ---------------------------------------------------------------------
 Center     Atomic      Atomic             Coordinates (Angstroms)
 Number     Number       Type             X           Y           Z
 ---------------------------------------------------------------------
      1          6           0       -1.173300   -0.003725    0.018598
      2          6           0        0.302322    0.040991   -0.006842
      3          7           0        1.444162   -0.011866    0.006958
      4          1           0       -1.676255   -0.264427    1.045938
      5          1           0       -1.487351   -0.907459   -0.763851
      6          1           0       -1.719659    1.031354   -0.401329
 ---------------------------------------------------------------------

 SCF Done:  E(RB2PLYPD3) =  -132.505373019     A.U. after   12 cycles
 E2(B2PLYPD3) =    -0.1817726351D+00 E(B2PLYPD3) =    -0.13268714565385D+03

 The electronic state is 1-A.
 Alpha  occ. eigenvalues --  -14.84209 -10.70912 -10.66440  -1.04764  -0.86205
 Alpha  occ. eigenvalues --   -0.58686  -0.51006  -0.50362  -0.44989  -0.39329
 Alpha  occ. eigenvalues --   -0.38970
 Alpha virt. eigenvalues --    0.02814   0.06041   0.06438   0.10172   0.11752
 Alpha virt. eigenvalues --    0.12061   0.15007   0.16000   0.17432   0.19963
 Alpha virt. eigenvalues --    0.20081   0.25054   0.30405   0.31640   0.33239

 Mulliken charges:
               1
     1  C   -0.125332
     2  C    0.012216
     3  N   -0.193833
     4  H    0.108320
     5  H    0.100391
     6  H    0.098237
 Sum of Mulliken charges =   0.00000

 Dipole moment (field-independent basis, Debye):
    X=             -4.0626    Y=             -0.0106    Z=              0.0052  Tot=              4.0626
 Quadrupole moment (field-independent basis, Debye-Ang):
   XX=            -21.0816   YY=            -17.9424   ZZ=            -17.9748
   XY=             -0.0190   XZ=             -0.1597   YZ=             -0.0301

 Normal termination of Gaussian 09 at Wed Aug 26 19:03:25 2020.
