 Gaussian 09, Revision D.01,
 Gaussian 09:  ES64L-G09RevD.01 24-Apr-2013

 --------------------
 #p B2PLYPD3/Def2QZVP
 --------------------

 ------------
 cyanomethane
 ------------
 Symbolic Z-matrix:
 Charge =  0 Multiplicity = 1

                         Standard orientation:
 ---------------------------------------------------------------------
 Center     Atomic      Atomic             Coordinates (Angstroms)
 Number     Number       Type             X           Y           Z
 ---------------------------------------------------------------------
      1          6           0       -1.165760   -0.000033    0.012968
      2          6           0        0.275081    0.006747   -0.008256
      3          7           0        1.431409   -0.002712   -0.000322
      4          1           0       -1.590602   -0.534921   -0.874179
      5          1           0       -1.570772    1.015243   -0.027574
      6          1           0       -1.514418   -0.501628    0.875734
 ---------------------------------------------------------------------

 SCF Done:  E(RB2PLYPD3) =  -132.534051455     A.U. after   11 cycles
 E2(B2PLYPD3) =    -0.1806665557D+00 E(B2PLYPD3) =    -0.13271471801047D+03

 The electronic state is 1-A.
 Alpha  occ. eigenvalues --  -14.84273 -10.66956 -10.66287  -1.04112  -0.89485
 Alpha  occ. eigenvalues --   -0.60307  -0.54665  -0.53000  -0.44864  -0.39070
 Alpha  occ. eigenvalues --   -0.38854
 Alpha virt. eigenvalues --    0.03757   0.07457   0.07982   0.10147   0.11418
 Alpha virt. eigenvalues --    0.11666   0.15535   0.16421   0.16515   0.20071
 Alpha virt. eigenvalues --    0.20140   0.25654   0.32770   0.34199   0.35130

 Mulliken charges:
               1
     1  C   -0.077483
     2  C    0.000414
     3  N   -0.206938
     4  H    0.090198
     5  H    0.094864
     6  H    0.098944
 Sum of Mulliken charges =   0.00000

 Dipole moment (field-independent basis, Debye):
    X=             -4.1298    Y=             -0.0018    Z=              0.0032  Tot=              4.1298
 Quadrupole moment (field-independent basis, Debye-Ang):
   XX=            -20.9042   YY=            -17.7533   ZZ=            -17.7981
   XY=              0.0148   XZ=              0.0575   YZ=             -0.0596

 Normal termination of Gaussian 09 at Wed Aug 26 10:24:59 2020.
