 Gaussian 09, Revision D.01,
 Gaussian 09:  ES64L-G09RevD.01 24-Apr-2013

 --------------------
 #p B2PLYPD3/Def2QZVP
 --------------------

 ------------
 cyanomethane
 ------------
 Symbolic Z-matrix:
 Charge =  0 Multiplicity = 1

                         Standard orientation:
 ---------------------------------------------------------------------
 Center     Atomic      Atomic             Coordinates (Angstroms)
 Number     Number       Type             X           Y           Z
 ---------------------------------------------------------------------
      1          6           0       -1.141207   -0.043494    0.010289
      2          6           0        0.268012    0.078017   -0.020631
      3          7           0        1.429002   -0.037931    0.004835
      4          1           0       -1.556641    1.052022    0.014627
      5          1           0       -1.543793   -0.493835    0.841254
      6          1           0       -1.663413   -0.499812   -0.827670
 ---------------------------------------------------------------------

 SCF Done:  E(RB2PLYPD3) =  -132.521094260     A.U. after   12 cycles
 E2(B2PLYPD3) =    -0.1822169375D+00 E(B2PLYPD3) =    -0.13270331119704D+03

 The electronic state is 1-A.
 Alpha  occ. eigenvalues --  -14.84794 -10.66803 -10.66696  -1.03963  -0.89779
 Alpha  occ. eigenvalues --   -0.62338  -0.54245  -0.51964  -0.45189  -0.38906
 Alpha  occ. eigenvalues --   -0.38286
 Alpha virt. eigenvalues --    0.03647   0.06628   0.07102   0.09728   0.11570
 Alpha virt. eigenvalues --    0.11821   0.15522   0.16077   0.18050   0.19993
 Alpha virt. eigenvalues --    0.20518   0.26618   0.31812   0.34146   0.35740

 Mulliken charges:
               1
     1  C   -0.067488
     2  C    0.016169
     3  N   -0.210658
     4  H    0.077221
     5  H    0.095464
     6  H    0.089293
 Sum of Mulliken charges =   0.00000

 Dipole moment (field-independent basis, Debye):
    X=             -4.1068    Y=              0.0306    Z=              0.0053  Tot=              4.1069
 Quadrupole moment (field-independent basis, Debye-Ang):
   XX=            -20.6290   YY=            -17.8589   ZZ=            -17.9528
   XY=              0.2730   XZ=              0.0306   YZ=             -0.0406

 Normal termination of Gaussian 09 at Wed Aug 26 22:39:39 2020.
