 Gaussian 09, Revision D.01,
 Gaussian 09:  ES64L-G09RevD.01 24-Apr-2013

 --------------------
 #p B2PLYPD3/Def2QZVP
 --------------------

 ------------
 cyanomethane
 ------------
 Symbolic Z-matrix:
 Charge =  0 Multiplicity = 1

                         Standard orientation:
 ---------------------------------------------------------------------
 Center     Atomic      Atomic             Coordinates (Angstroms)
 Number     Number       Type             X           Y           Z
 ---------------------------------------------------------------------
      1          6           0        1.174081   -0.011115   -0.000436
      2          6           0       -0.279118   -0.013040   -0.008370
      3          7           0       -1.437231    0.009573    0.003951
      4          1           0        1.585141    1.005321   -0.236650
      5          1           0        1.554443   -0.679422   -0.699714
      6          1           0        1.551253   -0.247978    0.961542
 ---------------------------------------------------------------------

 SCF Done:  E(RB2PLYPD3) =  -132.532679020     A.U. after   11 cycles
 E2(B2PLYPD3) =    -0.1806480425D+00 E(B2PLYPD3) =    -0.13271332706246D+03

 The electronic state is 1-A.
 Alpha  occ. eigenvalues --  -14.84372 -10.66579 -10.66425  -1.04022  -0.89652
 Alpha  occ. eigenvalues --   -0.60481  -0.55056  -0.53067  -0.44885  -0.39157
 Alpha  occ. eigenvalues --   -0.38901
 Alpha virt. eigenvalues --    0.03774   0.07589   0.08273   0.10171   0.11246
 Alpha virt. eigenvalues --    0.11588   0.15506   0.16484   0.16560   0.20056
 Alpha virt. eigenvalues --    0.20159   0.25427   0.32740   0.34296   0.35476

 Mulliken charges:
               1
     1  C   -0.070094
     2  C    0.000708
     3  N   -0.207858
     4  H    0.088232
     5  H    0.095823
     6  H    0.093190
 Sum of Mulliken charges =   0.00000

 Dipole moment (field-independent basis, Debye):
    X=              4.1449    Y=             -0.0195    Z=              0.0045  Tot=              4.1450
 Quadrupole moment (field-independent basis, Debye-Ang):
   XX=            -20.8146   YY=            -17.7924   ZZ=            -17.7825
   XY=              0.0712   XZ=              0.0366   YZ=              0.0495

 Normal termination of Gaussian 09 at Wed Aug 26 09:53:12 2020.
