 Gaussian 09, Revision D.01,
 Gaussian 09:  ES64L-G09RevD.01 24-Apr-2013

 --------------------
 #p B2PLYPD3/Def2QZVP
 --------------------

 ------------
 cyanomethane
 ------------
 Symbolic Z-matrix:
 Charge =  0 Multiplicity = 1

                         Standard orientation:
 ---------------------------------------------------------------------
 Center     Atomic      Atomic             Coordinates (Angstroms)
 Number     Number       Type             X           Y           Z
 ---------------------------------------------------------------------
      1          6           0        1.181861    0.008504    0.007369
      2          6           0       -0.281287   -0.034868   -0.004423
      3          7           0       -1.435489    0.016684   -0.001661
      4          1           0        1.546294    1.050502   -0.181715
      5          1           0        1.588200   -0.664584   -0.782059
      6          1           0        1.510488   -0.344523    0.957729
 ---------------------------------------------------------------------

 SCF Done:  E(RB2PLYPD3) =  -132.533741674     A.U. after   12 cycles
 E2(B2PLYPD3) =    -0.1806973916D+00 E(B2PLYPD3) =    -0.13271443906589D+03

 The electronic state is 1-A.
 Alpha  occ. eigenvalues --  -14.84211 -10.67514 -10.66283  -1.04063  -0.88916
 Alpha  occ. eigenvalues --   -0.59287  -0.54278  -0.53200  -0.44764  -0.39083
 Alpha  occ. eigenvalues --   -0.38977
 Alpha virt. eigenvalues --    0.03640   0.07520   0.08168   0.10174   0.11365
 Alpha virt. eigenvalues --    0.11496   0.15306   0.15937   0.16570   0.20078
 Alpha virt. eigenvalues --    0.20088   0.25309   0.32522   0.34154   0.34697

 Mulliken charges:
               1
     1  C   -0.091328
     2  C   -0.001166
     3  N   -0.206223
     4  H    0.100709
     5  H    0.096002
     6  H    0.102006
 Sum of Mulliken charges =   0.00000

 Dipole moment (field-independent basis, Debye):
    X=              4.1183    Y=             -0.0330    Z=              0.0125  Tot=              4.1185
 Quadrupole moment (field-independent basis, Debye-Ang):
   XX=            -21.0905   YY=            -17.7073   ZZ=            -17.7966
   XY=              0.0546   XZ=             -0.0438   YZ=             -0.0352

 Normal termination of Gaussian 09 at Wed Aug 26 10:34:34 2020.
