 Gaussian 09, Revision D.01,
 Gaussian 09:  ES64L-G09RevD.01 24-Apr-2013

 --------------------
 #p B2PLYPD3/Def2QZVP
 --------------------

 ------------
 cyanomethane
 ------------
 Symbolic Z-matrix:
 Charge =  0 Multiplicity = 1

                         Standard orientation:
 ---------------------------------------------------------------------
 Center     Atomic      Atomic             Coordinates (Angstroms)
 Number     Number       Type             X           Y           Z
 ---------------------------------------------------------------------
      1          6           0        1.174464    0.003810    0.003428
      2          6           0       -0.272813   -0.002318   -0.018329
      3          7           0       -1.435494   -0.001363    0.006008
      4          1           0        1.521719    1.037188   -0.082752
      5          1           0        1.599163   -0.606571   -0.801511
      6          1           0        1.517670   -0.430029    0.931614
 ---------------------------------------------------------------------

 SCF Done:  E(RB2PLYPD3) =  -132.534518961     A.U. after   11 cycles
 E2(B2PLYPD3) =    -0.1812008448D+00 E(B2PLYPD3) =    -0.13271571980542D+03

 The electronic state is 1-A.
 Alpha  occ. eigenvalues --  -14.84401 -10.67076 -10.66450  -1.03798  -0.89428
 Alpha  occ. eigenvalues --   -0.59905  -0.54369  -0.53627  -0.44815  -0.38840
 Alpha  occ. eigenvalues --   -0.38765
 Alpha virt. eigenvalues --    0.03755   0.07615   0.07808   0.10156   0.11342
 Alpha virt. eigenvalues --    0.11495   0.15417   0.16164   0.16389   0.20108
 Alpha virt. eigenvalues --    0.20164   0.25524   0.32689   0.34544   0.34649

 Mulliken charges:
               1
     1  C   -0.083374
     2  C    0.000322
     3  N   -0.210519
     4  H    0.100040
     5  H    0.095368
     6  H    0.098164
 Sum of Mulliken charges =   0.00000

 Dipole moment (field-independent basis, Debye):
    X=              4.1377    Y=             -0.0102    Z=              0.0037  Tot=              4.1377
 Quadrupole moment (field-independent basis, Debye-Ang):
   XX=            -21.0235   YY=            -17.6814   ZZ=            -17.8522
   XY=             -0.0779   XZ=              0.0038   YZ=             -0.0149

 Normal termination of Gaussian 09 at Wed Aug 26 23:47:25 2020.
