 Gaussian 09, Revision D.01,
 Gaussian 09:  ES64L-G09RevD.01 24-Apr-2013

 --------------------
 #p B2PLYPD3/Def2QZVP
 --------------------

 ------------
 cyanomethane
 ------------
 Symbolic Z-matrix:
 Charge =  0 Multiplicity = 1

                         Standard orientation:
 ---------------------------------------------------------------------
 Center     Atomic      Atomic             Coordinates (Angstroms)
 Number     Number       Type             X           Y           Z
 ---------------------------------------------------------------------
      1          6           0       -1.174166    0.002429   -0.011634
      2          6           0        0.285866   -0.008219   -0.014841
      3          7           0        1.434211    0.003358    0.007172
      4          1           0       -1.562747    1.039474   -0.057554
      5          1           0       -1.548946   -0.431831    0.961370
      6          1           0       -1.597983   -0.596410   -0.795165
 ---------------------------------------------------------------------

 SCF Done:  E(RB2PLYPD3) =  -132.534197643     A.U. after   12 cycles
 E2(B2PLYPD3) =    -0.1801913057D+00 E(B2PLYPD3) =    -0.13271438894911D+03

 The electronic state is 1-A.
 Alpha  occ. eigenvalues --  -14.84102 -10.67545 -10.66186  -1.04392  -0.88785
 Alpha  occ. eigenvalues --   -0.59877  -0.54078  -0.52620  -0.44837  -0.39353
 Alpha  occ. eigenvalues --   -0.39069
 Alpha virt. eigenvalues --    0.03659   0.07589   0.07994   0.10188   0.11404
 Alpha virt. eigenvalues --    0.11746   0.15397   0.16260   0.16816   0.20009
 Alpha virt. eigenvalues --    0.20095   0.25312   0.32642   0.33811   0.35012

 Mulliken charges:
               1
     1  C   -0.084322
     2  C   -0.000360
     3  N   -0.202086
     4  H    0.096901
     5  H    0.091626
     6  H    0.098242
 Sum of Mulliken charges =   0.00000

 Dipole moment (field-independent basis, Debye):
    X=             -4.1197    Y=             -0.0125    Z=             -0.0001  Tot=              4.1197
 Quadrupole moment (field-independent basis, Debye-Ang):
   XX=            -20.9269   YY=            -17.7288   ZZ=            -17.8464
   XY=              0.0134   XZ=             -0.0397   YZ=              0.0517

 Normal termination of Gaussian 09 at Thu Aug 27 00:07:58 2020.
