 Gaussian 09, Revision D.01,
 Gaussian 09:  ES64L-G09RevD.01 24-Apr-2013

 --------------------
 #p B2PLYPD3/Def2QZVP
 --------------------

 ------------
 cyanomethane
 ------------
 Symbolic Z-matrix:
 Charge =  0 Multiplicity = 1

                         Standard orientation:
 ---------------------------------------------------------------------
 Center     Atomic      Atomic             Coordinates (Angstroms)
 Number     Number       Type             X           Y           Z
 ---------------------------------------------------------------------
      1          6           0        1.173846   -0.000193   -0.007157
      2          6           0       -0.279053   -0.007418    0.003801
      3          7           0       -1.431577    0.006772   -0.003656
      4          1           0        1.597099    0.995168   -0.306228
      5          1           0        1.544545   -0.784917   -0.662720
      6          1           0        1.510637   -0.211986    1.014680
 ---------------------------------------------------------------------

 SCF Done:  E(RB2PLYPD3) =  -132.534583433     A.U. after   12 cycles
 E2(B2PLYPD3) =    -0.1804784649D+00 E(B2PLYPD3) =    -0.13271506189745D+03

 The electronic state is 1-A.
 Alpha  occ. eigenvalues --  -14.84126 -10.67453 -10.66180  -1.04197  -0.89038
 Alpha  occ. eigenvalues --   -0.59569  -0.54026  -0.53311  -0.44780  -0.39113
 Alpha  occ. eigenvalues --   -0.38976
 Alpha virt. eigenvalues --    0.03686   0.07553   0.08025   0.10167   0.11469
 Alpha virt. eigenvalues --    0.11618   0.15413   0.15904   0.16772   0.20071
 Alpha virt. eigenvalues --    0.20111   0.25429   0.32667   0.34144   0.34694

 Mulliken charges:
               1
     1  C   -0.089435
     2  C   -0.001000
     3  N   -0.204991
     4  H    0.097876
     5  H    0.100250
     6  H    0.097300
 Sum of Mulliken charges =   0.00000

 Dipole moment (field-independent basis, Debye):
    X=              4.1175    Y=             -0.0215    Z=              0.0233  Tot=              4.1176
 Quadrupole moment (field-independent basis, Debye-Ang):
   XX=            -21.0510   YY=            -17.6939   ZZ=            -17.8070
   XY=              0.0605   XZ=             -0.0183   YZ=              0.0249

 Normal termination of Gaussian 09 at Wed Aug 26 10:51:23 2020.
