 Gaussian 09, Revision D.01,
 Gaussian 09:  ES64L-G09RevD.01 24-Apr-2013

 --------------------
 #p B2PLYPD3/Def2QZVP
 --------------------

 ------------
 cyanomethane
 ------------
 Symbolic Z-matrix:
 Charge =  0 Multiplicity = 1

                         Standard orientation:
 ---------------------------------------------------------------------
 Center     Atomic      Atomic             Coordinates (Angstroms)
 Number     Number       Type             X           Y           Z
 ---------------------------------------------------------------------
      1          6           0       -1.165924    0.018403   -0.003282
      2          6           0        0.273303    0.004942    0.031781
      3          7           0        1.428217   -0.004081   -0.017956
      4          1           0       -1.523651   -0.221641    0.976647
      5          1           0       -1.556504   -0.833527   -0.663828
      6          1           0       -1.561637    0.943664   -0.358122
 ---------------------------------------------------------------------

 SCF Done:  E(RB2PLYPD3) =  -132.532165946     A.U. after   11 cycles
 E2(B2PLYPD3) =    -0.1807340930D+00 E(B2PLYPD3) =    -0.13271290003863D+03

 The electronic state is 1-A.
 Alpha  occ. eigenvalues --  -14.84220 -10.67079 -10.66218  -1.04110  -0.89474
 Alpha  occ. eigenvalues --   -0.60055  -0.55083  -0.52656  -0.44826  -0.39108
 Alpha  occ. eigenvalues --   -0.38714
 Alpha virt. eigenvalues --    0.03642   0.07354   0.08137   0.10107   0.11327
 Alpha virt. eigenvalues --    0.11773   0.15537   0.15861   0.16891   0.20046
 Alpha virt. eigenvalues --    0.20171   0.25717   0.32752   0.33716   0.35302

 Mulliken charges:
               1
     1  C   -0.083998
     2  C    0.000783
     3  N   -0.207059
     4  H    0.096673
     5  H    0.091353
     6  H    0.102248
 Sum of Mulliken charges =   0.00000

 Dipole moment (field-independent basis, Debye):
    X=             -4.1170    Y=             -0.0079    Z=              0.0438  Tot=              4.1173
 Quadrupole moment (field-independent basis, Debye-Ang):
   XX=            -21.0015   YY=            -17.6676   ZZ=            -17.8354
   XY=              0.0562   XZ=              0.0884   YZ=             -0.0872

 Normal termination of Gaussian 09 at Wed Aug 26 12:09:19 2020.
