 Gaussian 09, Revision D.01,
 Gaussian 09:  ES64L-G09RevD.01 24-Apr-2013

 --------------------
 #p B2PLYPD3/Def2QZVP
 --------------------

 ------------
 cyanomethane
 ------------
 Symbolic Z-matrix:
 Charge =  0 Multiplicity = 1

                         Standard orientation:
 ---------------------------------------------------------------------
 Center     Atomic      Atomic             Coordinates (Angstroms)
 Number     Number       Type             X           Y           Z
 ---------------------------------------------------------------------
      1          6           0        1.183309   -0.010520   -0.019984
      2          6           0       -0.282365    0.023958    0.010058
      3          7           0       -1.443830   -0.014917   -0.004435
      4          1           0        1.520680    1.025162   -0.028111
      5          1           0        1.609656   -0.552414   -0.763067
      6          1           0        1.570815   -0.448956    0.881782
 ---------------------------------------------------------------------

 SCF Done:  E(RB2PLYPD3) =  -132.529186677     A.U. after   12 cycles
 E2(B2PLYPD3) =    -0.1809161437D+00 E(B2PLYPD3) =    -0.13271010282024D+03

 The electronic state is 1-A.
 Alpha  occ. eigenvalues --  -14.84519 -10.66647 -10.66294  -1.03863  -0.89778
 Alpha  occ. eigenvalues --   -0.60991  -0.54771  -0.53365  -0.44909  -0.39146
 Alpha  occ. eigenvalues --   -0.38889
 Alpha virt. eigenvalues --    0.03854   0.07893   0.08073   0.10084   0.11227
 Alpha virt. eigenvalues --    0.11482   0.15373   0.16040   0.17208   0.20067
 Alpha virt. eigenvalues --    0.20217   0.25246   0.32692   0.34380   0.35543

 Mulliken charges:
               1
     1  C   -0.065295
     2  C    0.004269
     3  N   -0.209970
     4  H    0.091807
     5  H    0.093760
     6  H    0.085429
 Sum of Mulliken charges =   0.00000

 Dipole moment (field-independent basis, Debye):
    X=              4.1588    Y=              0.0014    Z=              0.0265  Tot=              4.1589
 Quadrupole moment (field-independent basis, Debye-Ang):
   XX=            -20.7480   YY=            -17.6796   ZZ=            -17.9409
   XY=             -0.1873   XZ=              0.0111   YZ=              0.0560

 Normal termination of Gaussian 09 at Wed Aug 26 10:47:40 2020.
