 Gaussian 09, Revision D.01,
 Gaussian 09:  ES64L-G09RevD.01 24-Apr-2013

 --------------------
 #p B2PLYPD3/Def2QZVP
 --------------------

 ------------
 cyanomethane
 ------------
 Symbolic Z-matrix:
 Charge =  0 Multiplicity = 1

                         Standard orientation:
 ---------------------------------------------------------------------
 Center     Atomic      Atomic             Coordinates (Angstroms)
 Number     Number       Type             X           Y           Z
 ---------------------------------------------------------------------
      1          6           0        1.160946   -0.001925    0.000686
      2          6           0       -0.273428   -0.010032    0.001731
      3          7           0       -1.427303    0.014383   -0.002080
      4          1           0        1.670122    0.944236   -0.405852
      5          1           0        1.468487   -0.850288   -0.595854
      6          1           0        1.527404   -0.122888    1.001770
 ---------------------------------------------------------------------

 SCF Done:  E(RB2PLYPD3) =  -132.531436062     A.U. after   12 cycles
 E2(B2PLYPD3) =    -0.1806843908D+00 E(B2PLYPD3) =    -0.13271212045255D+03

 The electronic state is 1-A.
 Alpha  occ. eigenvalues --  -14.84186 -10.67195 -10.66188  -1.04217  -0.89457
 Alpha  occ. eigenvalues --   -0.60162  -0.54509  -0.52787  -0.44849  -0.38979
 Alpha  occ. eigenvalues --   -0.38884
 Alpha virt. eigenvalues --    0.03646   0.07079   0.08170   0.10134   0.11557
 Alpha virt. eigenvalues --    0.11720   0.15503   0.15862   0.17106   0.20080
 Alpha virt. eigenvalues --    0.20185   0.25775   0.32657   0.34292   0.34645

 Mulliken charges:
               1
     1  C   -0.084401
     2  C    0.001012
     3  N   -0.206066
     4  H    0.093031
     5  H    0.099217
     6  H    0.097207
 Sum of Mulliken charges =   0.00000

 Dipole moment (field-independent basis, Debye):
    X=              4.1190    Y=             -0.0452    Z=              0.0232  Tot=              4.1193
 Quadrupole moment (field-independent basis, Debye-Ang):
   XX=            -20.9409   YY=            -17.7357   ZZ=            -17.8099
   XY=              0.1806   XZ=              0.0192   YZ=              0.0469

 Normal termination of Gaussian 09 at Wed Aug 26 14:28:52 2020.
