 Gaussian 09, Revision D.01,
 Gaussian 09:  ES64L-G09RevD.01 24-Apr-2013

 --------------------
 #p B2PLYPD3/Def2QZVP
 --------------------

 ------------
 cyanomethane
 ------------
 Symbolic Z-matrix:
 Charge =  0 Multiplicity = 1

                         Standard orientation:
 ---------------------------------------------------------------------
 Center     Atomic      Atomic             Coordinates (Angstroms)
 Number     Number       Type             X           Y           Z
 ---------------------------------------------------------------------
      1          6           0        1.148958   -0.016974    0.010912
      2          6           0       -0.282914    0.008623   -0.050546
      3          7           0       -1.418772   -0.006393    0.033287
      4          1           0        1.691664   -0.332157    0.994956
      5          1           0        1.510656    1.104312   -0.187997
      6          1           0        1.532819   -0.677300   -0.802164
 ---------------------------------------------------------------------

 SCF Done:  E(RB2PLYPD3) =  -132.521278597     A.U. after   12 cycles
 E2(B2PLYPD3) =    -0.1804570440D+00 E(B2PLYPD3) =    -0.13270173564110D+03

 The electronic state is 1-A.
 Alpha  occ. eigenvalues --  -14.83890 -10.68798 -10.65861  -1.04917  -0.88174
 Alpha  occ. eigenvalues --   -0.59711  -0.53131  -0.51282  -0.44916  -0.39296
 Alpha  occ. eigenvalues --   -0.38920
 Alpha virt. eigenvalues --    0.03254   0.06309   0.07662   0.10005   0.11819
 Alpha virt. eigenvalues --    0.12174   0.15548   0.15650   0.17600   0.19974
 Alpha virt. eigenvalues --    0.20248   0.25989   0.32006   0.33112   0.33984

 Mulliken charges:
               1
     1  C   -0.105959
     2  C    0.006138
     3  N   -0.195286
     4  H    0.099912
     5  H    0.093297
     6  H    0.101897
 Sum of Mulliken charges =   0.00000

 Dipole moment (field-independent basis, Debye):
    X=              4.0490    Y=              0.0018    Z=             -0.0557  Tot=              4.0493
 Quadrupole moment (field-independent basis, Debye-Ang):
   XX=            -21.0201   YY=            -17.7748   ZZ=            -17.8536
   XY=             -0.1135   XZ=              0.3189   YZ=              0.0650

 Normal termination of Gaussian 09 at Wed Aug 26 22:37:35 2020.
