 Gaussian 09, Revision D.01,
 Gaussian 09:  ES64L-G09RevD.01 24-Apr-2013

 --------------------
 #p B2PLYPD3/Def2QZVP
 --------------------

 ------------
 cyanomethane
 ------------
 Symbolic Z-matrix:
 Charge =  0 Multiplicity = 1

                         Standard orientation:
 ---------------------------------------------------------------------
 Center     Atomic      Atomic             Coordinates (Angstroms)
 Number     Number       Type             X           Y           Z
 ---------------------------------------------------------------------
      1          6           0       -1.193614   -0.010108    0.004855
      2          6           0        0.276021    0.027548   -0.013495
      3          7           0        1.440534   -0.017271    0.005541
      4          1           0       -1.487150    0.903927   -0.491769
      5          1           0       -1.512901   -0.006751    1.020887
      6          1           0       -1.578130   -0.880917   -0.516065
 ---------------------------------------------------------------------

 SCF Done:  E(RB2PLYPD3) =  -132.532967848     A.U. after   12 cycles
 E2(B2PLYPD3) =    -0.1813094963D+00 E(B2PLYPD3) =    -0.13271427734436D+03

 The electronic state is 1-A.
 Alpha  occ. eigenvalues --  -14.84413 -10.66966 -10.66519  -1.03596  -0.89440
 Alpha  occ. eigenvalues --   -0.59187  -0.54631  -0.54297  -0.44697  -0.38861
 Alpha  occ. eigenvalues --   -0.38752
 Alpha virt. eigenvalues --    0.03767   0.07794   0.08285   0.10131   0.11213
 Alpha virt. eigenvalues --    0.11235   0.15250   0.15513   0.16585   0.20129
 Alpha virt. eigenvalues --    0.20172   0.25140   0.32549   0.34485   0.34967

 Mulliken charges:
               1
     1  C   -0.090001
     2  C   -0.001546
     3  N   -0.212447
     4  H    0.100563
     5  H    0.102206
     6  H    0.101225
 Sum of Mulliken charges =   0.00000

 Dipole moment (field-independent basis, Debye):
    X=             -4.1401    Y=              0.0304    Z=             -0.0014  Tot=              4.1402
 Quadrupole moment (field-independent basis, Debye-Ang):
   XX=            -21.1634   YY=            -17.7122   ZZ=            -17.7460
   XY=              0.1435   XZ=             -0.0255   YZ=              0.0041

 Normal termination of Gaussian 09 at Wed Aug 26 14:29:57 2020.
