 Gaussian 09, Revision D.01,
 Gaussian 09:  ES64L-G09RevD.01 24-Apr-2013

 --------------------
 #p B2PLYPD3/Def2QZVP
 --------------------

 ------------
 cyanomethane
 ------------
 Symbolic Z-matrix:
 Charge =  0 Multiplicity = 1

                         Standard orientation:
 ---------------------------------------------------------------------
 Center     Atomic      Atomic             Coordinates (Angstroms)
 Number     Number       Type             X           Y           Z
 ---------------------------------------------------------------------
      1          6           0       -1.177610    0.010796   -0.004764
      2          6           0        0.276744    0.014163   -0.010474
      3          7           0        1.431415   -0.011877    0.007652
      4          1           0       -1.493153    1.015108   -0.010581
      5          1           0       -1.579733   -0.518666    0.897820
      6          1           0       -1.541817   -0.563056   -0.849372
 ---------------------------------------------------------------------

 SCF Done:  E(RB2PLYPD3) =  -132.533418482     A.U. after   11 cycles
 E2(B2PLYPD3) =    -0.1804938912D+00 E(B2PLYPD3) =    -0.13271391237328D+03

 The electronic state is 1-A.
 Alpha  occ. eigenvalues --  -14.84154 -10.66995 -10.66196  -1.04074  -0.89438
 Alpha  occ. eigenvalues --   -0.59554  -0.55432  -0.52894  -0.44745  -0.39147
 Alpha  occ. eigenvalues --   -0.38856
 Alpha virt. eigenvalues --    0.03735   0.07565   0.08404   0.10175   0.11223
 Alpha virt. eigenvalues --    0.11670   0.15380   0.16146   0.16386   0.20031
 Alpha virt. eigenvalues --    0.20171   0.25386   0.32734   0.34035   0.35261

 Mulliken charges:
               1
     1  C   -0.085654
     2  C   -0.002326
     3  N   -0.206950
     4  H    0.103830
     5  H    0.093117
     6  H    0.097983
 Sum of Mulliken charges =   0.00000

 Dipole moment (field-independent basis, Debye):
    X=             -4.1227    Y=              0.0027    Z=             -0.0118  Tot=              4.1227
 Quadrupole moment (field-independent basis, Debye-Ang):
   XX=            -21.0649   YY=            -17.5963   ZZ=            -17.8540
   XY=              0.1633   XZ=             -0.0731   YZ=              0.0348

 Normal termination of Gaussian 09 at Wed Aug 26 23:45:13 2020.
