 Gaussian 09, Revision D.01,
 Gaussian 09:  ES64L-G09RevD.01 24-Apr-2013

 --------------------
 #p B2PLYPD3/Def2QZVP
 --------------------

 ------------
 cyanomethane
 ------------
 Symbolic Z-matrix:
 Charge =  0 Multiplicity = 1

                         Standard orientation:
 ---------------------------------------------------------------------
 Center     Atomic      Atomic             Coordinates (Angstroms)
 Number     Number       Type             X           Y           Z
 ---------------------------------------------------------------------
      1          6           0        1.168688    0.016201    0.016178
      2          6           0       -0.264033   -0.007792   -0.043553
      3          7           0       -1.436882    0.002774    0.019728
      4          1           0        1.552523    1.019418   -0.198905
      5          1           0        1.551065   -0.726767   -0.769722
      6          1           0        1.526653   -0.362526    0.994781
 ---------------------------------------------------------------------

 SCF Done:  E(RB2PLYPD3) =  -132.529361416     A.U. after   12 cycles
 E2(B2PLYPD3) =    -0.1826751664D+00 E(B2PLYPD3) =    -0.13271203658198D+03

 The electronic state is 1-A.
 Alpha  occ. eigenvalues --  -14.84715 -10.67800 -10.66731  -1.03379  -0.89154
 Alpha  occ. eigenvalues --   -0.59733  -0.54409  -0.52755  -0.44870  -0.38540
 Alpha  occ. eigenvalues --   -0.38218
 Alpha virt. eigenvalues --    0.03564   0.06923   0.07259   0.10025   0.11251
 Alpha virt. eigenvalues --    0.11574   0.15429   0.15636   0.16640   0.20157
 Alpha virt. eigenvalues --    0.20213   0.25848   0.32249   0.33625   0.34713

 Mulliken charges:
               1
     1  C   -0.094523
     2  C    0.004948
     3  N   -0.215242
     4  H    0.105837
     5  H    0.095416
     6  H    0.103564
 Sum of Mulliken charges =   0.00000

 Dipole moment (field-independent basis, Debye):
    X=              4.1268    Y=             -0.0154    Z=             -0.0169  Tot=              4.1268
 Quadrupole moment (field-independent basis, Debye-Ang):
   XX=            -21.1804   YY=            -17.7245   ZZ=            -17.8805
   XY=             -0.0117   XZ=              0.0954   YZ=             -0.0602

 Normal termination of Gaussian 09 at Wed Aug 26 15:59:15 2020.
