 Gaussian 09, Revision D.01,
 Gaussian 09:  ES64L-G09RevD.01 24-Apr-2013

 --------------------
 #p B2PLYPD3/Def2QZVP
 --------------------

 ------------
 cyanomethane
 ------------
 Symbolic Z-matrix:
 Charge =  0 Multiplicity = 1

                         Standard orientation:
 ---------------------------------------------------------------------
 Center     Atomic      Atomic             Coordinates (Angstroms)
 Number     Number       Type             X           Y           Z
 ---------------------------------------------------------------------
      1          6           0       -1.180625    0.012473    0.005130
      2          6           0        0.285392   -0.000495   -0.011315
      3          7           0        1.436066   -0.002177    0.004245
      4          1           0       -1.546824    1.043792   -0.043738
      5          1           0       -1.552932   -0.509384    0.924913
      6          1           0       -1.581310   -0.591039   -0.873778
 ---------------------------------------------------------------------

 SCF Done:  E(RB2PLYPD3) =  -132.533055961     A.U. after   12 cycles
 E2(B2PLYPD3) =    -0.1805510535D+00 E(B2PLYPD3) =    -0.13271360701477D+03

 The electronic state is 1-A.
 Alpha  occ. eigenvalues --  -14.84113 -10.68087 -10.66211  -1.04251  -0.88417
 Alpha  occ. eigenvalues --   -0.59151  -0.54029  -0.52450  -0.44771  -0.39241
 Alpha  occ. eigenvalues --   -0.38992
 Alpha virt. eigenvalues --    0.03585   0.07466   0.07862   0.10187   0.11389
 Alpha virt. eigenvalues --    0.11690   0.15255   0.16159   0.16511   0.20013
 Alpha virt. eigenvalues --    0.20100   0.25185   0.32352   0.33678   0.34675

 Mulliken charges:
               1
     1  C   -0.096002
     2  C   -0.001014
     3  N   -0.203034
     4  H    0.104611
     5  H    0.099358
     6  H    0.096081
 Sum of Mulliken charges =   0.00000

 Dipole moment (field-independent basis, Debye):
    X=             -4.1122    Y=             -0.0078    Z=             -0.0021  Tot=              4.1122
 Quadrupole moment (field-independent basis, Debye-Ang):
   XX=            -21.1076   YY=            -17.6705   ZZ=            -17.8744
   XY=              0.0639   XZ=             -0.0119   YZ=             -0.0228

 Normal termination of Gaussian 09 at Wed Aug 26 12:48:23 2020.
