 Gaussian 09, Revision D.01,
 Gaussian 09:  ES64L-G09RevD.01 24-Apr-2013

 --------------------
 #p B2PLYPD3/Def2QZVP
 --------------------

 ------------
 cyanomethane
 ------------
 Symbolic Z-matrix:
 Charge =  0 Multiplicity = 1

                         Standard orientation:
 ---------------------------------------------------------------------
 Center     Atomic      Atomic             Coordinates (Angstroms)
 Number     Number       Type             X           Y           Z
 ---------------------------------------------------------------------
      1          6           0       -1.176304   -0.010037    0.009250
      2          6           0        0.274707    0.040938    0.004707
      3          7           0        1.442821   -0.021687   -0.006808
      4          1           0       -1.553348    0.991225   -0.187398
      5          1           0       -1.525828   -0.358739    0.926996
      6          1           0       -1.610996   -0.666085   -0.775683
 ---------------------------------------------------------------------

 SCF Done:  E(RB2PLYPD3) =  -132.531261386     A.U. after   12 cycles
 E2(B2PLYPD3) =    -0.1818009016D+00 E(B2PLYPD3) =    -0.13271306228736D+03

 The electronic state is 1-A.
 Alpha  occ. eigenvalues --  -14.84710 -10.66830 -10.66755  -1.03586  -0.89542
 Alpha  occ. eigenvalues --   -0.60419  -0.54854  -0.53059  -0.44936  -0.38831
 Alpha  occ. eigenvalues --   -0.38634
 Alpha virt. eigenvalues --    0.03700   0.07229   0.07966   0.10077   0.11183
 Alpha virt. eigenvalues --    0.11467   0.15487   0.15994   0.16862   0.20090
 Alpha virt. eigenvalues --    0.20226   0.25560   0.32652   0.34258   0.35201

 Mulliken charges:
               1
     1  C   -0.073671
     2  C    0.003097
     3  N   -0.212686
     4  H    0.093349
     5  H    0.098583
     6  H    0.091328
 Sum of Mulliken charges =   0.00000

 Dipole moment (field-independent basis, Debye):
    X=             -4.1505    Y=              0.0262    Z=              0.0153  Tot=              4.1506
 Quadrupole moment (field-independent basis, Debye-Ang):
   XX=            -20.8645   YY=            -17.8113   ZZ=            -17.8415
   XY=              0.1438   XZ=              0.0854   YZ=             -0.0566

 Normal termination of Gaussian 09 at Wed Aug 26 15:30:03 2020.
