 Gaussian 09, Revision D.01,
 Gaussian 09:  ES64L-G09RevD.01 24-Apr-2013

 --------------------
 #p B2PLYPD3/Def2QZVP
 --------------------

 ------------
 cyanomethane
 ------------
 Symbolic Z-matrix:
 Charge =  0 Multiplicity = 1

                         Standard orientation:
 ---------------------------------------------------------------------
 Center     Atomic      Atomic             Coordinates (Angstroms)
 Number     Number       Type             X           Y           Z
 ---------------------------------------------------------------------
      1          6           0       -1.179365    0.014650    0.014463
      2          6           0        0.258390   -0.047095    0.001830
      3          7           0        1.427196    0.031007   -0.006610
      4          1           0       -1.388798   -0.465139    0.886272
      5          1           0       -1.477704   -0.594627   -0.849097
      6          1           0       -1.598016    1.037388   -0.088661
 ---------------------------------------------------------------------

 SCF Done:  E(RB2PLYPD3) =  -132.524192547     A.U. after   13 cycles
 E2(B2PLYPD3) =    -0.1819931863D+00 E(B2PLYPD3) =    -0.13270618573313D+03

 The electronic state is 1-A.
 Alpha  occ. eigenvalues --  -14.84424 -10.66600 -10.66443  -1.03433  -0.90367
 Alpha  occ. eigenvalues --   -0.59073  -0.56227  -0.53807  -0.44650  -0.38551
 Alpha  occ. eigenvalues --   -0.38316
 Alpha virt. eigenvalues --    0.03643   0.07193   0.08748   0.10006   0.11140
 Alpha virt. eigenvalues --    0.11465   0.14827   0.15479   0.16765   0.20187
 Alpha virt. eigenvalues --    0.20295   0.25758   0.32747   0.33976   0.35199

 Mulliken charges:
               1
     1  C   -0.098631
     2  C    0.000839
     3  N   -0.217780
     4  H    0.110313
     5  H    0.099840
     6  H    0.105420
 Sum of Mulliken charges =   0.00000

 Dipole moment (field-independent basis, Debye):
    X=             -4.1148    Y=             -0.0597    Z=              0.0024  Tot=              4.1152
 Quadrupole moment (field-independent basis, Debye-Ang):
   XX=            -21.3319   YY=            -17.6118   ZZ=            -17.7287
   XY=             -0.2507   XZ=              0.1267   YZ=             -0.0684

 Normal termination of Gaussian 09 at Wed Aug 26 23:47:44 2020.
