 Gaussian 09, Revision D.01,
 Gaussian 09:  ES64L-G09RevD.01 24-Apr-2013

 --------------------
 #p B2PLYPD3/Def2QZVP
 --------------------

 ------------
 cyanomethane
 ------------
 Symbolic Z-matrix:
 Charge =  0 Multiplicity = 1

                         Standard orientation:
 ---------------------------------------------------------------------
 Center     Atomic      Atomic             Coordinates (Angstroms)
 Number     Number       Type             X           Y           Z
 ---------------------------------------------------------------------
      1          6           0       -1.177146   -0.008440    0.015570
      2          6           0        0.282444    0.030891   -0.016986
      3          7           0        1.423457   -0.013140    0.006436
      4          1           0       -1.513053   -0.282004    0.986675
      5          1           0       -1.519831   -0.778595   -0.737166
      6          1           0       -1.563107    1.017875   -0.286065
 ---------------------------------------------------------------------

 SCF Done:  E(RB2PLYPD3) =  -132.532793414     A.U. after   12 cycles
 E2(B2PLYPD3) =    -0.1796882501D+00 E(B2PLYPD3) =    -0.13271248166417D+03

 The electronic state is 1-A.
 Alpha  occ. eigenvalues --  -14.83754 -10.67745 -10.65791  -1.04561  -0.88765
 Alpha  occ. eigenvalues --   -0.58963  -0.54178  -0.53063  -0.44654  -0.39360
 Alpha  occ. eigenvalues --   -0.39158
 Alpha virt. eigenvalues --    0.03640   0.07772   0.08138   0.10159   0.11562
 Alpha virt. eigenvalues --    0.11737   0.15341   0.15955   0.16418   0.19998
 Alpha virt. eigenvalues --    0.20069   0.25364   0.32442   0.33677   0.34833

 Mulliken charges:
               1
     1  C   -0.102263
     2  C   -0.003288
     3  N   -0.199791
     4  H    0.106138
     5  H    0.100044
     6  H    0.099160
 Sum of Mulliken charges =   0.00000

 Dipole moment (field-independent basis, Debye):
    X=             -4.0777    Y=              0.0060    Z=             -0.0001  Tot=              4.0777
 Quadrupole moment (field-independent basis, Debye-Ang):
   XX=            -21.2414   YY=            -17.6466   ZZ=            -17.7058
   XY=              0.0698   XZ=             -0.0418   YZ=             -0.0263

 Normal termination of Gaussian 09 at Wed Aug 26 12:25:09 2020.
