 Gaussian 09, Revision D.01,
 Gaussian 09:  ES64L-G09RevD.01 24-Apr-2013

 --------------------
 #p B2PLYPD3/Def2QZVP
 --------------------

 ------------
 cyanomethane
 ------------
 Symbolic Z-matrix:
 Charge =  0 Multiplicity = 1

                         Standard orientation:
 ---------------------------------------------------------------------
 Center     Atomic      Atomic             Coordinates (Angstroms)
 Number     Number       Type             X           Y           Z
 ---------------------------------------------------------------------
      1          6           0        1.175020   -0.001232   -0.002826
      2          6           0       -0.281658   -0.022366    0.001862
      3          7           0       -1.427269    0.014434   -0.000552
      4          1           0        1.543364   -0.045369    1.014345
      5          1           0        1.573228    0.930980   -0.451973
      6          1           0        1.514124   -0.845060   -0.552721
 ---------------------------------------------------------------------

 SCF Done:  E(RB2PLYPD3) =  -132.535354065     A.U. after   11 cycles
 E2(B2PLYPD3) =    -0.1796952328D+00 E(B2PLYPD3) =    -0.13271504929827D+03

 The electronic state is 1-A.
 Alpha  occ. eigenvalues --  -14.83927 -10.66929 -10.65958  -1.04438  -0.89336
 Alpha  occ. eigenvalues --   -0.59606  -0.54693  -0.53412  -0.44736  -0.39316
 Alpha  occ. eigenvalues --   -0.39192
 Alpha virt. eigenvalues --    0.03765   0.07835   0.08466   0.10189   0.11437
 Alpha virt. eigenvalues --    0.11650   0.15448   0.16083   0.16653   0.20020
 Alpha virt. eigenvalues --    0.20098   0.25391   0.32900   0.34434   0.34982

 Mulliken charges:
               1
     1  C   -0.084519
     2  C   -0.003608
     3  N   -0.202126
     4  H    0.095809
     5  H    0.095190
     6  H    0.099253
 Sum of Mulliken charges =   0.00000

 Dipole moment (field-independent basis, Debye):
    X=              4.1106    Y=             -0.0246    Z=              0.0090  Tot=              4.1107
 Quadrupole moment (field-independent basis, Debye-Ang):
   XX=            -21.0072   YY=            -17.6766   ZZ=            -17.7377
   XY=              0.1211   XZ=              0.0191   YZ=              0.0396

 Normal termination of Gaussian 09 at Thu Aug 27 00:02:02 2020.
