 Gaussian 09, Revision D.01,
 Gaussian 09:  ES64L-G09RevD.01 24-Apr-2013

 --------------------
 #p B2PLYPD3/Def2QZVP
 --------------------

 ------------
 cyanomethane
 ------------
 Symbolic Z-matrix:
 Charge =  0 Multiplicity = 1

                         Standard orientation:
 ---------------------------------------------------------------------
 Center     Atomic      Atomic             Coordinates (Angstroms)
 Number     Number       Type             X           Y           Z
 ---------------------------------------------------------------------
      1          6           0        1.212662    0.015895   -0.003851
      2          6           0       -0.297922   -0.062600    0.025752
      3          7           0       -1.438560    0.033189   -0.019353
      4          1           0        1.569888    1.034835   -0.266079
      5          1           0        1.570049   -0.740905   -0.720063
      6          1           0        1.441542   -0.246025    0.990205
 ---------------------------------------------------------------------

 SCF Done:  E(RB2PLYPD3) =  -132.529441347     A.U. after   12 cycles
 E2(B2PLYPD3) =    -0.1799466520D+00 E(B2PLYPD3) =    -0.13270938799891D+03

 The electronic state is 1-A.
 Alpha  occ. eigenvalues --  -14.83882 -10.67671 -10.66010  -1.04305  -0.88468
 Alpha  occ. eigenvalues --   -0.57889  -0.54542  -0.53517  -0.44542  -0.39420
 Alpha  occ. eigenvalues --   -0.39369
 Alpha virt. eigenvalues --    0.03512   0.07874   0.09137   0.10164   0.11173
 Alpha virt. eigenvalues --    0.11281   0.14990   0.15169   0.16909   0.19996
 Alpha virt. eigenvalues --    0.20059   0.24692   0.32299   0.34463   0.34691

 Mulliken charges:
               1
     1  C   -0.103834
     2  C   -0.007165
     3  N   -0.201016
     4  H    0.104589
     5  H    0.101591
     6  H    0.105834
 Sum of Mulliken charges =   0.00000

 Dipole moment (field-independent basis, Debye):
    X=              4.1055    Y=             -0.0539    Z=              0.0455  Tot=              4.1061
 Quadrupole moment (field-independent basis, Debye-Ang):
   XX=            -21.2480   YY=            -17.6339   ZZ=            -17.7336
   XY=              0.2001   XZ=             -0.1793   YZ=             -0.0023

 Normal termination of Gaussian 09 at Wed Aug 26 22:14:49 2020.
