 Gaussian 09, Revision D.01,
 Gaussian 09:  ES64L-G09RevD.01 24-Apr-2013

 --------------------
 #p B2PLYPD3/Def2QZVP
 --------------------

 ------------
 cyanomethane
 ------------
 Symbolic Z-matrix:
 Charge =  0 Multiplicity = 1

                         Standard orientation:
 ---------------------------------------------------------------------
 Center     Atomic      Atomic             Coordinates (Angstroms)
 Number     Number       Type             X           Y           Z
 ---------------------------------------------------------------------
      1          6           0        1.168676   -0.003120   -0.006147
      2          6           0       -0.273179    0.020710   -0.001117
      3          7           0       -1.435241   -0.009753    0.002215
      4          1           0        1.569768   -0.123997    1.010860
      5          1           0        1.562161    0.921273   -0.395633
      6          1           0        1.541774   -0.834549   -0.587149
 ---------------------------------------------------------------------

 SCF Done:  E(RB2PLYPD3) =  -132.534563794     A.U. after   11 cycles
 E2(B2PLYPD3) =    -0.1811377545D+00 E(B2PLYPD3) =    -0.13271570154866D+03

 The electronic state is 1-A.
 Alpha  occ. eigenvalues --  -14.84446 -10.66873 -10.66470  -1.03868  -0.89550
 Alpha  occ. eigenvalues --   -0.60368  -0.54404  -0.53459  -0.44885  -0.38900
 Alpha  occ. eigenvalues --   -0.38772
 Alpha virt. eigenvalues --    0.03767   0.07527   0.07813   0.10130   0.11356
 Alpha virt. eigenvalues --    0.11552   0.15530   0.16316   0.16530   0.20094
 Alpha virt. eigenvalues --    0.20170   0.25645   0.32834   0.34438   0.34943

 Mulliken charges:
               1
     1  C   -0.075490
     2  C    0.001209
     3  N   -0.209840
     4  H    0.092124
     5  H    0.095520
     6  H    0.096477
 Sum of Mulliken charges =   0.00000

 Dipole moment (field-independent basis, Debye):
    X=              4.1416    Y=              0.0096    Z=              0.0027  Tot=              4.1416
 Quadrupole moment (field-independent basis, Debye-Ang):
   XX=            -20.9002   YY=            -17.7358   ZZ=            -17.8443
   XY=             -0.0483   XZ=              0.0458   YZ=              0.0050

 Normal termination of Gaussian 09 at Thu Aug 27 00:02:34 2020.
