 Gaussian 09, Revision D.01,
 Gaussian 09:  ES64L-G09RevD.01 24-Apr-2013

 --------------------
 #p B2PLYPD3/Def2QZVP
 --------------------

 ------------
 cyanomethane
 ------------
 Symbolic Z-matrix:
 Charge =  0 Multiplicity = 1

                         Standard orientation:
 ---------------------------------------------------------------------
 Center     Atomic      Atomic             Coordinates (Angstroms)
 Number     Number       Type             X           Y           Z
 ---------------------------------------------------------------------
      1          6           0        1.160779   -0.011951    0.008911
      2          6           0       -0.282899   -0.030067   -0.000391
      3          7           0       -1.427643    0.024637   -0.004673
      4          1           0        1.688651    0.911423   -0.505094
      5          1           0        1.515864   -0.862951   -0.499424
      6          1           0        1.521706    0.031183    0.986107
 ---------------------------------------------------------------------

 SCF Done:  E(RB2PLYPD3) =  -132.527101636     A.U. after   12 cycles
 E2(B2PLYPD3) =    -0.1799864956D+00 E(B2PLYPD3) =    -0.13270708813200D+03

 The electronic state is 1-A.
 Alpha  occ. eigenvalues --  -14.84087 -10.66926 -10.66076  -1.04595  -0.89466
 Alpha  occ. eigenvalues --   -0.60506  -0.55449  -0.51672  -0.44917  -0.39476
 Alpha  occ. eigenvalues --   -0.39010
 Alpha virt. eigenvalues --    0.03491   0.07090   0.08622   0.10145   0.11368
 Alpha virt. eigenvalues --    0.11923   0.15591   0.16223   0.17222   0.19945
 Alpha virt. eigenvalues --    0.20200   0.25665   0.32292   0.34031   0.35546

 Mulliken charges:
               1
     1  C   -0.075292
     2  C    0.000345
     3  N   -0.200674
     4  H    0.082888
     5  H    0.096617
     6  H    0.096116
 Sum of Mulliken charges =   0.00000

 Dipole moment (field-independent basis, Debye):
    X=              4.1073    Y=             -0.0582    Z=              0.0353  Tot=              4.1078
 Quadrupole moment (field-independent basis, Debye-Ang):
   XX=            -20.7596   YY=            -17.7908   ZZ=            -17.7993
   XY=              0.2292   XZ=             -0.0315   YZ=              0.1182

 Normal termination of Gaussian 09 at Wed Aug 26 16:22:25 2020.
