 Gaussian 09, Revision D.01,
 Gaussian 09:  ES64L-G09RevD.01 24-Apr-2013

 --------------------
 #p B2PLYPD3/Def2QZVP
 --------------------

 ------------
 cyanomethane
 ------------
 Symbolic Z-matrix:
 Charge =  0 Multiplicity = 1

                         Standard orientation:
 ---------------------------------------------------------------------
 Center     Atomic      Atomic             Coordinates (Angstroms)
 Number     Number       Type             X           Y           Z
 ---------------------------------------------------------------------
      1          6           0       -1.194699   -0.004234    0.001236
      2          6           0        0.281736   -0.011528    0.066328
      3          7           0        1.447958    0.020589   -0.037927
      4          1           0       -1.457446   -0.364988    0.922509
      5          1           0       -1.466622   -0.765533   -0.809758
      6          1           0       -1.733857    1.080973   -0.252648
 ---------------------------------------------------------------------

 SCF Done:  E(RB2PLYPD3) =  -132.512042542     A.U. after   13 cycles
 E2(B2PLYPD3) =    -0.1829786399D+00 E(B2PLYPD3) =    -0.13269502118172D+03

 The electronic state is 1-A.
 Alpha  occ. eigenvalues --  -14.84730 -10.68656 -10.66854  -1.03452  -0.88467
 Alpha  occ. eigenvalues --   -0.58357  -0.54622  -0.51455  -0.44808  -0.38725
 Alpha  occ. eigenvalues --   -0.38484
 Alpha virt. eigenvalues --    0.02823   0.06087   0.08598   0.10057   0.10909
 Alpha virt. eigenvalues --    0.11522   0.14921   0.15157   0.17188   0.20045
 Alpha virt. eigenvalues --    0.20293   0.25197   0.30839   0.33112   0.34096

 Mulliken charges:
               1
     1  C   -0.111910
     2  C    0.004930
     3  N   -0.212035
     4  H    0.112864
     5  H    0.105253
     6  H    0.100897
 Sum of Mulliken charges =   0.00000

 Dipole moment (field-independent basis, Debye):
    X=             -4.1102    Y=             -0.0781    Z=              0.0661  Tot=              4.1115
 Quadrupole moment (field-independent basis, Debye-Ang):
   XX=            -21.2457   YY=            -17.7420   ZZ=            -17.9218
   XY=             -0.2400   XZ=              0.2096   YZ=             -0.0276

 Normal termination of Gaussian 09 at Wed Aug 26 21:23:55 2020.
