 Gaussian 09, Revision D.01,
 Gaussian 09:  ES64L-G09RevD.01 24-Apr-2013

 --------------------
 #p B2PLYPD3/Def2QZVP
 --------------------

 ------------
 cyanomethane
 ------------
 Symbolic Z-matrix:
 Charge =  0 Multiplicity = 1

                         Standard orientation:
 ---------------------------------------------------------------------
 Center     Atomic      Atomic             Coordinates (Angstroms)
 Number     Number       Type             X           Y           Z
 ---------------------------------------------------------------------
      1          6           0        1.170251    0.010898    0.002324
      2          6           0       -0.279835    0.004825   -0.014955
      3          7           0       -1.430162   -0.002755    0.009769
      4          1           0        1.579407   -0.383413    0.931206
      5          1           0        1.565039    0.968812   -0.155051
      6          1           0        1.524194   -0.660452   -0.768749
 ---------------------------------------------------------------------

 SCF Done:  E(RB2PLYPD3) =  -132.534694300     A.U. after   11 cycles
 E2(B2PLYPD3) =    -0.1799590824D+00 E(B2PLYPD3) =    -0.13271465338229D+03

 The electronic state is 1-A.
 Alpha  occ. eigenvalues --  -14.84111 -10.66499 -10.66143  -1.04319  -0.89677
 Alpha  occ. eigenvalues --   -0.60392  -0.54838  -0.53388  -0.44830  -0.39300
 Alpha  occ. eigenvalues --   -0.39062
 Alpha virt. eigenvalues --    0.03833   0.07875   0.08307   0.10171   0.11371
 Alpha virt. eigenvalues --    0.11667   0.15546   0.16186   0.16892   0.20040
 Alpha virt. eigenvalues --    0.20127   0.25505   0.32996   0.34464   0.35363

 Mulliken charges:
               1
     1  C   -0.072101
     2  C   -0.000778
     3  N   -0.204463
     4  H    0.090332
     5  H    0.095781
     6  H    0.091230
 Sum of Mulliken charges =   0.00000

 Dipole moment (field-independent basis, Debye):
    X=              4.1309    Y=             -0.0096    Z=             -0.0170  Tot=              4.1310
 Quadrupole moment (field-independent basis, Debye-Ang):
   XX=            -20.8377   YY=            -17.6760   ZZ=            -17.8191
   XY=             -0.0345   XZ=              0.0871   YZ=             -0.0065

 Normal termination of Gaussian 09 at Wed Aug 26 23:55:35 2020.
