 Gaussian 09, Revision D.01,
 Gaussian 09:  ES64L-G09RevD.01 24-Apr-2013

 --------------------
 #p B2PLYPD3/Def2QZVP
 --------------------

 ------------
 cyanomethane
 ------------
 Symbolic Z-matrix:
 Charge =  0 Multiplicity = 1

                         Standard orientation:
 ---------------------------------------------------------------------
 Center     Atomic      Atomic             Coordinates (Angstroms)
 Number     Number       Type             X           Y           Z
 ---------------------------------------------------------------------
      1          6           0        1.178818   -0.017604    0.003506
      2          6           0       -0.271240    0.047286   -0.009465
      3          7           0       -1.446646   -0.020483    0.005438
      4          1           0        1.589217    1.024104   -0.136543
      5          1           0        1.532109   -0.651152   -0.814781
      6          1           0        1.559729   -0.407664    0.949008
 ---------------------------------------------------------------------

 SCF Done:  E(RB2PLYPD3) =  -132.530977171     A.U. after   12 cycles
 E2(B2PLYPD3) =    -0.1827620603D+00 E(B2PLYPD3) =    -0.13271373923131D+03

 The electronic state is 1-A.
 Alpha  occ. eigenvalues --  -14.84894 -10.67603 -10.66968  -1.03265  -0.89029
 Alpha  occ. eigenvalues --   -0.59929  -0.53947  -0.53219  -0.44927  -0.38546
 Alpha  occ. eigenvalues --   -0.38419
 Alpha virt. eigenvalues --    0.03618   0.07124   0.07256   0.10050   0.11261
 Alpha virt. eigenvalues --    0.11311   0.15387   0.15892   0.16595   0.20129
 Alpha virt. eigenvalues --    0.20216   0.25590   0.32268   0.34128   0.34646

 Mulliken charges:
               1
     1  C   -0.086083
     2  C    0.004560
     3  N   -0.215502
     4  H    0.094791
     5  H    0.101422
     6  H    0.100812
 Sum of Mulliken charges =   0.00000

 Dipole moment (field-independent basis, Debye):
    X=              4.1462    Y=              0.0136    Z=             -0.0042  Tot=              4.1462
 Quadrupole moment (field-independent basis, Debye-Ang):
   XX=            -21.0374   YY=            -17.8420   ZZ=            -17.8541
   XY=             -0.0872   XZ=              0.0496   YZ=              0.0150

 Normal termination of Gaussian 09 at Wed Aug 26 12:58:36 2020.
