 Gaussian 09, Revision D.01,
 Gaussian 09:  ES64L-G09RevD.01 24-Apr-2013

 --------------------
 #p B2PLYPD3/Def2QZVP
 --------------------

 ------------
 cyanomethane
 ------------
 Symbolic Z-matrix:
 Charge =  0 Multiplicity = 1

                         Standard orientation:
 ---------------------------------------------------------------------
 Center     Atomic      Atomic             Coordinates (Angstroms)
 Number     Number       Type             X           Y           Z
 ---------------------------------------------------------------------
      1          6           0       -1.167419   -0.031884   -0.004328
      2          6           0        0.288722    0.031079   -0.014406
      3          7           0        1.424998   -0.011252    0.010211
      4          1           0       -1.596750    0.051958    1.014861
      5          1           0       -1.534520   -0.871379   -0.467431
      6          1           0       -1.571534    0.903014   -0.506501
 ---------------------------------------------------------------------

 SCF Done:  E(RB2PLYPD3) =  -132.530945059     A.U. after   11 cycles
 E2(B2PLYPD3) =    -0.1791587583D+00 E(B2PLYPD3) =    -0.13271010381771D+03

 The electronic state is 1-A.
 Alpha  occ. eigenvalues --  -14.83790 -10.67041 -10.65824  -1.04876  -0.89124
 Alpha  occ. eigenvalues --   -0.60230  -0.55063  -0.52039  -0.44821  -0.39759
 Alpha  occ. eigenvalues --   -0.39221
 Alpha virt. eigenvalues --    0.03736   0.07696   0.08399   0.10141   0.11454
 Alpha virt. eigenvalues --    0.11950   0.15524   0.16100   0.17317   0.19930
 Alpha virt. eigenvalues --    0.20079   0.25515   0.32643   0.33752   0.35649

 Mulliken charges:
               1
     1  C   -0.079102
     2  C   -0.001227
     3  N   -0.196509
     4  H    0.089413
     5  H    0.101644
     6  H    0.085781
 Sum of Mulliken charges =   0.00000

 Dipole moment (field-independent basis, Debye):
    X=             -4.0962    Y=              0.0283    Z=             -0.0042  Tot=              4.0963
 Quadrupole moment (field-independent basis, Debye-Ang):
   XX=            -20.8473   YY=            -17.6522   ZZ=            -17.8406
   XY=              0.0042   XZ=             -0.1277   YZ=              0.1081

 Normal termination of Gaussian 09 at Wed Aug 26 14:06:17 2020.
