 Gaussian 09, Revision D.01,
 Gaussian 09:  ES64L-G09RevD.01 24-Apr-2013

 --------------------
 #p B2PLYPD3/Def2QZVP
 --------------------

 ------------
 cyanomethane
 ------------
 Symbolic Z-matrix:
 Charge =  0 Multiplicity = 1

                         Standard orientation:
 ---------------------------------------------------------------------
 Center     Atomic      Atomic             Coordinates (Angstroms)
 Number     Number       Type             X           Y           Z
 ---------------------------------------------------------------------
      1          6           0       -1.162466    0.005309    0.006186
      2          6           0        0.266308   -0.029017   -0.000163
      3          7           0        1.434339    0.017028   -0.002580
      4          1           0       -1.518409   -0.291207    0.950017
      5          1           0       -1.551620   -0.694295   -0.735892
      6          1           0       -1.593394    1.008553   -0.232206
 ---------------------------------------------------------------------

 SCF Done:  E(RB2PLYPD3) =  -132.531732731     A.U. after   12 cycles
 E2(B2PLYPD3) =    -0.1817628652D+00 E(B2PLYPD3) =    -0.13271349559625D+03

 The electronic state is 1-A.
 Alpha  occ. eigenvalues --  -14.84611 -10.66774 -10.66592  -1.03653  -0.89832
 Alpha  occ. eigenvalues --   -0.60611  -0.54586  -0.53417  -0.44924  -0.38673
 Alpha  occ. eigenvalues --   -0.38558
 Alpha virt. eigenvalues --    0.03702   0.07108   0.07866   0.10071   0.11365
 Alpha virt. eigenvalues --    0.11532   0.15618   0.15950   0.16818   0.20156
 Alpha virt. eigenvalues --    0.20208   0.25899   0.32868   0.34294   0.34894

 Mulliken charges:
               1
     1  C   -0.074942
     2  C    0.002817
     3  N   -0.213010
     4  H    0.097436
     5  H    0.093373
     6  H    0.094326
 Sum of Mulliken charges =   0.00000

 Dipole moment (field-independent basis, Debye):
    X=             -4.1456    Y=             -0.0379    Z=              0.0124  Tot=              4.1458
 Quadrupole moment (field-independent basis, Debye-Ang):
   XX=            -20.9002   YY=            -17.7840   ZZ=            -17.8170
   XY=             -0.0972   XZ=              0.0298   YZ=             -0.0142

 Normal termination of Gaussian 09 at Wed Aug 26 14:05:00 2020.
