 Gaussian 09, Revision D.01,
 Gaussian 09:  ES64L-G09RevD.01 24-Apr-2013

 --------------------
 #p B2PLYPD3/Def2QZVP
 --------------------

 ------------
 cyanomethane
 ------------
 Symbolic Z-matrix:
 Charge =  0 Multiplicity = 1

                         Standard orientation:
 ---------------------------------------------------------------------
 Center     Atomic      Atomic             Coordinates (Angstroms)
 Number     Number       Type             X           Y           Z
 ---------------------------------------------------------------------
      1          6           0       -1.176288    0.008514   -0.002708
      2          6           0        0.284108   -0.016452    0.018042
      3          7           0        1.433141    0.005483   -0.011111
      4          1           0       -1.599002   -0.735810   -0.737978
      5          1           0       -1.536884    1.011879   -0.271804
      6          1           0       -1.543018   -0.266819    0.995554
 ---------------------------------------------------------------------

 SCF Done:  E(RB2PLYPD3) =  -132.534385525     A.U. after   12 cycles
 E2(B2PLYPD3) =    -0.1803218085D+00 E(B2PLYPD3) =    -0.13271470733345D+03

 The electronic state is 1-A.
 Alpha  occ. eigenvalues --  -14.84087 -10.67719 -10.66155  -1.04323  -0.88697
 Alpha  occ. eigenvalues --   -0.59433  -0.53856  -0.52967  -0.44791  -0.39203
 Alpha  occ. eigenvalues --   -0.39109
 Alpha virt. eigenvalues --    0.03639   0.07542   0.07984   0.10174   0.11497
 Alpha virt. eigenvalues --    0.11613   0.15359   0.16091   0.16686   0.20032
 Alpha virt. eigenvalues --    0.20082   0.25336   0.32569   0.34140   0.34560

 Mulliken charges:
               1
     1  C   -0.091013
     2  C   -0.001169
     3  N   -0.202711
     4  H    0.095867
     5  H    0.100910
     6  H    0.098116
 Sum of Mulliken charges =   0.00000

 Dipole moment (field-independent basis, Debye):
    X=             -4.1107    Y=             -0.0068    Z=              0.0235  Tot=              4.1108
 Quadrupole moment (field-independent basis, Debye-Ang):
   XX=            -21.0383   YY=            -17.7386   ZZ=            -17.7900
   XY=              0.0088   XZ=              0.0797   YZ=             -0.0279

 Normal termination of Gaussian 09 at Wed Aug 26 20:14:04 2020.
