 Gaussian 09, Revision D.01,
 Gaussian 09:  ES64L-G09RevD.01 24-Apr-2013

 --------------------
 #p B2PLYPD3/Def2QZVP
 --------------------

 ------------
 cyanomethane
 ------------
 Symbolic Z-matrix:
 Charge =  0 Multiplicity = 1

                         Standard orientation:
 ---------------------------------------------------------------------
 Center     Atomic      Atomic             Coordinates (Angstroms)
 Number     Number       Type             X           Y           Z
 ---------------------------------------------------------------------
      1          6           0       -1.186900   -0.007312   -0.003282
      2          6           0        0.281643    0.000440    0.007041
      3          7           0        1.437057    0.000261   -0.005458
      4          1           0       -1.514975   -0.178487    1.001764
      5          1           0       -1.564000   -0.769889   -0.655816
      6          1           0       -1.548879    0.987780   -0.330293
 ---------------------------------------------------------------------

 SCF Done:  E(RB2PLYPD3) =  -132.534989105     A.U. after   12 cycles
 E2(B2PLYPD3) =    -0.1804623907D+00 E(B2PLYPD3) =    -0.13271545149556D+03

 The electronic state is 1-A.
 Alpha  occ. eigenvalues --  -14.84184 -10.67092 -10.66280  -1.04024  -0.89209
 Alpha  occ. eigenvalues --   -0.59374  -0.54531  -0.53711  -0.44728  -0.39136
 Alpha  occ. eigenvalues --   -0.39008
 Alpha virt. eigenvalues --    0.03769   0.07907   0.08251   0.10200   0.11306
 Alpha virt. eigenvalues --    0.11437   0.15303   0.15958   0.16520   0.20081
 Alpha virt. eigenvalues --    0.20112   0.25121   0.32599   0.34366   0.35026

 Mulliken charges:
               1
     1  C   -0.086800
     2  C   -0.002670
     3  N   -0.206898
     4  H    0.099110
     5  H    0.100389
     6  H    0.096869
 Sum of Mulliken charges =   0.00000

 Dipole moment (field-independent basis, Debye):
    X=             -4.1329    Y=             -0.0020    Z=              0.0189  Tot=              4.1330
 Quadrupole moment (field-independent basis, Debye-Ang):
   XX=            -21.0632   YY=            -17.7162   ZZ=            -17.7515
   XY=              0.0051   XZ=              0.0404   YZ=              0.0243

 Normal termination of Gaussian 09 at Thu Aug 27 00:02:38 2020.
