 Gaussian 09, Revision D.01,
 Gaussian 09:  ES64L-G09RevD.01 24-Apr-2013

 --------------------
 #p B2PLYPD3/Def2QZVP
 --------------------

 ------------
 cyanomethane
 ------------
 Symbolic Z-matrix:
 Charge =  0 Multiplicity = 1

                         Standard orientation:
 ---------------------------------------------------------------------
 Center     Atomic      Atomic             Coordinates (Angstroms)
 Number     Number       Type             X           Y           Z
 ---------------------------------------------------------------------
      1          6           0        1.177847   -0.004136   -0.004842
      2          6           0       -0.280730   -0.023228    0.004296
      3          7           0       -1.430888    0.011583    0.000124
      4          1           0        1.569862    0.077295    0.996625
      5          1           0        1.518382    0.899876   -0.538179
      6          1           0        1.545266   -0.894067   -0.456038
 ---------------------------------------------------------------------

 SCF Done:  E(RB2PLYPD3) =  -132.535271887     A.U. after   11 cycles
 E2(B2PLYPD3) =    -0.1800377519D+00 E(B2PLYPD3) =    -0.13271530963882D+03

 The electronic state is 1-A.
 Alpha  occ. eigenvalues --  -14.84057 -10.66887 -10.66110  -1.04254  -0.89374
 Alpha  occ. eigenvalues --   -0.59712  -0.54823  -0.53378  -0.44750  -0.39260
 Alpha  occ. eigenvalues --   -0.39059
 Alpha virt. eigenvalues --    0.03777   0.07909   0.08310   0.10198   0.11318
 Alpha virt. eigenvalues --    0.11637   0.15394   0.16325   0.16385   0.20017
 Alpha virt. eigenvalues --    0.20128   0.25342   0.32848   0.34308   0.35148

 Mulliken charges:
               1
     1  C   -0.082488
     2  C   -0.002610
     3  N   -0.204553
     4  H    0.093747
     5  H    0.096341
     6  H    0.099563
 Sum of Mulliken charges =   0.00000

 Dipole moment (field-independent basis, Debye):
    X=              4.1228    Y=             -0.0084    Z=              0.0162  Tot=              4.1229
 Quadrupole moment (field-independent basis, Debye-Ang):
   XX=            -20.9966   YY=            -17.6199   ZZ=            -17.8270
   XY=              0.0680   XZ=              0.0736   YZ=              0.0359

 Normal termination of Gaussian 09 at Thu Aug 27 00:01:10 2020.
