 Gaussian 09, Revision D.01,
 Gaussian 09:  ES64L-G09RevD.01 24-Apr-2013

 --------------------
 #p B2PLYPD3/Def2QZVP
 --------------------

 ------------
 cyanomethane
 ------------
 Symbolic Z-matrix:
 Charge =  0 Multiplicity = 1

                         Standard orientation:
 ---------------------------------------------------------------------
 Center     Atomic      Atomic             Coordinates (Angstroms)
 Number     Number       Type             X           Y           Z
 ---------------------------------------------------------------------
      1          6           0       -1.178938    0.005605   -0.001101
      2          6           0        0.280523    0.016540   -0.010770
      3          7           0        1.438127   -0.012234    0.009025
      4          1           0       -1.507455    0.967576   -0.314834
      5          1           0       -1.610271   -0.228528    1.004714
      6          1           0       -1.558678   -0.786279   -0.681832
 ---------------------------------------------------------------------

 SCF Done:  E(RB2PLYPD3) =  -132.533265030     A.U. after   12 cycles
 E2(B2PLYPD3) =    -0.1809373971D+00 E(B2PLYPD3) =    -0.13271420242729D+03

 The electronic state is 1-A.
 Alpha  occ. eigenvalues --  -14.84332 -10.67413 -10.66410  -1.03988  -0.89021
 Alpha  occ. eigenvalues --   -0.59673  -0.54595  -0.52743  -0.44827  -0.39063
 Alpha  occ. eigenvalues --   -0.38882
 Alpha virt. eigenvalues --    0.03662   0.07312   0.08159   0.10160   0.11263
 Alpha virt. eigenvalues --    0.11598   0.15357   0.16069   0.16670   0.20040
 Alpha virt. eigenvalues --    0.20164   0.25321   0.32563   0.34094   0.34868

 Mulliken charges:
               1
     1  C   -0.085667
     2  C   -0.000186
     3  N   -0.207230
     4  H    0.101792
     5  H    0.094793
     6  H    0.096498
 Sum of Mulliken charges =   0.00000

 Dipole moment (field-independent basis, Debye):
    X=             -4.1306    Y=              0.0153    Z=             -0.0141  Tot=              4.1307
 Quadrupole moment (field-independent basis, Debye-Ang):
   XX=            -20.9955   YY=            -17.7127   ZZ=            -17.8611
   XY=              0.1277   XZ=             -0.1052   YZ=             -0.0236

 Normal termination of Gaussian 09 at Wed Aug 26 09:56:39 2020.
