 Gaussian 09, Revision D.01,
 Gaussian 09:  ES64L-G09RevD.01 24-Apr-2013

 --------------------
 #p B2PLYPD3/Def2QZVP
 --------------------

 ------------
 cyanomethane
 ------------
 Symbolic Z-matrix:
 Charge =  0 Multiplicity = 1

                         Standard orientation:
 ---------------------------------------------------------------------
 Center     Atomic      Atomic             Coordinates (Angstroms)
 Number     Number       Type             X           Y           Z
 ---------------------------------------------------------------------
      1          6           0       -1.208278   -0.015652   -0.003840
      2          6           0        0.285582   -0.017611   -0.048581
      3          7           0        1.439884    0.005518    0.027218
      4          1           0       -1.529298    0.143734    1.023740
      5          1           0       -1.564601   -0.916447   -0.370986
      6          1           0       -1.449104    0.933666   -0.528755
 ---------------------------------------------------------------------

 SCF Done:  E(RB2PLYPD3) =  -132.528616660     A.U. after   12 cycles
 E2(B2PLYPD3) =    -0.1807423749D+00 E(B2PLYPD3) =    -0.13270935903501D+03

 The electronic state is 1-A.
 Alpha  occ. eigenvalues --  -14.84133 -10.67270 -10.66290  -1.03844  -0.89070
 Alpha  occ. eigenvalues --   -0.58706  -0.56050  -0.52650  -0.44561  -0.39260
 Alpha  occ. eigenvalues --   -0.38785
 Alpha virt. eigenvalues --    0.03675   0.07853   0.08768   0.10183   0.10826
 Alpha virt. eigenvalues --    0.11559   0.15018   0.15576   0.16402   0.19986
 Alpha virt. eigenvalues --    0.20192   0.24705   0.32331   0.33518   0.35594

 Mulliken charges:
               1
     1  C   -0.095942
     2  C   -0.004322
     3  N   -0.208476
     4  H    0.097360
     5  H    0.108654
     6  H    0.102725
 Sum of Mulliken charges =   0.00000

 Dipole moment (field-independent basis, Debye):
    X=             -4.1278    Y=              0.0150    Z=              0.0028  Tot=              4.1278
 Quadrupole moment (field-independent basis, Debye-Ang):
   XX=            -21.2770   YY=            -17.4510   ZZ=            -17.9406
   XY=              0.0208   XZ=             -0.2757   YZ=              0.0507

 Normal termination of Gaussian 09 at Wed Aug 26 21:46:44 2020.
