 Gaussian 09, Revision D.01,
 Gaussian 09:  ES64L-G09RevD.01 24-Apr-2013

 --------------------
 #p B2PLYPD3/Def2QZVP
 --------------------

 ------------
 cyanomethane
 ------------
 Symbolic Z-matrix:
 Charge =  0 Multiplicity = 1

                         Standard orientation:
 ---------------------------------------------------------------------
 Center     Atomic      Atomic             Coordinates (Angstroms)
 Number     Number       Type             X           Y           Z
 ---------------------------------------------------------------------
      1          6           0        1.169930   -0.024777   -0.013787
      2          6           0       -0.285906   -0.063221    0.006177
      3          7           0       -1.436712    0.051217    0.000697
      4          1           0        1.745285    0.942566   -0.478784
      5          1           0        1.391152   -0.821967   -0.489115
      6          1           0        1.616407    0.048869    1.008678
 ---------------------------------------------------------------------

 SCF Done:  E(RB2PLYPD3) =  -132.503121808     A.U. after   13 cycles
 E2(B2PLYPD3) =    -0.1814234225D+00 E(B2PLYPD3) =    -0.13268454523071D+03

 The electronic state is 1-A.
 Alpha  occ. eigenvalues --  -14.84507 -10.67126 -10.66491  -1.04249  -0.89699
 Alpha  occ. eigenvalues --   -0.60042  -0.56980  -0.50048  -0.45018  -0.39422
 Alpha  occ. eigenvalues --   -0.38573
 Alpha virt. eigenvalues --    0.02919   0.06194   0.09116   0.10002   0.10849
 Alpha virt. eigenvalues --    0.12039   0.15304   0.16148   0.17500   0.19830
 Alpha virt. eigenvalues --    0.20496   0.25600   0.31529   0.33076   0.35621

 Mulliken charges:
               1
     1  C   -0.090766
     2  C    0.003207
     3  N   -0.204124
     4  H    0.085502
     5  H    0.115594
     6  H    0.090587
 Sum of Mulliken charges =   0.00000

 Dipole moment (field-independent basis, Debye):
    X=              4.1047    Y=             -0.0815    Z=              0.0437  Tot=              4.1057
 Quadrupole moment (field-independent basis, Debye-Ang):
   XX=            -20.6984   YY=            -17.7742   ZZ=            -17.9784
   XY=              0.5387   XZ=              0.1507   YZ=              0.2357

 Normal termination of Gaussian 09 at Wed Aug 26 23:43:39 2020.
