 Gaussian 09, Revision D.01,
 Gaussian 09:  ES64L-G09RevD.01 24-Apr-2013

 --------------------
 #p B2PLYPD3/Def2QZVP
 --------------------

 ------------
 cyanomethane
 ------------
 Symbolic Z-matrix:
 Charge =  0 Multiplicity = 1

                         Standard orientation:
 ---------------------------------------------------------------------
 Center     Atomic      Atomic             Coordinates (Angstroms)
 Number     Number       Type             X           Y           Z
 ---------------------------------------------------------------------
      1          6           0        1.179051   -0.003980   -0.006981
      2          6           0       -0.277209   -0.022160    0.006711
      3          7           0       -1.427548    0.008507    0.001423
      4          1           0        1.584425    0.055879    0.999989
      5          1           0        1.458071    0.935458   -0.522946
      6          1           0        1.539294   -0.894046   -0.485384
 ---------------------------------------------------------------------

 SCF Done:  E(RB2PLYPD3) =  -132.534640355     A.U. after   11 cycles
 E2(B2PLYPD3) =    -0.1801376709D+00 E(B2PLYPD3) =    -0.13271477802572D+03

 The electronic state is 1-A.
 Alpha  occ. eigenvalues --  -14.83971 -10.67121 -10.66028  -1.04209  -0.89326
 Alpha  occ. eigenvalues --   -0.59336  -0.54942  -0.53340  -0.44669  -0.39186
 Alpha  occ. eigenvalues --   -0.38957
 Alpha virt. eigenvalues --    0.03749   0.07904   0.08258   0.10208   0.11344
 Alpha virt. eigenvalues --    0.11678   0.15274   0.16034   0.16365   0.20032
 Alpha virt. eigenvalues --    0.20143   0.25357   0.32792   0.34036   0.35008

 Mulliken charges:
               1
     1  C   -0.092059
     2  C   -0.002997
     3  N   -0.205407
     4  H    0.095844
     5  H    0.101483
     6  H    0.103135
 Sum of Mulliken charges =   0.00000

 Dipole moment (field-independent basis, Debye):
    X=              4.1127    Y=             -0.0020    Z=              0.0161  Tot=              4.1128
 Quadrupole moment (field-independent basis, Debye-Ang):
   XX=            -21.1499   YY=            -17.5518   ZZ=            -17.8327
   XY=              0.0072   XZ=              0.1287   YZ=              0.0305

 Normal termination of Gaussian 09 at Wed Aug 26 14:56:33 2020.
