 Gaussian 09, Revision D.01,
 Gaussian 09:  ES64L-G09RevD.01 24-Apr-2013

 --------------------
 #p B2PLYPD3/Def2QZVP
 --------------------

 ------------
 cyanomethane
 ------------
 Symbolic Z-matrix:
 Charge =  0 Multiplicity = 1

                         Standard orientation:
 ---------------------------------------------------------------------
 Center     Atomic      Atomic             Coordinates (Angstroms)
 Number     Number       Type             X           Y           Z
 ---------------------------------------------------------------------
      1          6           0        1.147827   -0.034623    0.013886
      2          6           0       -0.266633    0.054146    0.029932
      3          7           0       -1.430569   -0.020600   -0.014390
      4          1           0        1.617035    1.091245   -0.174965
      5          1           0        1.513975   -0.640599   -0.863647
      6          1           0        1.595812   -0.423578    0.876430
 ---------------------------------------------------------------------

 SCF Done:  E(RB2PLYPD3) =  -132.519337799     A.U. after   12 cycles
 E2(B2PLYPD3) =    -0.1825030513D+00 E(B2PLYPD3) =    -0.13270184085035D+03

 The electronic state is 1-A.
 Alpha  occ. eigenvalues --  -14.84700 -10.68045 -10.66637  -1.03862  -0.89088
 Alpha  occ. eigenvalues --   -0.61064  -0.54064  -0.51309  -0.45068  -0.38785
 Alpha  occ. eigenvalues --   -0.38179
 Alpha virt. eigenvalues --    0.03323   0.05970   0.07328   0.09917   0.11449
 Alpha virt. eigenvalues --    0.11930   0.15634   0.15974   0.17087   0.20088
 Alpha virt. eigenvalues --    0.20177   0.26249   0.30833   0.33846   0.34767

 Mulliken charges:
               1
     1  C   -0.090703
     2  C    0.011604
     3  N   -0.210237
     4  H    0.085088
     5  H    0.099485
     6  H    0.104763
 Sum of Mulliken charges =   0.00000

 Dipole moment (field-independent basis, Debye):
    X=              4.0886    Y=             -0.0269    Z=              0.0170  Tot=              4.0888
 Quadrupole moment (field-independent basis, Debye-Ang):
   XX=            -20.9780   YY=            -17.8521   ZZ=            -17.8923
   XY=             -0.1604   XZ=             -0.0418   YZ=             -0.0339

 Normal termination of Gaussian 09 at Wed Aug 26 23:42:38 2020.
