 Gaussian 09, Revision D.01,
 Gaussian 09:  ES64L-G09RevD.01 24-Apr-2013

 --------------------
 #p B2PLYPD3/Def2QZVP
 --------------------

 ------------
 cyanomethane
 ------------
 Symbolic Z-matrix:
 Charge =  0 Multiplicity = 1

                         Standard orientation:
 ---------------------------------------------------------------------
 Center     Atomic      Atomic             Coordinates (Angstroms)
 Number     Number       Type             X           Y           Z
 ---------------------------------------------------------------------
      1          6           0       -1.160795    0.033724   -0.009524
      2          6           0        0.283960    0.021108    0.016775
      3          7           0        1.422650   -0.014003   -0.015285
      4          1           0       -1.640090   -0.696437   -0.791880
      5          1           0       -1.592431    0.956981   -0.091656
      6          1           0       -1.465015   -0.491517    0.947023
 ---------------------------------------------------------------------

 SCF Done:  E(RB2PLYPD3) =  -132.524869384     A.U. after   12 cycles
 E2(B2PLYPD3) =    -0.1797361514D+00 E(B2PLYPD3) =    -0.13270460553511D+03

 The electronic state is 1-A.
 Alpha  occ. eigenvalues --  -14.83831 -10.67492 -10.65885  -1.04805  -0.89072
 Alpha  occ. eigenvalues --   -0.60500  -0.55102  -0.51231  -0.44835  -0.39677
 Alpha  occ. eigenvalues --   -0.38839
 Alpha virt. eigenvalues --    0.03495   0.07057   0.08465   0.10139   0.11363
 Alpha virt. eigenvalues --    0.12243   0.15512   0.15777   0.17737   0.19940
 Alpha virt. eigenvalues --    0.20203   0.25605   0.32473   0.32951   0.35344

 Mulliken charges:
               1
     1  C   -0.087250
     2  C    0.001941
     3  N   -0.197897
     4  H    0.087819
     5  H    0.105189
     6  H    0.090197
 Sum of Mulliken charges =   0.00000

 Dipole moment (field-independent basis, Debye):
    X=             -4.0951    Y=             -0.0073    Z=              0.0581  Tot=              4.0955
 Quadrupole moment (field-independent basis, Debye-Ang):
   XX=            -20.8977   YY=            -17.5648   ZZ=            -17.9851
   XY=              0.1431   XZ=              0.1397   YZ=             -0.0642

 Normal termination of Gaussian 09 at Wed Aug 26 22:16:50 2020.
