 Gaussian 09, Revision D.01,
 Gaussian 09:  ES64L-G09RevD.01 24-Apr-2013

 --------------------
 #p B2PLYPD3/Def2QZVP
 --------------------

 ------------
 cyanomethane
 ------------
 Symbolic Z-matrix:
 Charge =  0 Multiplicity = 1

                         Standard orientation:
 ---------------------------------------------------------------------
 Center     Atomic      Atomic             Coordinates (Angstroms)
 Number     Number       Type             X           Y           Z
 ---------------------------------------------------------------------
      1          6           0       -1.195027   -0.044834    0.004430
      2          6           0        0.299475    0.076700    0.004418
      3          7           0        1.435180   -0.030686   -0.001979
      4          1           0       -1.565774   -0.050755    0.931155
      5          1           0       -1.489338   -0.857432   -0.531065
      6          1           0       -1.617835    0.931791   -0.439323
 ---------------------------------------------------------------------

 SCF Done:  E(RB2PLYPD3) =  -132.522105990     A.U. after   12 cycles
 E2(B2PLYPD3) =    -0.1791395497D+00 E(B2PLYPD3) =    -0.13270124553973D+03

 The electronic state is 1-A.
 Alpha  occ. eigenvalues --  -14.83921 -10.66421 -10.66014  -1.04668  -0.89392
 Alpha  occ. eigenvalues --   -0.59734  -0.56278  -0.52253  -0.44766  -0.39901
 Alpha  occ. eigenvalues --   -0.39385
 Alpha virt. eigenvalues --    0.03764   0.07969   0.09001   0.10132   0.11181
 Alpha virt. eigenvalues --    0.11581   0.15291   0.15905   0.17215   0.19879
 Alpha virt. eigenvalues --    0.20043   0.25151   0.31957   0.34145   0.36179

 Mulliken charges:
               1
     1  C   -0.076863
     2  C   -0.001206
     3  N   -0.198810
     4  H    0.093754
     5  H    0.101989
     6  H    0.081135
 Sum of Mulliken charges =   0.00000

 Dipole moment (field-independent basis, Debye):
    X=             -4.1027    Y=              0.0380    Z=              0.0451  Tot=              4.1031
 Quadrupole moment (field-independent basis, Debye-Ang):
   XX=            -20.8443   YY=            -17.5897   ZZ=            -17.8490
   XY=              0.0923   XZ=             -0.1056   YZ=              0.1202

 Normal termination of Gaussian 09 at Wed Aug 26 23:38:47 2020.
