 Gaussian 09, Revision D.01,
 Gaussian 09:  ES64L-G09RevD.01 24-Apr-2013

 --------------------
 #p B2PLYPD3/Def2QZVP
 --------------------

 ------------
 cyanomethane
 ------------
 Symbolic Z-matrix:
 Charge =  0 Multiplicity = 1

                         Standard orientation:
 ---------------------------------------------------------------------
 Center     Atomic      Atomic             Coordinates (Angstroms)
 Number     Number       Type             X           Y           Z
 ---------------------------------------------------------------------
      1          6           0       -1.178042   -0.002444   -0.001650
      2          6           0        0.279370    0.032261   -0.002576
      3          7           0        1.424703   -0.009661    0.003806
      4          1           0       -1.511370   -0.524777    0.905152
      5          1           0       -1.451749   -0.597433   -0.865526
      6          1           0       -1.617766    1.010935   -0.040912
 ---------------------------------------------------------------------

 SCF Done:  E(RB2PLYPD3) =  -132.535054008     A.U. after   12 cycles
 E2(B2PLYPD3) =    -0.1798223428D+00 E(B2PLYPD3) =    -0.13271487635066D+03

 The electronic state is 1-A.
 Alpha  occ. eigenvalues --  -14.83836 -10.67318 -10.65892  -1.04394  -0.89142
 Alpha  occ. eigenvalues --   -0.59044  -0.54297  -0.53752  -0.44648  -0.39243
 Alpha  occ. eigenvalues --   -0.39110
 Alpha virt. eigenvalues --    0.03734   0.07916   0.08255   0.10216   0.11482
 Alpha virt. eigenvalues --    0.11685   0.15337   0.15879   0.16485   0.20018
 Alpha virt. eigenvalues --    0.20114   0.25362   0.32684   0.34251   0.34806

 Mulliken charges:
               1
     1  C   -0.096702
     2  C   -0.003838
     3  N   -0.202699
     4  H    0.100043
     5  H    0.102921
     6  H    0.100275
 Sum of Mulliken charges =   0.00000

 Dipole moment (field-independent basis, Debye):
    X=             -4.0997    Y=             -0.0084    Z=             -0.0059  Tot=              4.0997
 Quadrupole moment (field-independent basis, Debye-Ang):
   XX=            -21.1776   YY=            -17.6225   ZZ=            -17.7376
   XY=             -0.0157   XZ=             -0.0642   YZ=              0.0171

 Normal termination of Gaussian 09 at Wed Aug 26 16:04:23 2020.
