 Gaussian 09, Revision D.01,
 Gaussian 09:  ES64L-G09RevD.01 24-Apr-2013

 --------------------
 #p B2PLYPD3/Def2QZVP
 --------------------

 ------------
 cyanomethane
 ------------
 Symbolic Z-matrix:
 Charge =  0 Multiplicity = 1

                         Standard orientation:
 ---------------------------------------------------------------------
 Center     Atomic      Atomic             Coordinates (Angstroms)
 Number     Number       Type             X           Y           Z
 ---------------------------------------------------------------------
      1          6           0        1.176763   -0.006580   -0.019765
      2          6           0       -0.291436   -0.001124    0.042940
      3          7           0       -1.437838   -0.001738   -0.020183
      4          1           0        1.541882    1.048660    0.002128
      5          1           0        1.600703   -0.493395   -0.838766
      6          1           0        1.610319   -0.496876    0.838862
 ---------------------------------------------------------------------

 SCF Done:  E(RB2PLYPD3) =  -132.532372345     A.U. after   12 cycles
 E2(B2PLYPD3) =    -0.1799620435D+00 E(B2PLYPD3) =    -0.13271233438801D+03

 The electronic state is 1-A.
 Alpha  occ. eigenvalues --  -14.84194 -10.66875 -10.66299  -1.04464  -0.89110
 Alpha  occ. eigenvalues --   -0.60658  -0.53801  -0.53106  -0.44921  -0.39451
 Alpha  occ. eigenvalues --   -0.39285
 Alpha virt. eigenvalues --    0.03749   0.07884   0.08069   0.10145   0.11497
 Alpha virt. eigenvalues --    0.11535   0.15412   0.16246   0.17293   0.20016
 Alpha virt. eigenvalues --    0.20091   0.25316   0.32724   0.34239   0.35319

 Mulliken charges:
               1
     1  C   -0.069702
     2  C    0.002793
     3  N   -0.201955
     4  H    0.089679
     5  H    0.093331
     6  H    0.085854
 Sum of Mulliken charges =   0.00000

 Dipole moment (field-independent basis, Debye):
    X=              4.1285    Y=             -0.0168    Z=              0.0361  Tot=              4.1287
 Quadrupole moment (field-independent basis, Debye-Ang):
   XX=            -20.7083   YY=            -17.7224   ZZ=            -17.9103
   XY=             -0.1050   XZ=             -0.0908   YZ=              0.0377

 Normal termination of Gaussian 09 at Wed Aug 26 10:20:17 2020.
