 Gaussian 09, Revision D.01,
 Gaussian 09:  ES64L-G09RevD.01 24-Apr-2013

 --------------------
 #p B2PLYPD3/Def2QZVP
 --------------------

 ------------
 cyanomethane
 ------------
 Symbolic Z-matrix:
 Charge =  0 Multiplicity = 1

                         Standard orientation:
 ---------------------------------------------------------------------
 Center     Atomic      Atomic             Coordinates (Angstroms)
 Number     Number       Type             X           Y           Z
 ---------------------------------------------------------------------
      1          6           0       -1.160774   -0.015486    0.008235
      2          6           0        0.263920    0.043958   -0.010478
      3          7           0        1.433473   -0.024938    0.000985
      4          1           0       -1.510108    1.026459   -0.171466
      5          1           0       -1.522105   -0.353720    0.947728
      6          1           0       -1.620975   -0.669004   -0.769702
 ---------------------------------------------------------------------

 SCF Done:  E(RB2PLYPD3) =  -132.529994359     A.U. after   12 cycles
 E2(B2PLYPD3) =    -0.1822067347D+00 E(B2PLYPD3) =    -0.13271220109354D+03

 The electronic state is 1-A.
 Alpha  occ. eigenvalues --  -14.84681 -10.67061 -10.66658  -1.03564  -0.89678
 Alpha  occ. eigenvalues --   -0.60610  -0.54315  -0.53241  -0.44936  -0.38579
 Alpha  occ. eigenvalues --   -0.38397
 Alpha virt. eigenvalues --    0.03669   0.06951   0.07570   0.09967   0.11422
 Alpha virt. eigenvalues --    0.11539   0.15499   0.15804   0.17020   0.20119
 Alpha virt. eigenvalues --    0.20275   0.26037   0.32709   0.34000   0.34904

 Mulliken charges:
               1
     1  C   -0.081262
     2  C    0.005146
     3  N   -0.214184
     4  H    0.094771
     5  H    0.100250
     6  H    0.095280
 Sum of Mulliken charges =   0.00000

 Dipole moment (field-independent basis, Debye):
    X=             -4.1339    Y=              0.0299    Z=              0.0128  Tot=              4.1340
 Quadrupole moment (field-independent basis, Debye-Ang):
   XX=            -20.9713   YY=            -17.7661   ZZ=            -17.8529
   XY=              0.2014   XZ=              0.0274   YZ=             -0.0298

 Normal termination of Gaussian 09 at Wed Aug 26 15:00:53 2020.
