 Gaussian 09, Revision D.01,
 Gaussian 09:  ES64L-G09RevD.01 24-Apr-2013

 --------------------
 #p B2PLYPD3/Def2QZVP
 --------------------

 ------------
 cyanomethane
 ------------
 Symbolic Z-matrix:
 Charge =  0 Multiplicity = 1

                         Standard orientation:
 ---------------------------------------------------------------------
 Center     Atomic      Atomic             Coordinates (Angstroms)
 Number     Number       Type             X           Y           Z
 ---------------------------------------------------------------------
      1          6           0       -1.171899    0.022233    0.004136
      2          6           0        0.300062   -0.038648   -0.019931
      3          7           0        1.432999    0.009743   -0.005449
      4          1           0       -1.599667    0.976888   -0.431738
      5          1           0       -1.393254   -0.047578    1.085906
      6          1           0       -1.807050   -0.899026   -0.521256
 ---------------------------------------------------------------------

 SCF Done:  E(RB2PLYPD3) =  -132.518739713     A.U. after   12 cycles
 E2(B2PLYPD3) =    -0.1800252900D+00 E(B2PLYPD3) =    -0.13269876500318D+03

 The electronic state is 1-A.
 Alpha  occ. eigenvalues --  -14.83810 -10.69191 -10.65994  -1.05072  -0.87530
 Alpha  occ. eigenvalues --   -0.58986  -0.53385  -0.50615  -0.44855  -0.39653
 Alpha  occ. eigenvalues --   -0.39304
 Alpha virt. eigenvalues --    0.03246   0.06365   0.08055   0.10320   0.11725
 Alpha virt. eigenvalues --    0.12073   0.15051   0.15908   0.17658   0.19947
 Alpha virt. eigenvalues --    0.20116   0.25170   0.30706   0.33886   0.34145

 Mulliken charges:
               1
     1  C   -0.106723
     2  C    0.002595
     3  N   -0.192115
     4  H    0.103272
     5  H    0.104232
     6  H    0.088739
 Sum of Mulliken charges =   0.00000

 Dipole moment (field-independent basis, Debye):
    X=             -4.0759    Y=              0.0161    Z=              0.0628  Tot=              4.0764
 Quadrupole moment (field-independent basis, Debye-Ang):
   XX=            -20.9292   YY=            -17.8423   ZZ=            -17.8947
   XY=              0.0055   XZ=              0.1751   YZ=             -0.1013

 Normal termination of Gaussian 09 at Wed Aug 26 23:50:43 2020.
