 Gaussian 09, Revision D.01,
 Gaussian 09:  ES64L-G09RevD.01 24-Apr-2013

 --------------------
 #p B2PLYPD3/Def2QZVP
 --------------------

 ------------
 cyanomethane
 ------------
 Symbolic Z-matrix:
 Charge =  0 Multiplicity = 1

                         Standard orientation:
 ---------------------------------------------------------------------
 Center     Atomic      Atomic             Coordinates (Angstroms)
 Number     Number       Type             X           Y           Z
 ---------------------------------------------------------------------
      1          6           0       -1.168724   -0.025220   -0.006593
      2          6           0        0.289523    0.027387   -0.008542
      3          7           0        1.426872   -0.006826    0.008215
      4          1           0       -1.606677   -0.068485    1.003454
      5          1           0       -1.493716   -0.839902   -0.552155
      6          1           0       -1.612503    0.943167   -0.417992
 ---------------------------------------------------------------------

 SCF Done:  E(RB2PLYPD3) =  -132.531431918     A.U. after   11 cycles
 E2(B2PLYPD3) =    -0.1792062203D+00 E(B2PLYPD3) =    -0.13271063813871D+03

 The electronic state is 1-A.
 Alpha  occ. eigenvalues --  -14.83817 -10.67111 -10.65859  -1.04848  -0.89068
 Alpha  occ. eigenvalues --   -0.60077  -0.55055  -0.52012  -0.44821  -0.39715
 Alpha  occ. eigenvalues --   -0.39275
 Alpha virt. eigenvalues --    0.03731   0.07579   0.08456   0.10198   0.11470
 Alpha virt. eigenvalues --    0.11909   0.15467   0.16452   0.16936   0.19920
 Alpha virt. eigenvalues --    0.20076   0.25430   0.32535   0.33944   0.35563

 Mulliken charges:
               1
     1  C   -0.079063
     2  C   -0.002028
     3  N   -0.196678
     4  H    0.089377
     5  H    0.101665
     6  H    0.086728
 Sum of Mulliken charges =   0.00000

 Dipole moment (field-independent basis, Debye):
    X=             -4.1016    Y=              0.0064    Z=              0.0062  Tot=              4.1016
 Quadrupole moment (field-independent basis, Debye-Ang):
   XX=            -20.8343   YY=            -17.6613   ZZ=            -17.8517
   XY=             -0.0410   XZ=             -0.1480   YZ=              0.1078

 Normal termination of Gaussian 09 at Wed Aug 26 14:46:54 2020.
