 Gaussian 09, Revision D.01,
 Gaussian 09:  ES64L-G09RevD.01 24-Apr-2013

 --------------------
 #p B2PLYPD3/Def2QZVP
 --------------------

 ------------
 cyanomethane
 ------------
 Symbolic Z-matrix:
 Charge =  0 Multiplicity = 1

                         Standard orientation:
 ---------------------------------------------------------------------
 Center     Atomic      Atomic             Coordinates (Angstroms)
 Number     Number       Type             X           Y           Z
 ---------------------------------------------------------------------
      1          6           0       -1.178189    0.001032    0.012525
      2          6           0        0.282070    0.021742   -0.006736
      3          7           0        1.428093   -0.011743    0.001176
      4          1           0       -1.526252   -0.173757    1.003988
      5          1           0       -1.550867   -0.841763   -0.655380
      6          1           0       -1.542821    0.961076   -0.391567
 ---------------------------------------------------------------------

 SCF Done:  E(RB2PLYPD3) =  -132.533946187     A.U. after   11 cycles
 E2(B2PLYPD3) =    -0.1799452678D+00 E(B2PLYPD3) =    -0.13271389145460D+03

 The electronic state is 1-A.
 Alpha  occ. eigenvalues --  -14.83913 -10.67521 -10.65964  -1.04397  -0.88922
 Alpha  occ. eigenvalues --   -0.59194  -0.54517  -0.52974  -0.44700  -0.39309
 Alpha  occ. eigenvalues --   -0.39082
 Alpha virt. eigenvalues --    0.03667   0.07707   0.08246   0.10180   0.11437
 Alpha virt. eigenvalues --    0.11698   0.15351   0.16098   0.16402   0.20016
 Alpha virt. eigenvalues --    0.20092   0.25304   0.32589   0.33808   0.34960

 Mulliken charges:
               1
     1  C   -0.095128
     2  C   -0.003117
     3  N   -0.202027
     4  H    0.103596
     5  H    0.096317
     6  H    0.100358
 Sum of Mulliken charges =   0.00000

 Dipole moment (field-independent basis, Debye):
    X=             -4.0992    Y=              0.0135    Z=              0.0054  Tot=              4.0993
 Quadrupole moment (field-independent basis, Debye-Ang):
   XX=            -21.1468   YY=            -17.6958   ZZ=            -17.7158
   XY=              0.0829   XZ=             -0.0014   YZ=             -0.0478

 Normal termination of Gaussian 09 at Wed Aug 26 09:43:39 2020.
