 Gaussian 09, Revision D.01,
 Gaussian 09:  ES64L-G09RevD.01 24-Apr-2013

 --------------------
 #p B2PLYPD3/Def2QZVP
 --------------------

 ------------
 cyanomethane
 ------------
 Symbolic Z-matrix:
 Charge =  0 Multiplicity = 1

                         Standard orientation:
 ---------------------------------------------------------------------
 Center     Atomic      Atomic             Coordinates (Angstroms)
 Number     Number       Type             X           Y           Z
 ---------------------------------------------------------------------
      1          6           0       -1.206060   -0.035908   -0.001644
      2          6           0        0.283929   -0.024402   -0.032183
      3          7           0        1.444231    0.012428    0.021980
      4          1           0       -1.588544    0.260861    0.969570
      5          1           0       -1.545079   -0.890248   -0.318993
      6          1           0       -1.443213    0.904253   -0.601473
 ---------------------------------------------------------------------

 SCF Done:  E(RB2PLYPD3) =  -132.517940026     A.U. after   12 cycles
 E2(B2PLYPD3) =    -0.1811527454D+00 E(B2PLYPD3) =    -0.13269909277101D+03

 The electronic state is 1-A.
 Alpha  occ. eigenvalues --  -14.84333 -10.66851 -10.66531  -1.03693  -0.89576
 Alpha  occ. eigenvalues --   -0.59722  -0.57229  -0.51637  -0.44656  -0.39303
 Alpha  occ. eigenvalues --   -0.38497
 Alpha virt. eigenvalues --    0.03656   0.07502   0.08982   0.10156   0.10590
 Alpha virt. eigenvalues --    0.11743   0.15038   0.15494   0.16937   0.19951
 Alpha virt. eigenvalues --    0.20289   0.24692   0.32151   0.32968   0.35946

 Mulliken charges:
               1
     1  C   -0.089421
     2  C   -0.000129
     3  N   -0.211049
     4  H    0.094049
     5  H    0.111346
     6  H    0.095204
 Sum of Mulliken charges =   0.00000

 Dipole moment (field-independent basis, Debye):
    X=             -4.1512    Y=              0.0353    Z=              0.0023  Tot=              4.1514
 Quadrupole moment (field-independent basis, Debye-Ang):
   XX=            -21.1170   YY=            -17.4511   ZZ=            -18.0357
   XY=             -0.1092   XZ=             -0.2820   YZ=              0.1197

 Normal termination of Gaussian 09 at Wed Aug 26 19:43:42 2020.
