 Gaussian 09, Revision D.01,
 Gaussian 09:  ES64L-G09RevD.01 24-Apr-2013

 --------------------
 #p B2PLYPD3/Def2QZVP
 --------------------

 ------------
 cyanomethane
 ------------
 Symbolic Z-matrix:
 Charge =  0 Multiplicity = 1

                         Standard orientation:
 ---------------------------------------------------------------------
 Center     Atomic      Atomic             Coordinates (Angstroms)
 Number     Number       Type             X           Y           Z
 ---------------------------------------------------------------------
      1          6           0        1.174405   -0.033310    0.009367
      2          6           0       -0.269599    0.019213   -0.041627
      3          7           0       -1.419739   -0.008574    0.023170
      4          1           0        1.538698   -0.088061    1.018025
      5          1           0        1.468654    1.000975   -0.373230
      6          1           0        1.501987   -0.768314   -0.613426
 ---------------------------------------------------------------------

 SCF Done:  E(RB2PLYPD3) =  -132.527988856     A.U. after   12 cycles
 E2(B2PLYPD3) =    -0.1802737686D+00 E(B2PLYPD3) =    -0.13270826262435D+03

 The electronic state is 1-A.
 Alpha  occ. eigenvalues --  -14.83945 -10.66662 -10.65951  -1.04167  -0.89927
 Alpha  occ. eigenvalues --   -0.59549  -0.56369  -0.52870  -0.44646  -0.39245
 Alpha  occ. eigenvalues --   -0.38617
 Alpha virt. eigenvalues --    0.03753   0.07679   0.08640   0.10063   0.11186
 Alpha virt. eigenvalues --    0.11835   0.15237   0.15507   0.16931   0.20064
 Alpha virt. eigenvalues --    0.20179   0.25699   0.32291   0.33814   0.35832

 Mulliken charges:
               1
     1  C   -0.093929
     2  C   -0.000154
     3  N   -0.207882
     4  H    0.102630
     5  H    0.092173
     6  H    0.107162
 Sum of Mulliken charges =   0.00000

 Dipole moment (field-independent basis, Debye):
    X=              4.0902    Y=              0.0298    Z=             -0.0257  Tot=              4.0904
 Quadrupole moment (field-independent basis, Debye-Ang):
   XX=            -21.2421   YY=            -17.6511   ZZ=            -17.6352
   XY=             -0.0401   XZ=              0.1830   YZ=              0.1175

 Normal termination of Gaussian 09 at Wed Aug 26 22:45:29 2020.
