 Gaussian 09, Revision D.01,
 Gaussian 09:  ES64L-G09RevD.01 24-Apr-2013

 --------------------
 #p B2PLYPD3/Def2QZVP
 --------------------

 ------------
 cyanomethane
 ------------
 Symbolic Z-matrix:
 Charge =  0 Multiplicity = 1

                         Standard orientation:
 ---------------------------------------------------------------------
 Center     Atomic      Atomic             Coordinates (Angstroms)
 Number     Number       Type             X           Y           Z
 ---------------------------------------------------------------------
      1          6           0       -1.177550   -0.001315   -0.002611
      2          6           0        0.279558   -0.007930    0.012928
      3          7           0        1.439314    0.004359   -0.008801
      4          1           0       -1.568308    1.010679   -0.169143
      5          1           0       -1.532542   -0.345425    0.949298
      6          1           0       -1.586401   -0.640298   -0.780454
 ---------------------------------------------------------------------

 SCF Done:  E(RB2PLYPD3) =  -132.534848760     A.U. after   12 cycles
 E2(B2PLYPD3) =    -0.1809183136D+00 E(B2PLYPD3) =    -0.13271576707388D+03

 The electronic state is 1-A.
 Alpha  occ. eigenvalues --  -14.84404 -10.67011 -10.66480  -1.03931  -0.89291
 Alpha  occ. eigenvalues --   -0.60081  -0.54165  -0.53546  -0.44862  -0.38995
 Alpha  occ. eigenvalues --   -0.38944
 Alpha virt. eigenvalues --    0.03757   0.07602   0.08004   0.10161   0.11348
 Alpha virt. eigenvalues --    0.11459   0.15429   0.16161   0.16709   0.20087
 Alpha virt. eigenvalues --    0.20140   0.25364   0.32697   0.34586   0.34848

 Mulliken charges:
               1
     1  C   -0.077441
     2  C    0.000380
     3  N   -0.208380
     4  H    0.094223
     5  H    0.096047
     6  H    0.095170
 Sum of Mulliken charges =   0.00000

 Dipole moment (field-independent basis, Debye):
    X=             -4.1433    Y=             -0.0065    Z=              0.0180  Tot=              4.1434
 Quadrupole moment (field-independent basis, Debye-Ang):
   XX=            -20.9013   YY=            -17.8057   ZZ=            -17.7832
   XY=             -0.0252   XZ=              0.0751   YZ=             -0.0032

 Normal termination of Gaussian 09 at Thu Aug 27 00:13:59 2020.
