 Gaussian 09, Revision D.01,
 Gaussian 09:  ES64L-G09RevD.01 24-Apr-2013

 --------------------
 #p B2PLYPD3/Def2QZVP
 --------------------

 ------------
 cyanomethane
 ------------
 Symbolic Z-matrix:
 Charge =  0 Multiplicity = 1

                         Standard orientation:
 ---------------------------------------------------------------------
 Center     Atomic      Atomic             Coordinates (Angstroms)
 Number     Number       Type             X           Y           Z
 ---------------------------------------------------------------------
      1          6           0        1.174640   -0.002883   -0.009599
      2          6           0       -0.272748   -0.009239    0.021156
      3          7           0       -1.431326    0.004649   -0.008353
      4          1           0        1.559424   -0.429476    0.923805
      5          1           0        1.527726    1.044039   -0.085776
      6          1           0        1.520780   -0.574374   -0.848895
 ---------------------------------------------------------------------

 SCF Done:  E(RB2PLYPD3) =  -132.534773687     A.U. after   11 cycles
 E2(B2PLYPD3) =    -0.1808700410D+00 E(B2PLYPD3) =    -0.13271564372837D+03

 The electronic state is 1-A.
 Alpha  occ. eigenvalues --  -14.84248 -10.67134 -10.66280  -1.03927  -0.89398
 Alpha  occ. eigenvalues --   -0.59592  -0.54500  -0.53664  -0.44759  -0.38928
 Alpha  occ. eigenvalues --   -0.38804
 Alpha virt. eigenvalues --    0.03741   0.07709   0.07920   0.10148   0.11392
 Alpha virt. eigenvalues --    0.11515   0.15425   0.16045   0.16333   0.20103
 Alpha virt. eigenvalues --    0.20140   0.25529   0.32740   0.34206   0.34846

 Mulliken charges:
               1
     1  C   -0.088485
     2  C   -0.000882
     3  N   -0.208988
     4  H    0.097568
     5  H    0.098578
     6  H    0.102209
 Sum of Mulliken charges =   0.00000

 Dipole moment (field-independent basis, Debye):
    X=              4.1227    Y=             -0.0064    Z=              0.0118  Tot=              4.1227
 Quadrupole moment (field-independent basis, Debye-Ang):
   XX=            -21.1089   YY=            -17.7310   ZZ=            -17.7289
   XY=              0.0181   XZ=             -0.0123   YZ=              0.0295

 Normal termination of Gaussian 09 at Wed Aug 26 23:59:43 2020.
