 Gaussian 09, Revision D.01,
 Gaussian 09:  ES64L-G09RevD.01 24-Apr-2013

 --------------------
 #p B2PLYPD3/Def2QZVP
 --------------------

 ------------
 cyanomethane
 ------------
 Symbolic Z-matrix:
 Charge =  0 Multiplicity = 1

                         Standard orientation:
 ---------------------------------------------------------------------
 Center     Atomic      Atomic             Coordinates (Angstroms)
 Number     Number       Type             X           Y           Z
 ---------------------------------------------------------------------
      1          6           0       -1.167110    0.012920   -0.003314
      2          6           0        0.273972    0.020614   -0.014961
      3          7           0        1.435009   -0.017797    0.008715
      4          1           0       -1.490411    1.052133   -0.004367
      5          1           0       -1.602434   -0.542932    0.905580
      6          1           0       -1.593391   -0.585828   -0.852565
 ---------------------------------------------------------------------

 SCF Done:  E(RB2PLYPD3) =  -132.529395111     A.U. after   12 cycles
 E2(B2PLYPD3) =    -0.1816583120D+00 E(B2PLYPD3) =    -0.13271105342322D+03

 The electronic state is 1-A.
 Alpha  occ. eigenvalues --  -14.84439 -10.67910 -10.66466  -1.03893  -0.88893
 Alpha  occ. eigenvalues --   -0.59831  -0.54696  -0.51768  -0.44881  -0.38920
 Alpha  occ. eigenvalues --   -0.38530
 Alpha virt. eigenvalues --    0.03516   0.06747   0.07762   0.10096   0.11238
 Alpha virt. eigenvalues --    0.11855   0.15336   0.16327   0.16495   0.20000
 Alpha virt. eigenvalues --    0.20241   0.25637   0.32522   0.33401   0.34745

 Mulliken charges:
               1
     1  C   -0.089265
     2  C    0.002226
     3  N   -0.208546
     4  H    0.105612
     5  H    0.093165
     6  H    0.096808
 Sum of Mulliken charges =   0.00000

 Dipole moment (field-independent basis, Debye):
    X=             -4.1211    Y=             -0.0001    Z=             -0.0104  Tot=              4.1211
 Quadrupole moment (field-independent basis, Debye-Ang):
   XX=            -21.0440   YY=            -17.5987   ZZ=            -18.0367
   XY=              0.2661   XZ=             -0.0652   YZ=              0.0294

 Normal termination of Gaussian 09 at Wed Aug 26 12:34:02 2020.
