 Gaussian 09, Revision D.01,
 Gaussian 09:  ES64L-G09RevD.01 24-Apr-2013

 --------------------
 #p B2PLYPD3/Def2QZVP
 --------------------

 ------------
 cyanomethane
 ------------
 Symbolic Z-matrix:
 Charge =  0 Multiplicity = 1

                         Standard orientation:
 ---------------------------------------------------------------------
 Center     Atomic      Atomic             Coordinates (Angstroms)
 Number     Number       Type             X           Y           Z
 ---------------------------------------------------------------------
      1          6           0       -1.209366    0.014183    0.028494
      2          6           0        0.296245    0.046954   -0.007367
      3          7           0        1.441885   -0.025415   -0.003656
      4          1           0       -1.471372   -0.302031    0.955745
      5          1           0       -1.576759   -0.839076   -0.722421
      6          1           0       -1.566339    0.952189   -0.334493
 ---------------------------------------------------------------------

 SCF Done:  E(RB2PLYPD3) =  -132.522690726     A.U. after   12 cycles
 E2(B2PLYPD3) =    -0.1801353813D+00 E(B2PLYPD3) =    -0.13270282610689D+03

 The electronic state is 1-A.
 Alpha  occ. eigenvalues --  -14.83975 -10.67711 -10.66134  -1.04236  -0.88646
 Alpha  occ. eigenvalues --   -0.58365  -0.56541  -0.51442  -0.44596  -0.39622
 Alpha  occ. eigenvalues --   -0.39008
 Alpha virt. eigenvalues --    0.03428   0.07655   0.09007   0.10219   0.10881
 Alpha virt. eigenvalues --    0.11652   0.14964   0.16061   0.16227   0.19907
 Alpha virt. eigenvalues --    0.20127   0.24459   0.31471   0.33036   0.36139

 Mulliken charges:
               1
     1  C   -0.099839
     2  C   -0.005561
     3  N   -0.202248
     4  H    0.111070
     5  H    0.088389
     6  H    0.108189
 Sum of Mulliken charges =   0.00000

 Dipole moment (field-independent basis, Debye):
    X=             -4.1184    Y=              0.0291    Z=              0.0181  Tot=              4.1185
 Quadrupole moment (field-independent basis, Debye-Ang):
   XX=            -21.2064   YY=            -17.6558   ZZ=            -17.7815
   XY=              0.1610   XZ=              0.0892   YZ=             -0.1784

 Normal termination of Gaussian 09 at Wed Aug 26 23:00:26 2020.
