 Gaussian 09, Revision D.01,
 Gaussian 09:  ES64L-G09RevD.01 24-Apr-2013

 --------------------
 #p B2PLYPD3/Def2QZVP
 --------------------

 ------------
 cyanomethane
 ------------
 Symbolic Z-matrix:
 Charge =  0 Multiplicity = 1

                         Standard orientation:
 ---------------------------------------------------------------------
 Center     Atomic      Atomic             Coordinates (Angstroms)
 Number     Number       Type             X           Y           Z
 ---------------------------------------------------------------------
      1          6           0       -1.162537    0.005240    0.008503
      2          6           0        0.274343    0.006394   -0.007904
      3          7           0        1.437592   -0.015075    0.004955
      4          1           0       -1.429181    1.064233   -0.161064
      5          1           0       -1.655261   -0.375200    0.906787
      6          1           0       -1.649536   -0.653310   -0.783999
 ---------------------------------------------------------------------

 SCF Done:  E(RB2PLYPD3) =  -132.528328379     A.U. after   12 cycles
 E2(B2PLYPD3) =    -0.1818007441D+00 E(B2PLYPD3) =    -0.13271012912300D+03

 The electronic state is 1-A.
 Alpha  occ. eigenvalues --  -14.84547 -10.67625 -10.66620  -1.03894  -0.89107
 Alpha  occ. eigenvalues --   -0.60849  -0.54060  -0.51960  -0.44966  -0.38783
 Alpha  occ. eigenvalues --   -0.38630
 Alpha virt. eigenvalues --    0.03606   0.06729   0.07609   0.10083   0.11418
 Alpha virt. eigenvalues --    0.11793   0.15236   0.16256   0.17126   0.20033
 Alpha virt. eigenvalues --    0.20312   0.25744   0.32522   0.33982   0.34417

 Mulliken charges:
               1
     1  C   -0.081031
     2  C    0.006089
     3  N   -0.209839
     4  H    0.099989
     5  H    0.094743
     6  H    0.090050
 Sum of Mulliken charges =   0.00000

 Dipole moment (field-independent basis, Debye):
    X=             -4.1431    Y=              0.0082    Z=              0.0060  Tot=              4.1431
 Quadrupole moment (field-independent basis, Debye-Ang):
   XX=            -20.8329   YY=            -17.6790   ZZ=            -18.0802
   XY=              0.3211   XZ=             -0.0840   YZ=             -0.0473

 Normal termination of Gaussian 09 at Wed Aug 26 20:00:35 2020.
