 Gaussian 09, Revision D.01,
 Gaussian 09:  ES64L-G09RevD.01 24-Apr-2013

 --------------------
 #p B2PLYPD3/Def2QZVP
 --------------------

 ------------
 cyanomethane
 ------------
 Symbolic Z-matrix:
 Charge =  0 Multiplicity = 1

                         Standard orientation:
 ---------------------------------------------------------------------
 Center     Atomic      Atomic             Coordinates (Angstroms)
 Number     Number       Type             X           Y           Z
 ---------------------------------------------------------------------
      1          6           0        1.192146   -0.014190    0.004021
      2          6           0       -0.283887    0.025051   -0.007435
      3          7           0       -1.432715   -0.009409    0.003652
      4          1           0        1.500369   -0.860567   -0.610532
      5          1           0        1.525400   -0.100305    1.041446
      6          1           0        1.553678    0.961573   -0.435996
 ---------------------------------------------------------------------

 SCF Done:  E(RB2PLYPD3) =  -132.533848933     A.U. after   11 cycles
 E2(B2PLYPD3) =    -0.1802220454D+00 E(B2PLYPD3) =    -0.13271407097801D+03

 The electronic state is 1-A.
 Alpha  occ. eigenvalues --  -14.83931 -10.67810 -10.66033  -1.04195  -0.88660
 Alpha  occ. eigenvalues --   -0.58425  -0.54439  -0.53334  -0.44601  -0.39219
 Alpha  occ. eigenvalues --   -0.39068
 Alpha virt. eigenvalues --    0.03656   0.07944   0.08181   0.10197   0.11381
 Alpha virt. eigenvalues --    0.11505   0.15130   0.15835   0.16229   0.20059
 Alpha virt. eigenvalues --    0.20074   0.25005   0.32340   0.33969   0.34703

 Mulliken charges:
               1
     1  C   -0.103691
     2  C   -0.004378
     3  N   -0.203902
     4  H    0.106971
     5  H    0.105185
     6  H    0.099814
 Sum of Mulliken charges =   0.00000

 Dipole moment (field-independent basis, Debye):
    X=              4.1034    Y=              0.0111    Z=             -0.0015  Tot=              4.1034
 Quadrupole moment (field-independent basis, Debye-Ang):
   XX=            -21.3054   YY=            -17.6898   ZZ=            -17.6836
   XY=             -0.0136   XZ=              0.0324   YZ=              0.0387

 Normal termination of Gaussian 09 at Wed Aug 26 14:47:43 2020.
