 Gaussian 09, Revision D.01,
 Gaussian 09:  ES64L-G09RevD.01 24-Apr-2013

 --------------------
 #p B2PLYPD3/Def2QZVP
 --------------------

 ------------
 cyanomethane
 ------------
 Symbolic Z-matrix:
 Charge =  0 Multiplicity = 1

                         Standard orientation:
 ---------------------------------------------------------------------
 Center     Atomic      Atomic             Coordinates (Angstroms)
 Number     Number       Type             X           Y           Z
 ---------------------------------------------------------------------
      1          6           0        1.180739    0.009236   -0.005750
      2          6           0       -0.279163    0.003779   -0.001573
      3          7           0       -1.436430   -0.002064    0.001037
      4          1           0        1.545539   -0.636291   -0.805497
      5          1           0        1.538773   -0.423782    0.951498
      6          1           0        1.561242    0.996430   -0.109324
 ---------------------------------------------------------------------

 SCF Done:  E(RB2PLYPD3) =  -132.534835046     A.U. after   11 cycles
 E2(B2PLYPD3) =    -0.1806759964D+00 E(B2PLYPD3) =    -0.13271551104284D+03

 The electronic state is 1-A.
 Alpha  occ. eigenvalues --  -14.84257 -10.67123 -10.66337  -1.03990  -0.89241
 Alpha  occ. eigenvalues --   -0.59683  -0.54619  -0.53339  -0.44779  -0.39105
 Alpha  occ. eigenvalues --   -0.38890
 Alpha virt. eigenvalues --    0.03754   0.07777   0.08057   0.10181   0.11283
 Alpha virt. eigenvalues --    0.11542   0.15371   0.16088   0.16518   0.20072
 Alpha virt. eigenvalues --    0.20136   0.25280   0.32654   0.34132   0.35113

 Mulliken charges:
               1
     1  C   -0.084393
     2  C   -0.001231
     3  N   -0.207577
     4  H    0.097614
     5  H    0.094980
     6  H    0.100607
 Sum of Mulliken charges =   0.00000

 Dipole moment (field-independent basis, Debye):
    X=              4.1340    Y=             -0.0043    Z=              0.0020  Tot=              4.1340
 Quadrupole moment (field-independent basis, Debye-Ang):
   XX=            -21.0228   YY=            -17.7020   ZZ=            -17.8068
   XY=             -0.0155   XZ=              0.0096   YZ=              0.0099

 Normal termination of Gaussian 09 at Thu Aug 27 00:13:48 2020.
