 Gaussian 09, Revision D.01,
 Gaussian 09:  ES64L-G09RevD.01 24-Apr-2013

 --------------------
 #p B2PLYPD3/Def2QZVP
 --------------------

 ------------
 cyanomethane
 ------------
 Symbolic Z-matrix:
 Charge =  0 Multiplicity = 1

                         Standard orientation:
 ---------------------------------------------------------------------
 Center     Atomic      Atomic             Coordinates (Angstroms)
 Number     Number       Type             X           Y           Z
 ---------------------------------------------------------------------
      1          6           0       -1.172615   -0.012923   -0.013241
      2          6           0        0.283042   -0.018779    0.065209
      3          7           0        1.451518    0.016374   -0.033091
      4          1           0       -1.581833   -0.302329    0.874568
      5          1           0       -1.564426   -0.621206   -0.758134
      6          1           0       -1.676924    0.999129   -0.196608
 ---------------------------------------------------------------------

 SCF Done:  E(RB2PLYPD3) =  -132.522948013     A.U. after   12 cycles
 E2(B2PLYPD3) =    -0.1822267382D+00 E(B2PLYPD3) =    -0.13270517475136D+03

 The electronic state is 1-A.
 Alpha  occ. eigenvalues --  -14.85061 -10.67135 -10.66391  -1.03610  -0.89708
 Alpha  occ. eigenvalues --   -0.61552  -0.55078  -0.52069  -0.45185  -0.38994
 Alpha  occ. eigenvalues --   -0.38675
 Alpha virt. eigenvalues --    0.03462   0.06848   0.08011   0.10024   0.11159
 Alpha virt. eigenvalues --    0.11542   0.15577   0.16220   0.17555   0.19990
 Alpha virt. eigenvalues --    0.20378   0.25641   0.32505   0.34122   0.35661

 Mulliken charges:
               1
     1  C   -0.054421
     2  C    0.010549
     3  N   -0.212161
     4  H    0.086913
     5  H    0.090094
     6  H    0.079026
 Sum of Mulliken charges =   0.00000

 Dipole moment (field-independent basis, Debye):
    X=             -4.1629    Y=             -0.0479    Z=              0.0607  Tot=              4.1636
 Quadrupole moment (field-independent basis, Debye-Ang):
   XX=            -20.4598   YY=            -17.9842   ZZ=            -17.9099
   XY=             -0.1253   XZ=              0.1373   YZ=              0.0511

 Normal termination of Gaussian 09 at Wed Aug 26 19:00:41 2020.
