 Gaussian 09, Revision D.01,
 Gaussian 09:  ES64L-G09RevD.01 24-Apr-2013

 --------------------
 #p B2PLYPD3/Def2QZVP
 --------------------

 ------------
 cyanomethane
 ------------
 Symbolic Z-matrix:
 Charge =  0 Multiplicity = 1

                         Standard orientation:
 ---------------------------------------------------------------------
 Center     Atomic      Atomic             Coordinates (Angstroms)
 Number     Number       Type             X           Y           Z
 ---------------------------------------------------------------------
      1          6           0        1.172076   -0.017531   -0.014242
      2          6           0       -0.263158    0.029114    0.005643
      3          7           0       -1.430601   -0.011411    0.002729
      4          1           0        1.578776   -0.034610    0.985388
      5          1           0        1.514752    0.916804   -0.446663
      6          1           0        1.467168   -0.871817   -0.506231
 ---------------------------------------------------------------------

 SCF Done:  E(RB2PLYPD3) =  -132.530453121     A.U. after   11 cycles
 E2(B2PLYPD3) =    -0.1813860771D+00 E(B2PLYPD3) =    -0.13271183919793D+03

 The electronic state is 1-A.
 Alpha  occ. eigenvalues --  -14.84442 -10.66449 -10.66205  -1.03597  -0.90319
 Alpha  occ. eigenvalues --   -0.60145  -0.56193  -0.53528  -0.44766  -0.38777
 Alpha  occ. eigenvalues --   -0.38473
 Alpha virt. eigenvalues --    0.03869   0.07665   0.08120   0.10111   0.11177
 Alpha virt. eigenvalues --    0.11540   0.15423   0.15931   0.16420   0.20110
 Alpha virt. eigenvalues --    0.20252   0.25768   0.32871   0.34202   0.35584

 Mulliken charges:
               1
     1  C   -0.077744
     2  C    0.000506
     3  N   -0.214946
     4  H    0.090608
     5  H    0.097326
     6  H    0.104250
 Sum of Mulliken charges =   0.00000

 Dipole moment (field-independent basis, Debye):
    X=              4.1434    Y=              0.0180    Z=              0.0217  Tot=              4.1435
 Quadrupole moment (field-independent basis, Debye-Ang):
   XX=            -21.0534   YY=            -17.5448   ZZ=            -17.8861
   XY=             -0.0138   XZ=              0.1550   YZ=              0.0522

 Normal termination of Gaussian 09 at Wed Aug 26 15:48:20 2020.
