 Gaussian 09, Revision D.01,
 Gaussian 09:  ES64L-G09RevD.01 24-Apr-2013

 --------------------
 #p B2PLYPD3/Def2QZVP
 --------------------

 ------------
 cyanomethane
 ------------
 Symbolic Z-matrix:
 Charge =  0 Multiplicity = 1

                         Standard orientation:
 ---------------------------------------------------------------------
 Center     Atomic      Atomic             Coordinates (Angstroms)
 Number     Number       Type             X           Y           Z
 ---------------------------------------------------------------------
      1          6           0        1.179644   -0.009497    0.002126
      2          6           0       -0.284676   -0.035719   -0.005220
      3          7           0       -1.440470    0.025828    0.005447
      4          1           0        1.639411    1.006435   -0.266203
      5          1           0        1.483604   -0.687252   -0.702922
      6          1           0        1.590465   -0.228685    0.949561
 ---------------------------------------------------------------------

 SCF Done:  E(RB2PLYPD3) =  -132.528167976     A.U. after   12 cycles
 E2(B2PLYPD3) =    -0.1807176679D+00 E(B2PLYPD3) =    -0.13270888564418D+03

 The electronic state is 1-A.
 Alpha  occ. eigenvalues --  -14.84410 -10.66718 -10.66482  -1.04071  -0.89498
 Alpha  occ. eigenvalues --   -0.60272  -0.55516  -0.52308  -0.44907  -0.39261
 Alpha  occ. eigenvalues --   -0.38946
 Alpha virt. eigenvalues --    0.03599   0.07308   0.08647   0.10144   0.11124
 Alpha virt. eigenvalues --    0.11620   0.15417   0.16092   0.17087   0.19993
 Alpha virt. eigenvalues --    0.20215   0.25298   0.32515   0.34068   0.35634

 Mulliken charges:
               1
     1  C   -0.073195
     2  C    0.001122
     3  N   -0.206653
     4  H    0.086343
     5  H    0.098777
     6  H    0.093606
 Sum of Mulliken charges =   0.00000

 Dipole moment (field-independent basis, Debye):
    X=              4.1392    Y=             -0.0540    Z=             -0.0017  Tot=              4.1396
 Quadrupole moment (field-independent basis, Debye-Ang):
   XX=            -20.7792   YY=            -17.8322   ZZ=            -17.7892
   XY=              0.2159   XZ=              0.0938   YZ=              0.0791

 Normal termination of Gaussian 09 at Wed Aug 26 10:57:45 2020.
