 Gaussian 09, Revision D.01,
 Gaussian 09:  ES64L-G09RevD.01 24-Apr-2013

 --------------------
 #p B2PLYPD3/Def2QZVP
 --------------------

 ------------
 cyanomethane
 ------------
 Symbolic Z-matrix:
 Charge =  0 Multiplicity = 1

                         Standard orientation:
 ---------------------------------------------------------------------
 Center     Atomic      Atomic             Coordinates (Angstroms)
 Number     Number       Type             X           Y           Z
 ---------------------------------------------------------------------
      1          6           0        1.167321    0.001362   -0.006950
      2          6           0       -0.263659   -0.000330   -0.036829
      3          7           0       -1.434214    0.001597    0.012719
      4          1           0        1.586657    1.021231   -0.230322
      5          1           0        1.591902   -0.783743   -0.639092
      6          1           0        1.438965   -0.254858    1.043054
 ---------------------------------------------------------------------

 SCF Done:  E(RB2PLYPD3) =  -132.530606435     A.U. after   12 cycles
 E2(B2PLYPD3) =    -0.1822986171D+00 E(B2PLYPD3) =    -0.13271290505184D+03

 The electronic state is 1-A.
 Alpha  occ. eigenvalues --  -14.84585 -10.67592 -10.66632  -1.03486  -0.89359
 Alpha  occ. eigenvalues --   -0.59843  -0.54245  -0.53197  -0.44833  -0.38598
 Alpha  occ. eigenvalues --   -0.38263
 Alpha virt. eigenvalues --    0.03608   0.07116   0.07380   0.10108   0.11240
 Alpha virt. eigenvalues --    0.11694   0.15439   0.15620   0.16737   0.20132
 Alpha virt. eigenvalues --    0.20246   0.25802   0.32459   0.33608   0.34785

 Mulliken charges:
               1
     1  C   -0.092634
     2  C    0.003797
     3  N   -0.214685
     4  H    0.101834
     5  H    0.101724
     6  H    0.099965
 Sum of Mulliken charges =   0.00000

 Dipole moment (field-independent basis, Debye):
    X=              4.1380    Y=             -0.0205    Z=              0.0238  Tot=              4.1382
 Quadrupole moment (field-independent basis, Debye-Ang):
   XX=            -21.1393   YY=            -17.6562   ZZ=            -17.9235
   XY=             -0.0094   XZ=              0.0364   YZ=              0.0228

 Normal termination of Gaussian 09 at Wed Aug 26 11:29:02 2020.
