 Gaussian 09, Revision D.01,
 Gaussian 09:  ES64L-G09RevD.01 24-Apr-2013

 --------------------
 #p B2PLYPD3/Def2QZVP
 --------------------

 ------------
 cyanomethane
 ------------
 Symbolic Z-matrix:
 Charge =  0 Multiplicity = 1

                         Standard orientation:
 ---------------------------------------------------------------------
 Center     Atomic      Atomic             Coordinates (Angstroms)
 Number     Number       Type             X           Y           Z
 ---------------------------------------------------------------------
      1          6           0        1.175743   -0.008947   -0.001944
      2          6           0       -0.281734    0.017079    0.040688
      3          7           0       -1.422523   -0.005032   -0.023894
      4          1           0        1.583715    0.913391   -0.502461
      5          1           0        1.516353   -0.885958   -0.558322
      6          1           0        1.493544   -0.041003    0.995575
 ---------------------------------------------------------------------

 SCF Done:  E(RB2PLYPD3) =  -132.533470798     A.U. after   11 cycles
 E2(B2PLYPD3) =    -0.1795018393D+00 E(B2PLYPD3) =    -0.13271297263741D+03

 The electronic state is 1-A.
 Alpha  occ. eigenvalues --  -14.83792 -10.67048 -10.65798  -1.04554  -0.89282
 Alpha  occ. eigenvalues --   -0.59180  -0.54936  -0.53269  -0.44682  -0.39366
 Alpha  occ. eigenvalues --   -0.39234
 Alpha virt. eigenvalues --    0.03691   0.07711   0.08723   0.10171   0.11431
 Alpha virt. eigenvalues --    0.11709   0.15437   0.15773   0.16756   0.19989
 Alpha virt. eigenvalues --    0.20090   0.25460   0.32837   0.34330   0.34896

 Mulliken charges:
               1
     1  C   -0.092140
     2  C   -0.004429
     3  N   -0.200549
     4  H    0.095397
     5  H    0.100521
     6  H    0.101201
 Sum of Mulliken charges =   0.00000

 Dipole moment (field-independent basis, Debye):
    X=              4.0883    Y=              0.0005    Z=              0.0461  Tot=              4.0885
 Quadrupole moment (field-independent basis, Debye-Ang):
   XX=            -21.1087   YY=            -17.6787   ZZ=            -17.6628
   XY=              0.0096   XZ=             -0.1599   YZ=              0.0207

 Normal termination of Gaussian 09 at Wed Aug 26 15:59:54 2020.
