 Gaussian 09, Revision D.01,
 Gaussian 09:  ES64L-G09RevD.01 24-Apr-2013

 --------------------
 #p B2PLYPD3/Def2QZVP
 --------------------

 ------------
 cyanomethane
 ------------
 Symbolic Z-matrix:
 Charge =  0 Multiplicity = 1

                         Standard orientation:
 ---------------------------------------------------------------------
 Center     Atomic      Atomic             Coordinates (Angstroms)
 Number     Number       Type             X           Y           Z
 ---------------------------------------------------------------------
      1          6           0       -1.195901    0.000944   -0.006007
      2          6           0        0.285150   -0.027894    0.021793
      3          7           0        1.438049    0.011062   -0.010633
      4          1           0       -1.486726    1.043690   -0.122742
      5          1           0       -1.555387   -0.374270    0.913099
      6          1           0       -1.559721   -0.585157   -0.810647
 ---------------------------------------------------------------------

 SCF Done:  E(RB2PLYPD3) =  -132.534331695     A.U. after   11 cycles
 E2(B2PLYPD3) =    -0.1801568908D+00 E(B2PLYPD3) =    -0.13271448858595D+03

 The electronic state is 1-A.
 Alpha  occ. eigenvalues --  -14.84122 -10.66750 -10.66234  -1.04040  -0.89367
 Alpha  occ. eigenvalues --   -0.59159  -0.54745  -0.54267  -0.44670  -0.39229
 Alpha  occ. eigenvalues --   -0.39121
 Alpha virt. eigenvalues --    0.03802   0.08244   0.08527   0.10240   0.11198
 Alpha virt. eigenvalues --    0.11351   0.15193   0.15981   0.16397   0.20061
 Alpha virt. eigenvalues --    0.20098   0.24941   0.32646   0.34597   0.35242

 Mulliken charges:
               1
     1  C   -0.085028
     2  C   -0.004416
     3  N   -0.206584
     4  H    0.099487
     5  H    0.097501
     6  H    0.099041
 Sum of Mulliken charges =   0.00000

 Dipole moment (field-independent basis, Debye):
    X=             -4.1368    Y=             -0.0158    Z=              0.0196  Tot=              4.1369
 Quadrupole moment (field-independent basis, Debye-Ang):
   XX=            -21.0585   YY=            -17.6806   ZZ=            -17.7342
   XY=              0.0035   XZ=              0.0426   YZ=              0.0123

 Normal termination of Gaussian 09 at Wed Aug 26 15:47:13 2020.
