 Gaussian 09, Revision D.01,
 Gaussian 09:  ES64L-G09RevD.01 24-Apr-2013

 --------------------
 #p B2PLYPD3/Def2QZVP
 --------------------

 ------------
 cyanomethane
 ------------
 Symbolic Z-matrix:
 Charge =  0 Multiplicity = 1

                         Standard orientation:
 ---------------------------------------------------------------------
 Center     Atomic      Atomic             Coordinates (Angstroms)
 Number     Number       Type             X           Y           Z
 ---------------------------------------------------------------------
      1          6           0        1.178402   -0.000050    0.003263
      2          6           0       -0.280104   -0.000476   -0.016889
      3          7           0       -1.439716   -0.000059    0.004540
      4          1           0        1.569897    1.008973   -0.179419
      5          1           0        1.608198   -0.680554   -0.718301
      6          1           0        1.510127   -0.324849    0.947697
 ---------------------------------------------------------------------

 SCF Done:  E(RB2PLYPD3) =  -132.534205295     A.U. after   12 cycles
 E2(B2PLYPD3) =    -0.1807940016D+00 E(B2PLYPD3) =    -0.13271499929645D+03

 The electronic state is 1-A.
 Alpha  occ. eigenvalues --  -14.84402 -10.66758 -10.66485  -1.03942  -0.89476
 Alpha  occ. eigenvalues --   -0.60244  -0.54204  -0.53789  -0.44865  -0.39019
 Alpha  occ. eigenvalues --   -0.38993
 Alpha virt. eigenvalues --    0.03804   0.07733   0.08048   0.10190   0.11338
 Alpha virt. eigenvalues --    0.11439   0.15428   0.16245   0.16699   0.20092
 Alpha virt. eigenvalues --    0.20132   0.25334   0.32651   0.34774   0.34987

 Mulliken charges:
               1
     1  C   -0.073610
     2  C    0.000618
     3  N   -0.208570
     4  H    0.094260
     5  H    0.092069
     6  H    0.095233
 Sum of Mulliken charges =   0.00000

 Dipole moment (field-independent basis, Debye):
    X=              4.1490    Y=             -0.0161    Z=              0.0148  Tot=              4.1490
 Quadrupole moment (field-independent basis, Debye-Ang):
   XX=            -20.8534   YY=            -17.7147   ZZ=            -17.8692
   XY=             -0.0448   XZ=              0.0053   YZ=             -0.0140

 Normal termination of Gaussian 09 at Thu Aug 27 00:04:13 2020.
