 Gaussian 09, Revision D.01,
 Gaussian 09:  ES64L-G09RevD.01 24-Apr-2013

 --------------------
 #p B2PLYPD3/Def2QZVP
 --------------------

 ------------
 cyanomethane
 ------------
 Symbolic Z-matrix:
 Charge =  0 Multiplicity = 1

                         Standard orientation:
 ---------------------------------------------------------------------
 Center     Atomic      Atomic             Coordinates (Angstroms)
 Number     Number       Type             X           Y           Z
 ---------------------------------------------------------------------
      1          6           0       -1.184317   -0.016747    0.021464
      2          6           0        0.286142    0.051763    0.014462
      3          7           0        1.417130   -0.020037   -0.011251
      4          1           0       -1.477978   -0.233259    0.996944
      5          1           0       -1.472620   -0.888140   -0.732500
      6          1           0       -1.580264    1.051565   -0.401241
 ---------------------------------------------------------------------

 SCF Done:  E(RB2PLYPD3) =  -132.518449218     A.U. after   12 cycles
 E2(B2PLYPD3) =    -0.1796468720D+00 E(B2PLYPD3) =    -0.13269809608959D+03

 The electronic state is 1-A.
 Alpha  occ. eigenvalues --  -14.83426 -10.68922 -10.65483  -1.04836  -0.88054
 Alpha  occ. eigenvalues --   -0.58042  -0.54110  -0.51726  -0.44502  -0.39567
 Alpha  occ. eigenvalues --   -0.39089
 Alpha virt. eigenvalues --    0.03199   0.06963   0.08555   0.10162   0.11597
 Alpha virt. eigenvalues --    0.11983   0.15076   0.15778   0.16039   0.19955
 Alpha virt. eigenvalues --    0.20022   0.25166   0.31066   0.32406   0.34535

 Mulliken charges:
               1
     1  C   -0.128978
     2  C   -0.002528
     3  N   -0.194824
     4  H    0.116649
     5  H    0.106994
     6  H    0.102688
 Sum of Mulliken charges =   0.00000

 Dipole moment (field-independent basis, Debye):
    X=             -4.0176    Y=              0.0062    Z=              0.0352  Tot=              4.0177
 Quadrupole moment (field-independent basis, Debye-Ang):
   XX=            -21.6142   YY=            -17.5688   ZZ=            -17.6558
   XY=              0.0829   XZ=              0.0474   YZ=             -0.0447

 Normal termination of Gaussian 09 at Wed Aug 26 16:24:53 2020.
