 Gaussian 09, Revision D.01,
 Gaussian 09:  ES64L-G09RevD.01 24-Apr-2013

 --------------------
 #p B2PLYPD3/Def2QZVP
 --------------------

 ------------
 cyanomethane
 ------------
 Symbolic Z-matrix:
 Charge =  0 Multiplicity = 1

                         Standard orientation:
 ---------------------------------------------------------------------
 Center     Atomic      Atomic             Coordinates (Angstroms)
 Number     Number       Type             X           Y           Z
 ---------------------------------------------------------------------
      1          6           0        1.176088   -0.005786    0.003182
      2          6           0       -0.269558    0.027013    0.002351
      3          7           0       -1.430459   -0.013957   -0.001150
      4          1           0        1.530203   -0.033229    1.005813
      5          1           0        1.516345    0.882663   -0.495686
      6          1           0        1.527483   -0.879100   -0.535278
 ---------------------------------------------------------------------

 SCF Done:  E(RB2PLYPD3) =  -132.534425429     A.U. after   11 cycles
 E2(B2PLYPD3) =    -0.1808701283D+00 E(B2PLYPD3) =    -0.13271529555736D+03

 The electronic state is 1-A.
 Alpha  occ. eigenvalues --  -14.84283 -10.66582 -10.66300  -1.03817  -0.89865
 Alpha  occ. eigenvalues --   -0.59718  -0.54849  -0.54316  -0.44738  -0.38858
 Alpha  occ. eigenvalues --   -0.38784
 Alpha virt. eigenvalues --    0.03820   0.07839   0.08178   0.10139   0.11320
 Alpha virt. eigenvalues --    0.11437   0.15479   0.15872   0.16394   0.20130
 Alpha virt. eigenvalues --    0.20161   0.25567   0.32908   0.34608   0.34950

 Mulliken charges:
               1
     1  C   -0.083582
     2  C   -0.001424
     3  N   -0.211072
     4  H    0.099463
     5  H    0.098118
     6  H    0.098498
 Sum of Mulliken charges =   0.00000

 Dipole moment (field-independent basis, Debye):
    X=              4.1299    Y=              0.0195    Z=              0.0002  Tot=              4.1299
 Quadrupole moment (field-independent basis, Debye-Ang):
   XX=            -21.0926   YY=            -17.7126   ZZ=            -17.6976
   XY=             -0.0816   XZ=             -0.0026   YZ=             -0.0080

 Normal termination of Gaussian 09 at Thu Aug 27 00:12:39 2020.
