 Gaussian 09, Revision D.01,
 Gaussian 09:  ES64L-G09RevD.01 24-Apr-2013

 --------------------
 #p B2PLYPD3/Def2QZVP
 --------------------

 ------------
 cyanomethane
 ------------
 Symbolic Z-matrix:
 Charge =  0 Multiplicity = 1

                         Standard orientation:
 ---------------------------------------------------------------------
 Center     Atomic      Atomic             Coordinates (Angstroms)
 Number     Number       Type             X           Y           Z
 ---------------------------------------------------------------------
      1          6           0        1.169325    0.001291    0.009042
      2          6           0       -0.275907    0.012056   -0.003842
      3          7           0       -1.427610   -0.002365    0.008261
      4          1           0        1.615688   -0.421594    0.889535
      5          1           0        1.586179    1.005095   -0.156036
      6          1           0        1.430896   -0.647029   -0.822526
 ---------------------------------------------------------------------

 SCF Done:  E(RB2PLYPD3) =  -132.534009522     A.U. after   12 cycles
 E2(B2PLYPD3) =    -0.1802640593D+00 E(B2PLYPD3) =    -0.13271427358170D+03

 The electronic state is 1-A.
 Alpha  occ. eigenvalues --  -14.84075 -10.66902 -10.66132  -1.04251  -0.89539
 Alpha  occ. eigenvalues --   -0.60152  -0.54131  -0.53738  -0.44779  -0.39147
 Alpha  occ. eigenvalues --   -0.38932
 Alpha virt. eigenvalues --    0.03791   0.07689   0.08165   0.10170   0.11485
 Alpha virt. eigenvalues --    0.11689   0.15419   0.15775   0.17133   0.20091
 Alpha virt. eigenvalues --    0.20149   0.25582   0.32858   0.34233   0.35046

 Mulliken charges:
               1
     1  C   -0.084342
     2  C    0.000349
     3  N   -0.205753
     4  H    0.096025
     5  H    0.096637
     6  H    0.097084
 Sum of Mulliken charges =   0.00000

 Dipole moment (field-independent basis, Debye):
    X=              4.1240    Y=             -0.0218    Z=             -0.0247  Tot=              4.1242
 Quadrupole moment (field-independent basis, Debye-Ang):
   XX=            -20.9667   YY=            -17.6667   ZZ=            -17.8137
   XY=              0.0008   XZ=              0.1422   YZ=             -0.0040

 Normal termination of Gaussian 09 at Wed Aug 26 11:07:31 2020.
