 Gaussian 09, Revision D.01,
 Gaussian 09:  ES64L-G09RevD.01 24-Apr-2013

 --------------------
 #p B2PLYPD3/Def2QZVP
 --------------------

 ------------
 cyanomethane
 ------------
 Symbolic Z-matrix:
 Charge =  0 Multiplicity = 1

                         Standard orientation:
 ---------------------------------------------------------------------
 Center     Atomic      Atomic             Coordinates (Angstroms)
 Number     Number       Type             X           Y           Z
 ---------------------------------------------------------------------
      1          6           0        1.192037    0.013187    0.015463
      2          6           0       -0.289187   -0.035008    0.013858
      3          7           0       -1.429879    0.017111   -0.010481
      4          1           0        1.534569    1.013161   -0.234405
      5          1           0        1.547864   -0.676972   -0.804965
      6          1           0        1.509623   -0.325044    0.936814
 ---------------------------------------------------------------------

 SCF Done:  E(RB2PLYPD3) =  -132.532114355     A.U. after   12 cycles
 E2(B2PLYPD3) =    -0.1793702219D+00 E(B2PLYPD3) =    -0.13271148457721D+03

 The electronic state is 1-A.
 Alpha  occ. eigenvalues --  -14.83767 -10.67137 -10.65849  -1.04507  -0.89054
 Alpha  occ. eigenvalues --   -0.58772  -0.55541  -0.52911  -0.44614  -0.39581
 Alpha  occ. eigenvalues --   -0.39241
 Alpha virt. eigenvalues --    0.03717   0.07952   0.08913   0.10216   0.11213
 Alpha virt. eigenvalues --    0.11678   0.15227   0.15849   0.16565   0.19971
 Alpha virt. eigenvalues --    0.20084   0.24978   0.32515   0.33933   0.35458

 Mulliken charges:
               1
     1  C   -0.093476
     2  C   -0.006640
     3  N   -0.200062
     4  H    0.101756
     5  H    0.093537
     6  H    0.104884
 Sum of Mulliken charges =   0.00000

 Dipole moment (field-independent basis, Debye):
    X=              4.1030    Y=             -0.0250    Z=              0.0109  Tot=              4.1030
 Quadrupole moment (field-independent basis, Debye-Ang):
   XX=            -21.1454   YY=            -17.6919   ZZ=            -17.6454
   XY=              0.0955   XZ=             -0.1013   YZ=             -0.0793

 Normal termination of Gaussian 09 at Wed Aug 26 14:31:14 2020.
