 Gaussian 09, Revision D.01,
 Gaussian 09:  ES64L-G09RevD.01 24-Apr-2013

 --------------------
 #p B2PLYPD3/Def2QZVP
 --------------------

 ------------
 cyanomethane
 ------------
 Symbolic Z-matrix:
 Charge =  0 Multiplicity = 1

                         Standard orientation:
 ---------------------------------------------------------------------
 Center     Atomic      Atomic             Coordinates (Angstroms)
 Number     Number       Type             X           Y           Z
 ---------------------------------------------------------------------
      1          6           0        1.187806   -0.000084    0.003825
      2          6           0       -0.281604   -0.034277    0.021666
      3          7           0       -1.432771    0.022656   -0.011574
      4          1           0        1.518051   -0.218369    0.952737
      5          1           0        1.590915    0.993007   -0.308506
      6          1           0        1.483222   -0.727058   -0.716160
 ---------------------------------------------------------------------

 SCF Done:  E(RB2PLYPD3) =  -132.531449243     A.U. after   12 cycles
 E2(B2PLYPD3) =    -0.1801597403D+00 E(B2PLYPD3) =    -0.13271160898359D+03

 The electronic state is 1-A.
 Alpha  occ. eigenvalues --  -14.84099 -10.66642 -10.66156  -1.04122  -0.89589
 Alpha  occ. eigenvalues --   -0.59301  -0.55622  -0.53404  -0.44699  -0.39248
 Alpha  occ. eigenvalues --   -0.39041
 Alpha virt. eigenvalues --    0.03717   0.07798   0.08889   0.10187   0.11166
 Alpha virt. eigenvalues --    0.11495   0.15357   0.15713   0.16700   0.20054
 Alpha virt. eigenvalues --    0.20128   0.25201   0.32770   0.34324   0.35361

 Mulliken charges:
               1
     1  C   -0.085642
     2  C   -0.003788
     3  N   -0.206072
     4  H    0.101103
     5  H    0.094533
     6  H    0.099865
 Sum of Mulliken charges =   0.00000

 Dipole moment (field-independent basis, Debye):
    X=              4.1203    Y=             -0.0412    Z=              0.0172  Tot=              4.1205
 Quadrupole moment (field-independent basis, Debye-Ang):
   XX=            -21.0557   YY=            -17.7318   ZZ=            -17.6634
   XY=              0.1899   XZ=             -0.0570   YZ=              0.0222

 Normal termination of Gaussian 09 at Wed Aug 26 15:41:18 2020.
