 Gaussian 09, Revision D.01,
 Gaussian 09:  ES64L-G09RevD.01 24-Apr-2013

 --------------------
 #p B2PLYPD3/Def2QZVP
 --------------------

 ------------
 cyanomethane
 ------------
 Symbolic Z-matrix:
 Charge =  0 Multiplicity = 1

                         Standard orientation:
 ---------------------------------------------------------------------
 Center     Atomic      Atomic             Coordinates (Angstroms)
 Number     Number       Type             X           Y           Z
 ---------------------------------------------------------------------
      1          6           0        1.166482    0.014167    0.013086
      2          6           0       -0.278382   -0.032772   -0.013231
      3          7           0       -1.433691    0.020863    0.006366
      4          1           0        1.631721    1.013012   -0.297988
      5          1           0        1.511358   -0.774072   -0.732414
      6          1           0        1.564158   -0.273353    0.986709
 ---------------------------------------------------------------------

 SCF Done:  E(RB2PLYPD3) =  -132.529872726     A.U. after   12 cycles
 E2(B2PLYPD3) =    -0.1812821257D+00 E(B2PLYPD3) =    -0.13271115485174D+03

 The electronic state is 1-A.
 Alpha  occ. eigenvalues --  -14.84337 -10.68036 -10.66383  -1.04119  -0.88672
 Alpha  occ. eigenvalues --   -0.59863  -0.53411  -0.52570  -0.44900  -0.39019
 Alpha  occ. eigenvalues --   -0.38741
 Alpha virt. eigenvalues --    0.03503   0.06968   0.07636   0.10055   0.11534
 Alpha virt. eigenvalues --    0.11682   0.15444   0.15655   0.17300   0.20078
 Alpha virt. eigenvalues --    0.20170   0.25690   0.32474   0.33435   0.34575

 Mulliken charges:
               1
     1  C   -0.092637
     2  C    0.004070
     3  N   -0.205832
     4  H    0.099184
     5  H    0.094294
     6  H    0.100921
 Sum of Mulliken charges =   0.00000

 Dipole moment (field-independent basis, Debye):
    X=              4.1090    Y=             -0.0509    Z=             -0.0038  Tot=              4.1094
 Quadrupole moment (field-independent basis, Debye-Ang):
   XX=            -21.0098   YY=            -17.7816   ZZ=            -17.8583
   XY=              0.1533   XZ=              0.0597   YZ=             -0.0374

 Normal termination of Gaussian 09 at Wed Aug 26 16:00:32 2020.
