 Gaussian 09, Revision D.01,
 Gaussian 09:  ES64L-G09RevD.01 24-Apr-2013

 --------------------
 #p B2PLYPD3/Def2QZVP
 --------------------

 ------------
 cyanomethane
 ------------
 Symbolic Z-matrix:
 Charge =  0 Multiplicity = 1

                         Standard orientation:
 ---------------------------------------------------------------------
 Center     Atomic      Atomic             Coordinates (Angstroms)
 Number     Number       Type             X           Y           Z
 ---------------------------------------------------------------------
      1          6           0       -1.179097    0.004751   -0.003703
      2          6           0        0.276728    0.017058    0.002953
      3          7           0        1.427927   -0.011636   -0.004083
      4          1           0       -1.575331   -0.805991   -0.643370
      5          1           0       -1.512522    0.952738   -0.336323
      6          1           0       -1.493425   -0.196147    1.012775
 ---------------------------------------------------------------------

 SCF Done:  E(RB2PLYPD3) =  -132.534682791     A.U. after   12 cycles
 E2(B2PLYPD3) =    -0.1801136725D+00 E(B2PLYPD3) =    -0.13271479646341D+03

 The electronic state is 1-A.
 Alpha  occ. eigenvalues --  -14.84004 -10.66901 -10.66043  -1.04183  -0.89501
 Alpha  occ. eigenvalues --   -0.59318  -0.55084  -0.53596  -0.44682  -0.39165
 Alpha  occ. eigenvalues --   -0.38992
 Alpha virt. eigenvalues --    0.03778   0.07833   0.08475   0.10185   0.11340
 Alpha virt. eigenvalues --    0.11600   0.15399   0.15843   0.16514   0.20059
 Alpha virt. eigenvalues --    0.20137   0.25361   0.32827   0.34309   0.35050

 Mulliken charges:
               1
     1  C   -0.089287
     2  C   -0.003609
     3  N   -0.205759
     4  H    0.097237
     5  H    0.102439
     6  H    0.098979
 Sum of Mulliken charges =   0.00000

 Dipole moment (field-independent basis, Debye):
    X=             -4.1145    Y=              0.0132    Z=              0.0183  Tot=              4.1146
 Quadrupole moment (field-independent basis, Debye-Ang):
   XX=            -21.1243   YY=            -17.6354   ZZ=            -17.7375
   XY=              0.1136   XZ=              0.0451   YZ=             -0.0388

 Normal termination of Gaussian 09 at Wed Aug 26 09:32:41 2020.
