 Gaussian 09, Revision D.01,
 Gaussian 09:  ES64L-G09RevD.01 24-Apr-2013

 --------------------
 #p B2PLYPD3/Def2QZVP
 --------------------

 ------------
 cyanomethane
 ------------
 Symbolic Z-matrix:
 Charge =  0 Multiplicity = 1

                         Standard orientation:
 ---------------------------------------------------------------------
 Center     Atomic      Atomic             Coordinates (Angstroms)
 Number     Number       Type             X           Y           Z
 ---------------------------------------------------------------------
      1          6           0        1.157165    0.002353   -0.018156
      2          6           0       -0.277616    0.011168   -0.009503
      3          7           0       -1.433857   -0.008031    0.010708
      4          1           0        1.642127   -0.248418    0.965868
      5          1           0        1.547451    0.940943   -0.232896
      6          1           0        1.570128   -0.717439   -0.641972
 ---------------------------------------------------------------------

 SCF Done:  E(RB2PLYPD3) =  -132.528944214     A.U. after   11 cycles
 E2(B2PLYPD3) =    -0.1805927522D+00 E(B2PLYPD3) =    -0.13270953696586D+03

 The electronic state is 1-A.
 Alpha  occ. eigenvalues --  -14.84421 -10.66431 -10.66132  -1.04218  -0.90058
 Alpha  occ. eigenvalues --   -0.61665  -0.55489  -0.52241  -0.45023  -0.39273
 Alpha  occ. eigenvalues --   -0.38823
 Alpha virt. eigenvalues --    0.03761   0.07317   0.08242   0.10117   0.11277
 Alpha virt. eigenvalues --    0.11849   0.15676   0.16776   0.17018   0.20016
 Alpha virt. eigenvalues --    0.20226   0.25774   0.32890   0.34330   0.35834

 Mulliken charges:
               1
     1  C   -0.054108
     2  C    0.004896
     3  N   -0.206835
     4  H    0.076554
     5  H    0.089933
     6  H    0.089559
 Sum of Mulliken charges =   0.00000

 Dipole moment (field-independent basis, Debye):
    X=              4.1534    Y=              0.0085    Z=             -0.0112  Tot=              4.1534
 Quadrupole moment (field-independent basis, Debye-Ang):
   XX=            -20.5409   YY=            -17.7080   ZZ=            -17.9798
   XY=             -0.0865   XZ=              0.1428   YZ=              0.0479

 Normal termination of Gaussian 09 at Wed Aug 26 15:13:46 2020.
