 Gaussian 09, Revision D.01,
 Gaussian 09:  ES64L-G09RevD.01 24-Apr-2013

 --------------------
 #p B2PLYPD3/Def2QZVP
 --------------------

 ------------
 cyanomethane
 ------------
 Symbolic Z-matrix:
 Charge =  0 Multiplicity = 1

                         Standard orientation:
 ---------------------------------------------------------------------
 Center     Atomic      Atomic             Coordinates (Angstroms)
 Number     Number       Type             X           Y           Z
 ---------------------------------------------------------------------
      1          6           0       -1.167006   -0.003149   -0.014346
      2          6           0        0.283039    0.018858    0.000286
      3          7           0        1.427810   -0.007070    0.003416
      4          1           0       -1.585338   -0.160390    1.008104
      5          1           0       -1.519213   -0.808557   -0.598684
      6          1           0       -1.586322    0.924186   -0.348972
 ---------------------------------------------------------------------

 SCF Done:  E(RB2PLYPD3) =  -132.534630014     A.U. after   11 cycles
 E2(B2PLYPD3) =    -0.1795978731D+00 E(B2PLYPD3) =    -0.13271422788724D+03

 The electronic state is 1-A.
 Alpha  occ. eigenvalues --  -14.83981 -10.66711 -10.66007  -1.04558  -0.89459
 Alpha  occ. eigenvalues --   -0.60353  -0.54852  -0.52877  -0.44835  -0.39454
 Alpha  occ. eigenvalues --   -0.39169
 Alpha virt. eigenvalues --    0.03798   0.07804   0.08310   0.10189   0.11442
 Alpha virt. eigenvalues --    0.11779   0.15539   0.16504   0.16745   0.19993
 Alpha virt. eigenvalues --    0.20099   0.25519   0.32907   0.34290   0.35446

 Mulliken charges:
               1
     1  C   -0.073330
     2  C   -0.001299
     3  N   -0.201144
     4  H    0.086353
     5  H    0.096224
     6  H    0.093196
 Sum of Mulliken charges =   0.00000

 Dipole moment (field-independent basis, Debye):
    X=             -4.1200    Y=              0.0045    Z=              0.0010  Tot=              4.1200
 Quadrupole moment (field-independent basis, Debye-Ang):
   XX=            -20.8157   YY=            -17.6694   ZZ=            -17.8354
   XY=              0.0117   XZ=             -0.0757   YZ=              0.0334

 Normal termination of Gaussian 09 at Wed Aug 26 23:47:00 2020.
