 Gaussian 09, Revision D.01,
 Gaussian 09:  ES64L-G09RevD.01 24-Apr-2013

 --------------------
 #p B2PLYPD3/Def2QZVP
 --------------------

 ------------
 cyanomethane
 ------------
 Symbolic Z-matrix:
 Charge =  0 Multiplicity = 1

                         Standard orientation:
 ---------------------------------------------------------------------
 Center     Atomic      Atomic             Coordinates (Angstroms)
 Number     Number       Type             X           Y           Z
 ---------------------------------------------------------------------
      1          6           0        1.199804    0.017513    0.009021
      2          6           0       -0.292516   -0.042217    0.003815
      3          7           0       -1.434710    0.019074   -0.005455
      4          1           0        1.516851    1.037253   -0.118464
      5          1           0        1.573238   -0.605200   -0.835000
      6          1           0        1.509151   -0.417347    0.914629
 ---------------------------------------------------------------------

 SCF Done:  E(RB2PLYPD3) =  -132.533479205     A.U. after   12 cycles
 E2(B2PLYPD3) =    -0.1794881228D+00 E(B2PLYPD3) =    -0.13271296732759D+03

 The electronic state is 1-A.
 Alpha  occ. eigenvalues --  -14.83825 -10.67203 -10.65937  -1.04410  -0.88892
 Alpha  occ. eigenvalues --   -0.58519  -0.55154  -0.53362  -0.44595  -0.39523
 Alpha  occ. eigenvalues --   -0.39324
 Alpha virt. eigenvalues --    0.03733   0.08151   0.08823   0.10228   0.11232
 Alpha virt. eigenvalues --    0.11492   0.15105   0.15784   0.16566   0.19990
 Alpha virt. eigenvalues --    0.20061   0.24810   0.32468   0.34298   0.35273

 Mulliken charges:
               1
     1  C   -0.093464
     2  C   -0.007279
     3  N   -0.200874
     4  H    0.104515
     5  H    0.094638
     6  H    0.102464
 Sum of Mulliken charges =   0.00000

 Dipole moment (field-independent basis, Debye):
    X=              4.1148    Y=             -0.0358    Z=              0.0116  Tot=              4.1149
 Quadrupole moment (field-independent basis, Debye-Ang):
   XX=            -21.1431   YY=            -17.6173   ZZ=            -17.7406
   XY=              0.0595   XZ=             -0.0690   YZ=             -0.0579

 Normal termination of Gaussian 09 at Wed Aug 26 15:52:53 2020.
