 Gaussian 09, Revision D.01,
 Gaussian 09:  ES64L-G09RevD.01 24-Apr-2013

 --------------------
 #p B2PLYPD3/Def2QZVP
 --------------------

 ------------
 cyanomethane
 ------------
 Symbolic Z-matrix:
 Charge =  0 Multiplicity = 1

                         Standard orientation:
 ---------------------------------------------------------------------
 Center     Atomic      Atomic             Coordinates (Angstroms)
 Number     Number       Type             X           Y           Z
 ---------------------------------------------------------------------
      1          6           0        1.160339   -0.004645    0.005199
      2          6           0       -0.265590   -0.002381   -0.036005
      3          7           0       -1.437769   -0.000199    0.011601
      4          1           0        1.577056    0.963256   -0.362199
      5          1           0        1.642154   -0.812499   -0.564986
      6          1           0        1.476680   -0.107210    1.030816
 ---------------------------------------------------------------------

 SCF Done:  E(RB2PLYPD3) =  -132.531461441     A.U. after   12 cycles
 E2(B2PLYPD3) =    -0.1823042847D+00 E(B2PLYPD3) =    -0.13271376572603D+03

 The electronic state is 1-A.
 Alpha  occ. eigenvalues --  -14.84762 -10.67110 -10.66774  -1.03519  -0.89599
 Alpha  occ. eigenvalues --   -0.60774  -0.53899  -0.53418  -0.44979  -0.38545
 Alpha  occ. eigenvalues --   -0.38446
 Alpha virt. eigenvalues --    0.03702   0.07036   0.07300   0.10096   0.11397
 Alpha virt. eigenvalues --    0.11554   0.15570   0.16130   0.16765   0.20176
 Alpha virt. eigenvalues --    0.20197   0.25945   0.32600   0.34320   0.34756

 Mulliken charges:
               1
     1  C   -0.075577
     2  C    0.004965
     3  N   -0.214402
     4  H    0.093036
     5  H    0.094239
     6  H    0.097739
 Sum of Mulliken charges =   0.00000

 Dipole moment (field-independent basis, Debye):
    X=              4.1545    Y=              0.0019    Z=              0.0142  Tot=              4.1545
 Quadrupole moment (field-independent basis, Debye-Ang):
   XX=            -20.8655   YY=            -17.8202   ZZ=            -17.8810
   XY=             -0.0286   XZ=              0.0120   YZ=              0.0060

 Normal termination of Gaussian 09 at Wed Aug 26 14:05:33 2020.
