 Gaussian 09, Revision D.01,
 Gaussian 09:  ES64L-G09RevD.01 24-Apr-2013

 --------------------
 #p B2PLYPD3/Def2QZVP
 --------------------

 ------------
 cyanomethane
 ------------
 Symbolic Z-matrix:
 Charge =  0 Multiplicity = 1

                         Standard orientation:
 ---------------------------------------------------------------------
 Center     Atomic      Atomic             Coordinates (Angstroms)
 Number     Number       Type             X           Y           Z
 ---------------------------------------------------------------------
      1          6           0        1.172656   -0.001169    0.001225
      2          6           0       -0.282583   -0.018246    0.007620
      3          7           0       -1.429011    0.011619   -0.008587
      4          1           0        1.598152    0.983072   -0.313551
      5          1           0        1.576444   -0.758548   -0.650916
      6          1           0        1.488043   -0.189362    0.971507
 ---------------------------------------------------------------------

 SCF Done:  E(RB2PLYPD3) =  -132.533528459     A.U. after   12 cycles
 E2(B2PLYPD3) =    -0.1797067020D+00 E(B2PLYPD3) =    -0.13271323516066D+03

 The electronic state is 1-A.
 Alpha  occ. eigenvalues --  -14.84001 -10.66670 -10.66036  -1.04450  -0.89539
 Alpha  occ. eigenvalues --   -0.60012  -0.54756  -0.53350  -0.44795  -0.39331
 Alpha  occ. eigenvalues --   -0.39228
 Alpha virt. eigenvalues --    0.03767   0.07719   0.08609   0.10196   0.11456
 Alpha virt. eigenvalues --    0.11613   0.15508   0.16028   0.16974   0.20040
 Alpha virt. eigenvalues --    0.20096   0.25428   0.32851   0.34534   0.35176

 Mulliken charges:
               1
     1  C   -0.077864
     2  C   -0.002234
     3  N   -0.202386
     4  H    0.091880
     5  H    0.093772
     6  H    0.096832
 Sum of Mulliken charges =   0.00000

 Dipole moment (field-independent basis, Debye):
    X=              4.1202    Y=             -0.0295    Z=              0.0343  Tot=              4.1204
 Quadrupole moment (field-independent basis, Debye-Ang):
   XX=            -20.8813   YY=            -17.7097   ZZ=            -17.7550
   XY=              0.0721   XZ=             -0.0764   YZ=              0.0090

 Normal termination of Gaussian 09 at Thu Aug 27 00:05:14 2020.
