 Gaussian 09, Revision D.01,
 Gaussian 09:  ES64L-G09RevD.01 24-Apr-2013

 --------------------
 #p B2PLYPD3/Def2QZVP
 --------------------

 ------------
 cyanomethane
 ------------
 Symbolic Z-matrix:
 Charge =  0 Multiplicity = 1

                         Standard orientation:
 ---------------------------------------------------------------------
 Center     Atomic      Atomic             Coordinates (Angstroms)
 Number     Number       Type             X           Y           Z
 ---------------------------------------------------------------------
      1          6           0       -1.177771   -0.003412    0.000659
      2          6           0        0.276542    0.006219    0.000811
      3          7           0        1.429550    0.000791    0.000301
      4          1           0       -1.523799   -0.413253    0.937372
      5          1           0       -1.494973   -0.632145   -0.820149
      6          1           0       -1.580708    1.023022   -0.128150
 ---------------------------------------------------------------------

 SCF Done:  E(RB2PLYPD3) =  -132.535329786     A.U. after   11 cycles
 E2(B2PLYPD3) =    -0.1803154115D+00 E(B2PLYPD3) =    -0.13271564519710D+03

 The electronic state is 1-A.
 Alpha  occ. eigenvalues --  -14.84062 -10.67133 -10.66109  -1.04136  -0.89327
 Alpha  occ. eigenvalues --   -0.59351  -0.54426  -0.53819  -0.44706  -0.39047
 Alpha  occ. eigenvalues --   -0.39021
 Alpha virt. eigenvalues --    0.03763   0.07814   0.08189   0.10187   0.11477
 Alpha virt. eigenvalues --    0.11501   0.15384   0.15995   0.16388   0.20096
 Alpha virt. eigenvalues --    0.20102   0.25376   0.32715   0.34508   0.34667

 Mulliken charges:
               1
     1  C   -0.090657
     2  C   -0.002781
     3  N   -0.206139
     4  H    0.100402
     5  H    0.101107
     6  H    0.098068
 Sum of Mulliken charges =   0.00000

 Dipole moment (field-independent basis, Debye):
    X=             -4.1168    Y=             -0.0131    Z=              0.0006  Tot=              4.1168
 Quadrupole moment (field-independent basis, Debye-Ang):
   XX=            -21.1251   YY=            -17.6949   ZZ=            -17.7169
   XY=             -0.0426   XZ=             -0.0189   YZ=              0.0062

 Normal termination of Gaussian 09 at Thu Aug 27 00:03:38 2020.
