 Gaussian 09, Revision D.01,
 Gaussian 09:  ES64L-G09RevD.01 24-Apr-2013

 --------------------
 #p B2PLYPD3/Def2QZVP
 --------------------

 ------------
 cyanomethane
 ------------
 Symbolic Z-matrix:
 Charge =  0 Multiplicity = 1

                         Standard orientation:
 ---------------------------------------------------------------------
 Center     Atomic      Atomic             Coordinates (Angstroms)
 Number     Number       Type             X           Y           Z
 ---------------------------------------------------------------------
      1          6           0        1.180707   -0.001222   -0.009850
      2          6           0       -0.289530   -0.005181    0.031131
      3          7           0       -1.437755    0.000783   -0.016595
      4          1           0        1.544087    1.023663   -0.045090
      5          1           0        1.602709   -0.533779   -0.813229
      6          1           0        1.570423   -0.456944    0.846801
 ---------------------------------------------------------------------

 SCF Done:  E(RB2PLYPD3) =  -132.533175536     A.U. after   11 cycles
 E2(B2PLYPD3) =    -0.1797638367D+00 E(B2PLYPD3) =    -0.13271293937235D+03

 The electronic state is 1-A.
 Alpha  occ. eigenvalues --  -14.84167 -10.66354 -10.66258  -1.04376  -0.89548
 Alpha  occ. eigenvalues --   -0.60514  -0.54139  -0.53907  -0.44868  -0.39390
 Alpha  occ. eigenvalues --   -0.39356
 Alpha virt. eigenvalues --    0.03837   0.08050   0.08470   0.10196   0.11378
 Alpha virt. eigenvalues --    0.11480   0.15431   0.16250   0.17115   0.20020
 Alpha virt. eigenvalues --    0.20100   0.25196   0.32867   0.34881   0.35327

 Mulliken charges:
               1
     1  C   -0.065400
     2  C    0.000456
     3  N   -0.203211
     4  H    0.090878
     5  H    0.089372
     6  H    0.087905
 Sum of Mulliken charges =   0.00000

 Dipole moment (field-independent basis, Debye):
    X=              4.1423    Y=             -0.0208    Z=              0.0351  Tot=              4.1425
 Quadrupole moment (field-independent basis, Debye-Ang):
   XX=            -20.7068   YY=            -17.6806   ZZ=            -17.8758
   XY=             -0.0780   XZ=             -0.0886   YZ=              0.0022

 Normal termination of Gaussian 09 at Wed Aug 26 14:20:06 2020.
