 Gaussian 09, Revision D.01,
 Gaussian 09:  ES64L-G09RevD.01 24-Apr-2013

 --------------------
 #p B2PLYPD3/Def2QZVP
 --------------------

 ------------
 cyanomethane
 ------------
 Symbolic Z-matrix:
 Charge =  0 Multiplicity = 1

                         Standard orientation:
 ---------------------------------------------------------------------
 Center     Atomic      Atomic             Coordinates (Angstroms)
 Number     Number       Type             X           Y           Z
 ---------------------------------------------------------------------
      1          6           0       -1.180361   -0.008880   -0.000552
      2          6           0        0.287606    0.056329   -0.009626
      3          7           0        1.408637   -0.020490   -0.001974
      4          1           0       -1.362161   -0.578523    0.876946
      5          1           0       -1.532995   -0.562940   -0.839654
      6          1           0       -1.608773    1.000191    0.037592
 ---------------------------------------------------------------------

 SCF Done:  E(RB2PLYPD3) =  -132.532819745     A.U. after   12 cycles
 E2(B2PLYPD3) =    -0.1777619144D+00 E(B2PLYPD3) =    -0.13271058165972D+03

 The electronic state is 1-A.
 Alpha  occ. eigenvalues --  -14.83095 -10.66704 -10.65133  -1.05237  -0.89431
 Alpha  occ. eigenvalues --   -0.58641  -0.54834  -0.54216  -0.44462  -0.39871
 Alpha  occ. eigenvalues --   -0.39669
 Alpha virt. eigenvalues --    0.03853   0.08568   0.08969   0.10287   0.11624
 Alpha virt. eigenvalues --    0.11960   0.15317   0.15799   0.16679   0.19883
 Alpha virt. eigenvalues --    0.20072   0.25312   0.32876   0.34668   0.35254

 Mulliken charges:
               1
     1  C   -0.099526
     2  C   -0.011867
     3  N   -0.190459
     4  H    0.103439
     5  H    0.098866
     6  H    0.099548
 Sum of Mulliken charges =   0.00000

 Dipole moment (field-independent basis, Debye):
    X=             -4.0580    Y=              0.0005    Z=              0.0122  Tot=              4.0580
 Quadrupole moment (field-independent basis, Debye-Ang):
   XX=            -21.1977   YY=            -17.4431   ZZ=            -17.6742
   XY=              0.0551   XZ=              0.1198   YZ=             -0.0063

 Normal termination of Gaussian 09 at Wed Aug 26 22:33:29 2020.
