 Gaussian 09, Revision D.01,
 Gaussian 09:  ES64L-G09RevD.01 24-Apr-2013

 --------------------
 #p B2PLYPD3/Def2QZVP
 --------------------

 ------------
 cyanomethane
 ------------
 Symbolic Z-matrix:
 Charge =  0 Multiplicity = 1

                         Standard orientation:
 ---------------------------------------------------------------------
 Center     Atomic      Atomic             Coordinates (Angstroms)
 Number     Number       Type             X           Y           Z
 ---------------------------------------------------------------------
      1          6           0        1.156959   -0.011716   -0.016694
      2          6           0       -0.290371   -0.002151   -0.031862
      3          7           0       -1.437049    0.000313    0.026556
      4          1           0        1.729892   -0.248454    0.993442
      5          1           0        1.562007    1.022230   -0.215743
      6          1           0        1.567916   -0.692767   -0.672261
 ---------------------------------------------------------------------

 SCF Done:  E(RB2PLYPD3) =  -132.522923299     A.U. after   12 cycles
 E2(B2PLYPD3) =    -0.1806783737D+00 E(B2PLYPD3) =    -0.13270360167225D+03

 The electronic state is 1-A.
 Alpha  occ. eigenvalues --  -14.84347 -10.67629 -10.66403  -1.04624  -0.88808
 Alpha  occ. eigenvalues --   -0.61142  -0.54515  -0.50605  -0.45101  -0.39543
 Alpha  occ. eigenvalues --   -0.38882
 Alpha virt. eigenvalues --    0.03336   0.06492   0.08197   0.10093   0.11329
 Alpha virt. eigenvalues --    0.12091   0.15559   0.16632   0.17509   0.19898
 Alpha virt. eigenvalues --    0.20306   0.25604   0.32225   0.33319   0.35154

 Mulliken charges:
               1
     1  C   -0.071069
     2  C    0.006233
     3  N   -0.199933
     4  H    0.079580
     5  H    0.087822
     6  H    0.097367
 Sum of Mulliken charges =   0.00000

 Dipole moment (field-independent basis, Debye):
    X=              4.1191    Y=              0.0055    Z=             -0.0539  Tot=              4.1194
 Quadrupole moment (field-independent basis, Debye-Ang):
   XX=            -20.5446   YY=            -17.8018   ZZ=            -18.0696
   XY=             -0.0166   XZ=              0.2625   YZ=              0.1281

 Normal termination of Gaussian 09 at Wed Aug 26 23:03:37 2020.
