 Gaussian 09, Revision D.01,
 Gaussian 09:  ES64L-G09RevD.01 24-Apr-2013

 --------------------
 #p B2PLYPD3/Def2QZVP
 --------------------

 ------------
 cyanomethane
 ------------
 Symbolic Z-matrix:
 Charge =  0 Multiplicity = 1

                         Standard orientation:
 ---------------------------------------------------------------------
 Center     Atomic      Atomic             Coordinates (Angstroms)
 Number     Number       Type             X           Y           Z
 ---------------------------------------------------------------------
      1          6           0       -1.200175   -0.029346   -0.018245
      2          6           0        0.269537    0.048305   -0.031275
      3          7           0        1.426000   -0.018144    0.012191
      4          1           0       -1.455205   -0.926709   -0.502147
      5          1           0       -1.545317    0.969322   -0.437564
      6          1           0       -1.397656   -0.029356    1.151497
 ---------------------------------------------------------------------

 SCF Done:  E(RB2PLYPD3) =  -132.520907649     A.U. after   12 cycles
 E2(B2PLYPD3) =    -0.1816229182D+00 E(B2PLYPD3) =    -0.13270253056750D+03

 The electronic state is 1-A.
 Alpha  occ. eigenvalues --  -14.83956 -10.68478 -10.66099  -1.03703  -0.88749
 Alpha  occ. eigenvalues --   -0.57772  -0.55503  -0.52326  -0.44387  -0.38922
 Alpha  occ. eigenvalues --   -0.38314
 Alpha virt. eigenvalues --    0.03348   0.07502   0.08207   0.10036   0.11081
 Alpha virt. eigenvalues --    0.11717   0.14815   0.15009   0.15972   0.20034
 Alpha virt. eigenvalues --    0.20237   0.25099   0.31658   0.32132   0.35139

 Mulliken charges:
               1
     1  C   -0.127232
     2  C    0.000101
     3  N   -0.211967
     4  H    0.121810
     5  H    0.110728
     6  H    0.106560
 Sum of Mulliken charges =   0.00000

 Dipole moment (field-independent basis, Debye):
    X=             -4.0640    Y=              0.0314    Z=              0.0002  Tot=              4.0641
 Quadrupole moment (field-independent basis, Debye-Ang):
   XX=            -21.8341   YY=            -17.4870   ZZ=            -17.7469
   XY=              0.0014   XZ=              0.0022   YZ=              0.0975

 Normal termination of Gaussian 09 at Wed Aug 26 20:03:03 2020.
