 Gaussian 09, Revision D.01,
 Gaussian 09:  ES64L-G09RevD.01 24-Apr-2013

 --------------------
 #p B2PLYPD3/Def2QZVP
 --------------------

 ------------
 cyanomethane
 ------------
 Symbolic Z-matrix:
 Charge =  0 Multiplicity = 1

                         Standard orientation:
 ---------------------------------------------------------------------
 Center     Atomic      Atomic             Coordinates (Angstroms)
 Number     Number       Type             X           Y           Z
 ---------------------------------------------------------------------
      1          6           0       -1.174788    0.001960   -0.010849
      2          6           0        0.281937    0.021781    0.005578
      3          7           0        1.426354   -0.009964   -0.000180
      4          1           0       -1.558706   -0.252966    0.984916
      5          1           0       -1.509943   -0.755561   -0.673689
      6          1           0       -1.558723    0.935832   -0.278338
 ---------------------------------------------------------------------

 SCF Done:  E(RB2PLYPD3) =  -132.534885311     A.U. after   11 cycles
 E2(B2PLYPD3) =    -0.1793599230D+00 E(B2PLYPD3) =    -0.13271424523412D+03

 The electronic state is 1-A.
 Alpha  occ. eigenvalues --  -14.83889 -10.66392 -10.65919  -1.04496  -0.89710
 Alpha  occ. eigenvalues --   -0.59941  -0.55164  -0.53608  -0.44737  -0.39443
 Alpha  occ. eigenvalues --   -0.39225
 Alpha virt. eigenvalues --    0.03863   0.08139   0.08576   0.10215   0.11379
 Alpha virt. eigenvalues --    0.11669   0.15493   0.16349   0.16517   0.20010
 Alpha virt. eigenvalues --    0.20096   0.25388   0.32986   0.34550   0.35465

 Mulliken charges:
               1
     1  C   -0.076454
     2  C   -0.003756
     3  N   -0.201910
     4  H    0.090026
     5  H    0.096106
     6  H    0.095986
 Sum of Mulliken charges =   0.00000

 Dipole moment (field-independent basis, Debye):
    X=             -4.1186    Y=              0.0079    Z=              0.0024  Tot=              4.1187
 Quadrupole moment (field-independent basis, Debye-Ang):
   XX=            -20.9186   YY=            -17.6380   ZZ=            -17.7501
   XY=              0.0441   XZ=             -0.0354   YZ=              0.0107

 Normal termination of Gaussian 09 at Wed Aug 26 09:54:44 2020.
