 Gaussian 09, Revision D.01,
 Gaussian 09:  ES64L-G09RevD.01 24-Apr-2013

 --------------------
 #p B2PLYPD3/Def2QZVP
 --------------------

 ------------
 cyanomethane
 ------------
 Symbolic Z-matrix:
 Charge =  0 Multiplicity = 1

                         Standard orientation:
 ---------------------------------------------------------------------
 Center     Atomic      Atomic             Coordinates (Angstroms)
 Number     Number       Type             X           Y           Z
 ---------------------------------------------------------------------
      1          6           0        1.178983   -0.000636    0.000071
      2          6           0       -0.276055    0.014172    0.010026
      3          7           0       -1.427920   -0.008382   -0.006835
      4          1           0        1.514867    1.025200   -0.128310
      5          1           0        1.551133   -0.631401   -0.829571
      6          1           0        1.511876   -0.416341    0.945141
 ---------------------------------------------------------------------

 SCF Done:  E(RB2PLYPD3) =  -132.535222438     A.U. after   12 cycles
 E2(B2PLYPD3) =    -0.1802826994D+00 E(B2PLYPD3) =    -0.13271550513731D+03

 The electronic state is 1-A.
 Alpha  occ. eigenvalues --  -14.84010 -10.67221 -10.66050  -1.04149  -0.89277
 Alpha  occ. eigenvalues --   -0.59123  -0.54551  -0.53758  -0.44672  -0.39061
 Alpha  occ. eigenvalues --   -0.38999
 Alpha virt. eigenvalues --    0.03738   0.07821   0.08238   0.10174   0.11430
 Alpha virt. eigenvalues --    0.11551   0.15366   0.15904   0.16330   0.20081
 Alpha virt. eigenvalues --    0.20115   0.25369   0.32766   0.34353   0.34640

 Mulliken charges:
               1
     1  C   -0.094346
     2  C   -0.003242
     3  N   -0.205907
     4  H    0.101971
     5  H    0.099731
     6  H    0.101793
 Sum of Mulliken charges =   0.00000

 Dipole moment (field-independent basis, Debye):
    X=              4.1086    Y=              0.0093    Z=              0.0123  Tot=              4.1086
 Quadrupole moment (field-independent basis, Debye-Ang):
   XX=            -21.1938   YY=            -17.6631   ZZ=            -17.7117
   XY=             -0.0722   XZ=             -0.0610   YZ=             -0.0220

 Normal termination of Gaussian 09 at Thu Aug 27 00:05:14 2020.
