 Gaussian 09, Revision D.01,
 Gaussian 09:  ES64L-G09RevD.01 24-Apr-2013

 --------------------
 #p B2PLYPD3/Def2QZVP
 --------------------

 ------------
 cyanomethane
 ------------
 Symbolic Z-matrix:
 Charge =  0 Multiplicity = 1

                         Standard orientation:
 ---------------------------------------------------------------------
 Center     Atomic      Atomic             Coordinates (Angstroms)
 Number     Number       Type             X           Y           Z
 ---------------------------------------------------------------------
      1          6           0       -1.201784    0.010605    0.025348
      2          6           0        0.278525   -0.054154    0.002120
      3          7           0        1.447849    0.026711   -0.002807
      4          1           0       -1.541354   -0.066490    1.023569
      5          1           0       -1.531527   -0.903636   -0.661331
      6          1           0       -1.522507    1.044442   -0.507395
 ---------------------------------------------------------------------

 SCF Done:  E(RB2PLYPD3) =  -132.516789606     A.U. after   12 cycles
 E2(B2PLYPD3) =    -0.1830760334D+00 E(B2PLYPD3) =    -0.13269986563922D+03

 The electronic state is 1-A.
 Alpha  occ. eigenvalues --  -14.84619 -10.69305 -10.66796  -1.03298  -0.87839
 Alpha  occ. eigenvalues --   -0.58416  -0.53895  -0.51612  -0.44673  -0.38710
 Alpha  occ. eigenvalues --   -0.38260
 Alpha virt. eigenvalues --    0.03053   0.06577   0.07768   0.10057   0.11027
 Alpha virt. eigenvalues --    0.11373   0.14875   0.15295   0.16254   0.20114
 Alpha virt. eigenvalues --    0.20146   0.24974   0.31175   0.31978   0.34057

 Mulliken charges:
               1
     1  C   -0.123891
     2  C    0.006740
     3  N   -0.213535
     4  H    0.117887
     5  H    0.104730
     6  H    0.108069
 Sum of Mulliken charges =   0.00000

 Dipole moment (field-independent basis, Debye):
    X=             -4.0996    Y=             -0.0330    Z=              0.0163  Tot=              4.0998
 Quadrupole moment (field-independent basis, Debye-Ang):
   XX=            -21.5722   YY=            -17.7922   ZZ=            -17.7719
   XY=             -0.1308   XZ=             -0.0312   YZ=             -0.0155

 Normal termination of Gaussian 09 at Wed Aug 26 23:38:35 2020.
