 Gaussian 09, Revision D.01,
 Gaussian 09:  ES64L-G09RevD.01 24-Apr-2013

 --------------------
 #p B2PLYPD3/Def2QZVP
 --------------------

 ------------
 cyanomethane
 ------------
 Symbolic Z-matrix:
 Charge =  0 Multiplicity = 1

                         Standard orientation:
 ---------------------------------------------------------------------
 Center     Atomic      Atomic             Coordinates (Angstroms)
 Number     Number       Type             X           Y           Z
 ---------------------------------------------------------------------
      1          6           0       -1.153385    0.010700    0.001962
      2          6           0        0.291948    0.052759    0.003049
      3          7           0        1.416396   -0.014910   -0.003578
      4          1           0       -1.474605   -0.542379    0.866581
      5          1           0       -1.490993   -0.679330   -0.795553
      6          1           0       -1.780554    0.945328   -0.076050
 ---------------------------------------------------------------------

 SCF Done:  E(RB2PLYPD3) =  -132.529492942     A.U. after   12 cycles
 E2(B2PLYPD3) =    -0.1786035419D+00 E(B2PLYPD3) =    -0.13270809648390D+03

 The electronic state is 1-A.
 Alpha  occ. eigenvalues --  -14.83494 -10.67262 -10.65591  -1.05388  -0.89018
 Alpha  occ. eigenvalues --   -0.60540  -0.53513  -0.52480  -0.44832  -0.39888
 Alpha  occ. eigenvalues --   -0.39437
 Alpha virt. eigenvalues --    0.03686   0.07540   0.08312   0.10281   0.11746
 Alpha virt. eigenvalues --    0.12275   0.15580   0.16081   0.17980   0.20025
 Alpha virt. eigenvalues --    0.20083   0.25617   0.32650   0.34017   0.35257

 Mulliken charges:
               1
     1  C   -0.081920
     2  C    0.001950
     3  N   -0.190546
     4  H    0.089599
     5  H    0.086552
     6  H    0.094365
 Sum of Mulliken charges =   0.00000

 Dipole moment (field-independent basis, Debye):
    X=             -4.0974    Y=             -0.0554    Z=              0.0180  Tot=              4.0978
 Quadrupole moment (field-independent basis, Debye-Ang):
   XX=            -20.6521   YY=            -17.5945   ZZ=            -17.9835
   XY=              0.0549   XZ=              0.0263   YZ=             -0.0325

 Normal termination of Gaussian 09 at Wed Aug 26 18:36:58 2020.
