 Gaussian 09, Revision D.01,
 Gaussian 09:  ES64L-G09RevD.01 24-Apr-2013

 --------------------
 #p B2PLYPD3/Def2QZVP
 --------------------

 ------------
 cyanomethane
 ------------
 Symbolic Z-matrix:
 Charge =  0 Multiplicity = 1

                         Standard orientation:
 ---------------------------------------------------------------------
 Center     Atomic      Atomic             Coordinates (Angstroms)
 Number     Number       Type             X           Y           Z
 ---------------------------------------------------------------------
      1          6           0        1.188360   -0.020431    0.001825
      2          6           0       -0.284131    0.035142   -0.021720
      3          7           0       -1.438251   -0.020336    0.013870
      4          1           0        1.603883   -0.518267    0.915749
      5          1           0        1.495732    1.082655    0.015972
      6          1           0        1.542763   -0.510302   -0.909439
 ---------------------------------------------------------------------

 SCF Done:  E(RB2PLYPD3) =  -132.530336966     A.U. after   12 cycles
 E2(B2PLYPD3) =    -0.1811281180D+00 E(B2PLYPD3) =    -0.13271146508432D+03

 The electronic state is 1-A.
 Alpha  occ. eigenvalues --  -14.84231 -10.68238 -10.66351  -1.04010  -0.88333
 Alpha  occ. eigenvalues --   -0.58913  -0.53898  -0.52621  -0.44738  -0.39117
 Alpha  occ. eigenvalues --   -0.38818
 Alpha virt. eigenvalues --    0.03512   0.07324   0.07949   0.10097   0.11326
 Alpha virt. eigenvalues --    0.11531   0.15201   0.15428   0.16954   0.20075
 Alpha virt. eigenvalues --    0.20112   0.25197   0.32204   0.33382   0.34691

 Mulliken charges:
               1
     1  C   -0.103521
     2  C    0.001252
     3  N   -0.206070
     4  H    0.103699
     5  H    0.098658
     6  H    0.105983
 Sum of Mulliken charges =   0.00000

 Dipole moment (field-independent basis, Debye):
    X=              4.1056    Y=              0.0303    Z=             -0.0195  Tot=              4.1058
 Quadrupole moment (field-independent basis, Debye-Ang):
   XX=            -21.2257   YY=            -17.7871   ZZ=            -17.7457
   XY=             -0.1766   XZ=              0.1238   YZ=              0.0293

 Normal termination of Gaussian 09 at Wed Aug 26 15:54:39 2020.
