 Gaussian 09, Revision D.01,
 Gaussian 09:  ES64L-G09RevD.01 24-Apr-2013

 --------------------
 #p B2PLYPD3/Def2QZVP
 --------------------

 ------------
 cyanomethane
 ------------
 Symbolic Z-matrix:
 Charge =  0 Multiplicity = 1

                         Standard orientation:
 ---------------------------------------------------------------------
 Center     Atomic      Atomic             Coordinates (Angstroms)
 Number     Number       Type             X           Y           Z
 ---------------------------------------------------------------------
      1          6           0       -1.180363   -0.002544   -0.010432
      2          6           0        0.268275   -0.005294    0.029024
      3          7           0        1.434213    0.007479   -0.016584
      4          1           0       -1.475644   -0.213931    0.969208
      5          1           0       -1.502295   -0.793044   -0.654842
      6          1           0       -1.589021    1.001654   -0.309832
 ---------------------------------------------------------------------

 SCF Done:  E(RB2PLYPD3) =  -132.530741817     A.U. after   12 cycles
 E2(B2PLYPD3) =    -0.1814701353D+00 E(B2PLYPD3) =    -0.13271221195261D+03

 The electronic state is 1-A.
 Alpha  occ. eigenvalues --  -14.84423 -10.66799 -10.66465  -1.03600  -0.89831
 Alpha  occ. eigenvalues --   -0.59435  -0.55001  -0.54056  -0.44734  -0.38736
 Alpha  occ. eigenvalues --   -0.38626
 Alpha virt. eigenvalues --    0.03703   0.07447   0.08374   0.10126   0.11287
 Alpha virt. eigenvalues --    0.11336   0.15284   0.15491   0.16762   0.20168
 Alpha virt. eigenvalues --    0.20188   0.25523   0.32631   0.34366   0.34918

 Mulliken charges:
               1
     1  C   -0.089082
     2  C   -0.000136
     3  N   -0.213649
     4  H    0.100197
     5  H    0.102769
     6  H    0.099903
 Sum of Mulliken charges =   0.00000

 Dipole moment (field-independent basis, Debye):
    X=             -4.1348    Y=             -0.0309    Z=              0.0540  Tot=              4.1353
 Quadrupole moment (field-independent basis, Debye-Ang):
   XX=            -21.1493   YY=            -17.6057   ZZ=            -17.8334
   XY=             -0.0696   XZ=              0.0534   YZ=              0.0251

 Normal termination of Gaussian 09 at Wed Aug 26 11:28:15 2020.
