 Gaussian 09, Revision D.01,
 Gaussian 09:  ES64L-G09RevD.01 24-Apr-2013

 --------------------
 #p B2PLYPD3/Def2QZVP
 --------------------

 ------------
 cyanomethane
 ------------
 Symbolic Z-matrix:
 Charge =  0 Multiplicity = 1

                         Standard orientation:
 ---------------------------------------------------------------------
 Center     Atomic      Atomic             Coordinates (Angstroms)
 Number     Number       Type             X           Y           Z
 ---------------------------------------------------------------------
      1          6           0       -1.186976   -0.002022   -0.034682
      2          6           0        0.302351    0.057498    0.004920
      3          7           0        1.432361   -0.025370    0.003145
      4          1           0       -1.592145   -0.184639    0.967781
      5          1           0       -1.496987   -0.832526   -0.517177
      6          1           0       -1.629646    0.861896   -0.294041
 ---------------------------------------------------------------------

 SCF Done:  E(RB2PLYPD3) =  -132.523016545     A.U. after   12 cycles
 E2(B2PLYPD3) =    -0.1782961125D+00 E(B2PLYPD3) =    -0.13270131265794D+03

 The electronic state is 1-A.
 Alpha  occ. eigenvalues --  -14.83717 -10.65857 -10.65708  -1.05009  -0.89894
 Alpha  occ. eigenvalues --   -0.60382  -0.56878  -0.52085  -0.44794  -0.40190
 Alpha  occ. eigenvalues --   -0.39548
 Alpha virt. eigenvalues --    0.03846   0.08466   0.09200   0.10312   0.11061
 Alpha virt. eigenvalues --    0.11916   0.15344   0.16385   0.17573   0.19824
 Alpha virt. eigenvalues --    0.20099   0.24925   0.32821   0.34199   0.36712

 Mulliken charges:
               1
     1  C   -0.057853
     2  C   -0.000938
     3  N   -0.194733
     4  H    0.070498
     5  H    0.092365
     6  H    0.090660
 Sum of Mulliken charges =   0.00000

 Dipole moment (field-independent basis, Debye):
    X=             -4.1359    Y=              0.0166    Z=              0.0448  Tot=              4.1362
 Quadrupole moment (field-independent basis, Debye-Ang):
   XX=            -20.5610   YY=            -17.4808   ZZ=            -17.9880
   XY=              0.1200   XZ=             -0.1834   YZ=              0.0323

 Normal termination of Gaussian 09 at Wed Aug 26 21:45:16 2020.
