 Gaussian 09, Revision D.01,
 Gaussian 09:  ES64L-G09RevD.01 24-Apr-2013

 --------------------
 #p B2PLYPD3/Def2QZVP
 --------------------

 ------------
 cyanomethane
 ------------
 Symbolic Z-matrix:
 Charge =  0 Multiplicity = 1

                         Standard orientation:
 ---------------------------------------------------------------------
 Center     Atomic      Atomic             Coordinates (Angstroms)
 Number     Number       Type             X           Y           Z
 ---------------------------------------------------------------------
      1          6           0       -1.171301    0.010440    0.016742
      2          6           0        0.270568    0.001964    0.022210
      3          7           0        1.431818    0.000615   -0.015278
      4          1           0       -1.508055   -0.227109    0.979483
      5          1           0       -1.529239   -0.847325   -0.717677
      6          1           0       -1.581033    0.995705   -0.388569
 ---------------------------------------------------------------------

 SCF Done:  E(RB2PLYPD3) =  -132.526150985     A.U. after   12 cycles
 E2(B2PLYPD3) =    -0.1816342487D+00 E(B2PLYPD3) =    -0.13270778523351D+03

 The electronic state is 1-A.
 Alpha  occ. eigenvalues --  -14.84337 -10.68027 -10.66371  -1.03837  -0.88991
 Alpha  occ. eigenvalues --   -0.59377  -0.54847  -0.52020  -0.44783  -0.38906
 Alpha  occ. eigenvalues --   -0.38434
 Alpha virt. eigenvalues --    0.03411   0.06715   0.08026   0.10116   0.11242
 Alpha virt. eigenvalues --    0.11814   0.15369   0.15752   0.16496   0.20068
 Alpha virt. eigenvalues --    0.20198   0.25559   0.31992   0.32963   0.34867

 Mulliken charges:
               1
     1  C   -0.101857
     2  C    0.002569
     3  N   -0.209600
     4  H    0.108880
     5  H    0.095708
     6  H    0.104299
 Sum of Mulliken charges =   0.00000

 Dipole moment (field-independent basis, Debye):
    X=             -4.1055    Y=             -0.0111    Z=              0.0308  Tot=              4.1057
 Quadrupole moment (field-independent basis, Debye-Ang):
   XX=            -21.2452   YY=            -17.7417   ZZ=            -17.7747
   XY=             -0.0182   XZ=              0.0990   YZ=             -0.0942

 Normal termination of Gaussian 09 at Wed Aug 26 11:07:44 2020.
