 Gaussian 09, Revision D.01,
 Gaussian 09:  ES64L-G09RevD.01 24-Apr-2013

 --------------------
 #p B2PLYPD3/Def2QZVP
 --------------------

 ------------
 cyanomethane
 ------------
 Symbolic Z-matrix:
 Charge =  0 Multiplicity = 1

                         Standard orientation:
 ---------------------------------------------------------------------
 Center     Atomic      Atomic             Coordinates (Angstroms)
 Number     Number       Type             X           Y           Z
 ---------------------------------------------------------------------
      1          6           0       -1.174666   -0.017444    0.005430
      2          6           0        0.267914    0.060581   -0.036276
      3          7           0        1.422304   -0.040823    0.024062
      4          1           0       -1.341489    0.975357   -0.076161
      5          1           0       -1.648318   -0.387243    0.845130
      6          1           0       -1.525804   -0.561176   -0.752321
 ---------------------------------------------------------------------

 SCF Done:  E(RB2PLYPD3) =  -132.512478899     A.U. after   12 cycles
 E2(B2PLYPD3) =    -0.1806734480D+00 E(B2PLYPD3) =    -0.13269315234690D+03

 The electronic state is 1-A.
 Alpha  occ. eigenvalues --  -14.84322 -10.66328 -10.64574  -1.04017  -0.91513
 Alpha  occ. eigenvalues --   -0.61809  -0.56420  -0.54080  -0.44817  -0.39082
 Alpha  occ. eigenvalues --   -0.38737
 Alpha virt. eigenvalues --    0.03887   0.07746   0.09371   0.09770   0.11221
 Alpha virt. eigenvalues --    0.11605   0.14861   0.15951   0.17722   0.20074
 Alpha virt. eigenvalues --    0.20433   0.25966   0.33482   0.35128   0.36070

 Mulliken charges:
               1
     1  C   -0.070801
     2  C    0.007570
     3  N   -0.211118
     4  H    0.097665
     5  H    0.085043
     6  H    0.091640
 Sum of Mulliken charges =   0.00000

 Dipole moment (field-independent basis, Debye):
    X=             -4.1080    Y=              0.0667    Z=             -0.0354  Tot=              4.1087
 Quadrupole moment (field-independent basis, Debye-Ang):
   XX=            -20.8067   YY=            -17.5409   ZZ=            -17.8029
   XY=              0.3962   XZ=             -0.2154   YZ=              0.0563

 Normal termination of Gaussian 09 at Wed Aug 26 20:23:14 2020.
