 Gaussian 09, Revision D.01,
 Gaussian 09:  ES64L-G09RevD.01 24-Apr-2013

 --------------------
 #p B2PLYPD3/Def2QZVP
 --------------------

 ------------
 cyanomethane
 ------------
 Symbolic Z-matrix:
 Charge =  0 Multiplicity = 1

                         Standard orientation:
 ---------------------------------------------------------------------
 Center     Atomic      Atomic             Coordinates (Angstroms)
 Number     Number       Type             X           Y           Z
 ---------------------------------------------------------------------
      1          6           0       -1.183714   -0.000352   -0.006383
      2          6           0        0.275101    0.021216    0.017770
      3          7           0        1.426926   -0.015067   -0.009190
      4          1           0       -1.547324   -0.530607   -0.856400
      5          1           0       -1.457404    1.000255   -0.027201
      6          1           0       -1.532079   -0.489361    0.879615
 ---------------------------------------------------------------------

 SCF Done:  E(RB2PLYPD3) =  -132.532924728     A.U. after   12 cycles
 E2(B2PLYPD3) =    -0.1799357989D+00 E(B2PLYPD3) =    -0.13271286052668D+03

 The electronic state is 1-A.
 Alpha  occ. eigenvalues --  -14.83997 -10.66189 -10.66024  -1.04120  -0.90065
 Alpha  occ. eigenvalues --   -0.59392  -0.55589  -0.54380  -0.44642  -0.39125
 Alpha  occ. eigenvalues --   -0.39070
 Alpha virt. eigenvalues --    0.03889   0.08125   0.08823   0.10179   0.11287
 Alpha virt. eigenvalues --    0.11455   0.15398   0.15707   0.16542   0.20089
 Alpha virt. eigenvalues --    0.20138   0.25334   0.32977   0.34884   0.35238

 Mulliken charges:
               1
     1  C   -0.083948
     2  C   -0.004717
     3  N   -0.207330
     4  H    0.097830
     5  H    0.101391
     6  H    0.096774
 Sum of Mulliken charges =   0.00000

 Dipole moment (field-independent basis, Debye):
    X=             -4.1189    Y=              0.0218    Z=              0.0146  Tot=              4.1190
 Quadrupole moment (field-independent basis, Debye-Ang):
   XX=            -21.1038   YY=            -17.6061   ZZ=            -17.6914
   XY=              0.1548   XZ=              0.0556   YZ=             -0.0004

 Normal termination of Gaussian 09 at Wed Aug 26 13:40:25 2020.
