 Gaussian 09, Revision D.01,
 Gaussian 09:  ES64L-G09RevD.01 24-Apr-2013

 --------------------
 #p B2PLYPD3/Def2QZVP
 --------------------

 ------------
 cyanomethane
 ------------
 Symbolic Z-matrix:
 Charge =  0 Multiplicity = 1

                         Standard orientation:
 ---------------------------------------------------------------------
 Center     Atomic      Atomic             Coordinates (Angstroms)
 Number     Number       Type             X           Y           Z
 ---------------------------------------------------------------------
      1          6           0        1.187017   -0.006444   -0.008808
      2          6           0       -0.285495   -0.002228    0.014946
      3          7           0       -1.435072    0.002258   -0.005443
      4          1           0        1.551188    1.019448   -0.002953
      5          1           0        1.524280   -0.494517   -0.863773
      6          1           0        1.560905   -0.488703    0.867998
 ---------------------------------------------------------------------

 SCF Done:  E(RB2PLYPD3) =  -132.534701094     A.U. after   11 cycles
 E2(B2PLYPD3) =    -0.1797484828D+00 E(B2PLYPD3) =    -0.13271444957724D+03

 The electronic state is 1-A.
 Alpha  occ. eigenvalues --  -14.84046 -10.66541 -10.66133  -1.04261  -0.89514
 Alpha  occ. eigenvalues --   -0.59625  -0.55007  -0.53819  -0.44728  -0.39361
 Alpha  occ. eigenvalues --   -0.39214
 Alpha virt. eigenvalues --    0.03861   0.08230   0.08515   0.10232   0.11300
 Alpha virt. eigenvalues --    0.11459   0.15351   0.16254   0.16471   0.20044
 Alpha virt. eigenvalues --    0.20087   0.25068   0.32756   0.34651   0.35416

 Mulliken charges:
               1
     1  C   -0.077791
     2  C   -0.004091
     3  N   -0.204176
     4  H    0.093235
     5  H    0.098559
     6  H    0.094263
 Sum of Mulliken charges =   0.00000

 Dipole moment (field-independent basis, Debye):
    X=              4.1347    Y=             -0.0038    Z=              0.0093  Tot=              4.1347
 Quadrupole moment (field-independent basis, Debye-Ang):
   XX=            -20.9433   YY=            -17.7318   ZZ=            -17.6981
   XY=              0.0210   XZ=              0.0009   YZ=              0.0270

 Normal termination of Gaussian 09 at Thu Aug 27 00:02:30 2020.
