 Gaussian 09, Revision D.01,
 Gaussian 09:  ES64L-G09RevD.01 24-Apr-2013

 --------------------
 #p B2PLYPD3/Def2QZVP
 --------------------

 ------------
 cyanomethane
 ------------
 Symbolic Z-matrix:
 Charge =  0 Multiplicity = 1

                         Standard orientation:
 ---------------------------------------------------------------------
 Center     Atomic      Atomic             Coordinates (Angstroms)
 Number     Number       Type             X           Y           Z
 ---------------------------------------------------------------------
      1          6           0       -1.165658   -0.008790    0.011215
      2          6           0        0.284723    0.054568    0.013348
      3          7           0        1.410385   -0.012222   -0.005592
      4          1           0       -1.532947   -0.259517    0.990681
      5          1           0       -1.362593   -0.950833   -0.697286
      6          1           0       -1.691546    1.021229   -0.401635
 ---------------------------------------------------------------------

 SCF Done:  E(RB2PLYPD3) =  -132.516632084     A.U. after   12 cycles
 E2(B2PLYPD3) =    -0.1794604894D+00 E(B2PLYPD3) =    -0.13269609257304D+03

 The electronic state is 1-A.
 Alpha  occ. eigenvalues --  -14.83307 -10.69180 -10.65377  -1.05175  -0.87952
 Alpha  occ. eigenvalues --   -0.58584  -0.52763  -0.51999  -0.44587  -0.39551
 Alpha  occ. eigenvalues --   -0.39128
 Alpha virt. eigenvalues --    0.03127   0.06746   0.08033   0.10225   0.11886
 Alpha virt. eigenvalues --    0.12345   0.15041   0.15827   0.16727   0.19902
 Alpha virt. eigenvalues --    0.20058   0.25514   0.30977   0.32261   0.34436

 Mulliken charges:
               1
     1  C   -0.128062
     2  C    0.000210
     3  N   -0.191064
     4  H    0.110249
     5  H    0.106464
     6  H    0.102202
 Sum of Mulliken charges =   0.00000

 Dipole moment (field-independent basis, Debye):
    X=             -4.0151    Y=             -0.0225    Z=              0.0507  Tot=              4.0155
 Quadrupole moment (field-independent basis, Debye-Ang):
   XX=            -21.4353   YY=            -17.4890   ZZ=            -17.8394
   XY=             -0.0975   XZ=             -0.1121   YZ=             -0.0387

 Normal termination of Gaussian 09 at Wed Aug 26 23:46:02 2020.
