 Gaussian 09, Revision D.01,
 Gaussian 09:  ES64L-G09RevD.01 24-Apr-2013

 --------------------
 #p B2PLYPD3/Def2QZVP
 --------------------

 ------------
 cyanomethane
 ------------
 Symbolic Z-matrix:
 Charge =  0 Multiplicity = 1

                         Standard orientation:
 ---------------------------------------------------------------------
 Center     Atomic      Atomic             Coordinates (Angstroms)
 Number     Number       Type             X           Y           Z
 ---------------------------------------------------------------------
      1          6           0       -1.184239    0.009025   -0.032792
      2          6           0        0.305138    0.026783    0.045008
      3          7           0        1.435582   -0.018707   -0.032189
      4          1           0       -1.741317   -0.731590   -0.740712
      5          1           0       -1.578233    1.042125   -0.138836
      6          1           0       -1.454922   -0.394431    1.031576
 ---------------------------------------------------------------------

 SCF Done:  E(RB2PLYPD3) =  -132.520070803     A.U. after   12 cycles
 E2(B2PLYPD3) =    -0.1800645227D+00 E(B2PLYPD3) =    -0.13270013532539D+03

 The electronic state is 1-A.
 Alpha  occ. eigenvalues --  -14.83795 -10.69143 -10.66019  -1.05007  -0.87274
 Alpha  occ. eigenvalues --   -0.58912  -0.53289  -0.50798  -0.44821  -0.39850
 Alpha  occ. eigenvalues --   -0.39153
 Alpha virt. eigenvalues --    0.03213   0.06785   0.08192   0.10102   0.11470
 Alpha virt. eigenvalues --    0.11981   0.15128   0.15276   0.18212   0.19951
 Alpha virt. eigenvalues --    0.20449   0.25134   0.31996   0.32161   0.34655

 Mulliken charges:
               1
     1  C   -0.110114
     2  C    0.004729
     3  N   -0.191923
     4  H    0.101796
     5  H    0.104498
     6  H    0.091015
 Sum of Mulliken charges =   0.00000

 Dipole moment (field-independent basis, Debye):
    X=             -4.0826    Y=              0.0131    Z=              0.0875  Tot=              4.0836
 Quadrupole moment (field-independent basis, Debye-Ang):
   XX=            -20.9788   YY=            -17.6659   ZZ=            -18.0321
   XY=              0.2125   XZ=              0.2972   YZ=             -0.0047

 Normal termination of Gaussian 09 at Wed Aug 26 22:03:25 2020.
