 Gaussian 09, Revision D.01,
 Gaussian 09:  ES64L-G09RevD.01 24-Apr-2013

 --------------------
 #p B2PLYPD3/Def2QZVP
 --------------------

 ------------
 cyanomethane
 ------------
 Symbolic Z-matrix:
 Charge =  0 Multiplicity = 1

                         Standard orientation:
 ---------------------------------------------------------------------
 Center     Atomic      Atomic             Coordinates (Angstroms)
 Number     Number       Type             X           Y           Z
 ---------------------------------------------------------------------
      1          6           0       -1.168965    0.012008   -0.004928
      2          6           0        0.268468    0.027417   -0.010148
      3          7           0        1.419392   -0.028049    0.007947
      4          1           0       -1.338541    0.992828   -0.097256
      5          1           0       -1.607427   -0.410714    0.861691
      6          1           0       -1.586794   -0.622320   -0.729611
 ---------------------------------------------------------------------

 SCF Done:  E(RB2PLYPD3) =  -132.520905510     A.U. after   12 cycles
 E2(B2PLYPD3) =    -0.1799805092D+00 E(B2PLYPD3) =    -0.13270088601885D+03

 The electronic state is 1-A.
 Alpha  occ. eigenvalues --  -14.83997 -10.65995 -10.65256  -1.04252  -0.91079
 Alpha  occ. eigenvalues --   -0.61392  -0.56721  -0.53083  -0.44711  -0.39155
 Alpha  occ. eigenvalues --   -0.38872
 Alpha virt. eigenvalues --    0.03944   0.07767   0.09141   0.10174   0.11159
 Alpha virt. eigenvalues --    0.11827   0.15116   0.16195   0.16968   0.19985
 Alpha virt. eigenvalues --    0.20301   0.25740   0.33267   0.34824   0.35940

 Mulliken charges:
               1
     1  C   -0.070476
     2  C   -0.000243
     3  N   -0.208532
     4  H    0.104773
     5  H    0.085063
     6  H    0.089416
 Sum of Mulliken charges =   0.00000

 Dipole moment (field-independent basis, Debye):
    X=             -4.1267    Y=              0.0035    Z=              0.0037  Tot=              4.1267
 Quadrupole moment (field-independent basis, Debye-Ang):
   XX=            -20.8776   YY=            -17.3807   ZZ=            -17.9510
   XY=              0.4741   XZ=             -0.1186   YZ=             -0.0013

 Normal termination of Gaussian 09 at Wed Aug 26 21:12:11 2020.
