 Gaussian 09, Revision D.01,
 Gaussian 09:  ES64L-G09RevD.01 24-Apr-2013

 --------------------
 #p B2PLYPD3/Def2QZVP
 --------------------

 ------------
 cyanomethane
 ------------
 Symbolic Z-matrix:
 Charge =  0 Multiplicity = 1

                         Standard orientation:
 ---------------------------------------------------------------------
 Center     Atomic      Atomic             Coordinates (Angstroms)
 Number     Number       Type             X           Y           Z
 ---------------------------------------------------------------------
      1          6           0       -1.188512    0.003507    0.002213
      2          6           0        0.276935    0.008296   -0.009471
      3          7           0        1.438881   -0.005569    0.000816
      4          1           0       -1.581397   -0.714195   -0.731778
      5          1           0       -1.534570    0.995517   -0.214849
      6          1           0       -1.486737   -0.313156    0.984464
 ---------------------------------------------------------------------

 SCF Done:  E(RB2PLYPD3) =  -132.534376858     A.U. after   12 cycles
 E2(B2PLYPD3) =    -0.1810112096D+00 E(B2PLYPD3) =    -0.13271538806770D+03

 The electronic state is 1-A.
 Alpha  occ. eigenvalues --  -14.84333 -10.67050 -10.66431  -1.03751  -0.89358
 Alpha  occ. eigenvalues --   -0.59281  -0.54795  -0.53826  -0.44718  -0.38934
 Alpha  occ. eigenvalues --   -0.38834
 Alpha virt. eigenvalues --    0.03776   0.07799   0.08195   0.10194   0.11211
 Alpha virt. eigenvalues --    0.11386   0.15275   0.15911   0.16339   0.20107
 Alpha virt. eigenvalues --    0.20158   0.25160   0.32546   0.34502   0.34906

 Mulliken charges:
               1
     1  C   -0.088225
     2  C   -0.002103
     3  N   -0.210513
     4  H    0.097777
     5  H    0.101793
     6  H    0.101271
 Sum of Mulliken charges =   0.00000

 Dipole moment (field-independent basis, Debye):
    X=             -4.1404    Y=              0.0021    Z=              0.0099  Tot=              4.1404
 Quadrupole moment (field-independent basis, Debye-Ang):
   XX=            -21.1170   YY=            -17.6936   ZZ=            -17.7779
   XY=              0.0599   XZ=              0.0409   YZ=             -0.0263

 Normal termination of Gaussian 09 at Thu Aug 27 00:12:27 2020.
