 Gaussian 09, Revision D.01,
 Gaussian 09:  ES64L-G09RevD.01 24-Apr-2013

 --------------------
 #p B2PLYPD3/Def2QZVP
 --------------------

 ------------
 cyanomethane
 ------------
 Symbolic Z-matrix:
 Charge =  0 Multiplicity = 1

                         Standard orientation:
 ---------------------------------------------------------------------
 Center     Atomic      Atomic             Coordinates (Angstroms)
 Number     Number       Type             X           Y           Z
 ---------------------------------------------------------------------
      1          6           0        1.189791    0.006683   -0.011094
      2          6           0       -0.274580    0.003241   -0.035650
      3          7           0       -1.440158   -0.004357    0.015764
      4          1           0        1.509269    1.005110   -0.056852
      5          1           0        1.590140   -0.621114   -0.732963
      6          1           0        1.490429   -0.413044    0.959927
 ---------------------------------------------------------------------

 SCF Done:  E(RB2PLYPD3) =  -132.530951418     A.U. after   12 cycles
 E2(B2PLYPD3) =    -0.1812313091D+00 E(B2PLYPD3) =    -0.13271218272719D+03

 The electronic state is 1-A.
 Alpha  occ. eigenvalues --  -14.84464 -10.66577 -10.66434  -1.03583  -0.89867
 Alpha  occ. eigenvalues --   -0.59775  -0.55983  -0.53469  -0.44745  -0.38984
 Alpha  occ. eigenvalues --   -0.38615
 Alpha virt. eigenvalues --    0.03796   0.07893   0.08359   0.10198   0.10944
 Alpha virt. eigenvalues --    0.11484   0.15320   0.15846   0.16495   0.20081
 Alpha virt. eigenvalues --    0.20220   0.25204   0.32687   0.33992   0.35825

 Mulliken charges:
               1
     1  C   -0.078990
     2  C   -0.000545
     3  N   -0.213269
     4  H    0.101715
     5  H    0.098408
     6  H    0.092681
 Sum of Mulliken charges =   0.00000

 Dipole moment (field-independent basis, Debye):
    X=              4.1553    Y=             -0.0093    Z=              0.0035  Tot=              4.1554
 Quadrupole moment (field-independent basis, Debye-Ang):
   XX=            -21.0278   YY=            -17.6159   ZZ=            -17.8639
   XY=             -0.1004   XZ=              0.0761   YZ=              0.0517

 Normal termination of Gaussian 09 at Wed Aug 26 14:19:24 2020.
