 Gaussian 09, Revision D.01,
 Gaussian 09:  ES64L-G09RevD.01 24-Apr-2013

 --------------------
 #p B2PLYPD3/Def2QZVP
 --------------------

 ------------
 cyanomethane
 ------------
 Symbolic Z-matrix:
 Charge =  0 Multiplicity = 1

                         Standard orientation:
 ---------------------------------------------------------------------
 Center     Atomic      Atomic             Coordinates (Angstroms)
 Number     Number       Type             X           Y           Z
 ---------------------------------------------------------------------
      1          6           0        1.198537    0.007481   -0.018044
      2          6           0       -0.272284   -0.039140   -0.030055
      3          7           0       -1.451495    0.032512    0.016385
      4          1           0        1.388221   -0.866971   -0.439762
      5          1           0        1.516341   -0.041806    1.014102
      6          1           0        1.698385    0.871146   -0.400441
 ---------------------------------------------------------------------

 SCF Done:  E(RB2PLYPD3) =  -132.516654885     A.U. after   13 cycles
 E2(B2PLYPD3) =    -0.1828460305D+00 E(B2PLYPD3) =    -0.13269950091505D+03

 The electronic state is 1-A.
 Alpha  occ. eigenvalues --  -14.84978 -10.67148 -10.66057  -1.03044  -0.90423
 Alpha  occ. eigenvalues --   -0.60437  -0.56392  -0.53091  -0.44835  -0.38635
 Alpha  occ. eigenvalues --   -0.38322
 Alpha virt. eigenvalues --    0.03693   0.07022   0.08770   0.09849   0.10928
 Alpha virt. eigenvalues --    0.11425   0.14893   0.15524   0.17445   0.20122
 Alpha virt. eigenvalues --    0.20450   0.25177   0.32419   0.34224   0.36010

 Mulliken charges:
               1
     1  C   -0.081480
     2  C    0.005226
     3  N   -0.219624
     4  H    0.106348
     5  H    0.089940
     6  H    0.099589
 Sum of Mulliken charges =   0.00000

 Dipole moment (field-independent basis, Debye):
    X=              4.1814    Y=             -0.0536    Z=              0.0252  Tot=              4.1818
 Quadrupole moment (field-independent basis, Debye-Ang):
   XX=            -20.8885   YY=            -17.6480   ZZ=            -17.9940
   XY=              0.3553   XZ=              0.1863   YZ=              0.0506

 Normal termination of Gaussian 09 at Wed Aug 26 23:41:57 2020.
