 Gaussian 09, Revision D.01,
 Gaussian 09:  ES64L-G09RevD.01 24-Apr-2013

 --------------------
 #p B2PLYPD3/Def2QZVP
 --------------------

 ------------
 cyanomethane
 ------------
 Symbolic Z-matrix:
 Charge =  0 Multiplicity = 1

                         Standard orientation:
 ---------------------------------------------------------------------
 Center     Atomic      Atomic             Coordinates (Angstroms)
 Number     Number       Type             X           Y           Z
 ---------------------------------------------------------------------
      1          6           0        1.173312   -0.000390   -0.008115
      2          6           0       -0.275735    0.019186    0.005340
      3          7           0       -1.429521   -0.009418   -0.003432
      4          1           0        1.552227    0.999088   -0.182887
      5          1           0        1.550529   -0.697174   -0.745750
      6          1           0        1.518422   -0.348764    0.969303
 ---------------------------------------------------------------------

 SCF Done:  E(RB2PLYPD3) =  -132.535531301     A.U. after   12 cycles
 E2(B2PLYPD3) =    -0.1803869315D+00 E(B2PLYPD3) =    -0.13271591823258D+03

 The electronic state is 1-A.
 Alpha  occ. eigenvalues --  -14.84132 -10.66947 -10.66162  -1.04129  -0.89454
 Alpha  occ. eigenvalues --   -0.59759  -0.54514  -0.53682  -0.44762  -0.39094
 Alpha  occ. eigenvalues --   -0.38933
 Alpha virt. eigenvalues --    0.03781   0.07857   0.08047   0.10159   0.11385
 Alpha virt. eigenvalues --    0.11609   0.15468   0.16014   0.16578   0.20062
 Alpha virt. eigenvalues --    0.20141   0.25507   0.32865   0.34325   0.34982

 Mulliken charges:
               1
     1  C   -0.084477
     2  C   -0.001568
     3  N   -0.206528
     4  H    0.098791
     5  H    0.098361
     6  H    0.095421
 Sum of Mulliken charges =   0.00000

 Dipole moment (field-independent basis, Debye):
    X=              4.1217    Y=              0.0015    Z=              0.0170  Tot=              4.1217
 Quadrupole moment (field-independent basis, Debye-Ang):
   XX=            -21.0371   YY=            -17.6510   ZZ=            -17.7977
   XY=             -0.0708   XZ=             -0.0142   YZ=              0.0085

 Normal termination of Gaussian 09 at Wed Aug 26 23:32:11 2020.
