 Gaussian 09, Revision D.01,
 Gaussian 09:  ES64L-G09RevD.01 24-Apr-2013

 --------------------
 #p B2PLYPD3/Def2QZVP
 --------------------

 ------------
 cyanomethane
 ------------
 Symbolic Z-matrix:
 Charge =  0 Multiplicity = 1

                         Standard orientation:
 ---------------------------------------------------------------------
 Center     Atomic      Atomic             Coordinates (Angstroms)
 Number     Number       Type             X           Y           Z
 ---------------------------------------------------------------------
      1          6           0        1.190701   -0.012368   -0.025125
      2          6           0       -0.293232    0.053786    0.037570
      3          7           0       -1.442789   -0.030628   -0.018576
      4          1           0        1.525285    0.949291   -0.122627
      5          1           0        1.619788   -0.611852   -0.684861
      6          1           0        1.569638   -0.371555    0.862851
 ---------------------------------------------------------------------

 SCF Done:  E(RB2PLYPD3) =  -132.518657326     A.U. after   12 cycles
 E2(B2PLYPD3) =    -0.1799067325D+00 E(B2PLYPD3) =    -0.13269856405801D+03

 The electronic state is 1-A.
 Alpha  occ. eigenvalues --  -14.84395 -10.66508 -10.64978  -1.04227  -0.90570
 Alpha  occ. eigenvalues --   -0.61426  -0.55538  -0.53893  -0.44946  -0.39522
 Alpha  occ. eigenvalues --   -0.39331
 Alpha virt. eigenvalues --    0.03920   0.08055   0.08995   0.10037   0.11115
 Alpha virt. eigenvalues --    0.11558   0.15446   0.16030   0.17649   0.19997
 Alpha virt. eigenvalues --    0.20286   0.25178   0.32966   0.35375   0.35972

 Mulliken charges:
               1
     1  C   -0.047336
     2  C    0.007517
     3  N   -0.205496
     4  H    0.085764
     5  H    0.083305
     6  H    0.076247
 Sum of Mulliken charges =   0.00000

 Dipole moment (field-independent basis, Debye):
    X=              4.1520    Y=              0.0247    Z=              0.0591  Tot=              4.1525
 Quadrupole moment (field-independent basis, Debye-Ang):
   XX=            -20.4851   YY=            -17.6125   ZZ=            -17.9361
   XY=             -0.2725   XZ=             -0.0406   YZ=              0.0136

 Normal termination of Gaussian 09 at Wed Aug 26 19:33:06 2020.
