 Gaussian 09, Revision D.01,
 Gaussian 09:  ES64L-G09RevD.01 24-Apr-2013

 --------------------
 #p B2PLYPD3/Def2QZVP
 --------------------

 ------------
 cyanomethane
 ------------
 Symbolic Z-matrix:
 Charge =  0 Multiplicity = 1

                         Standard orientation:
 ---------------------------------------------------------------------
 Center     Atomic      Atomic             Coordinates (Angstroms)
 Number     Number       Type             X           Y           Z
 ---------------------------------------------------------------------
      1          6           0       -1.195692   -0.036961    0.021481
      2          6           0        0.266514    0.045870   -0.051790
      3          7           0        1.440582   -0.021909    0.019517
      4          1           0       -1.560970   -0.811791   -0.675820
      5          1           0       -1.507902    1.059224   -0.348245
      6          1           0       -1.440133   -0.147522    1.069302
 ---------------------------------------------------------------------

 SCF Done:  E(RB2PLYPD3) =  -132.520963159     A.U. after   12 cycles
 E2(B2PLYPD3) =    -0.1833457281D+00 E(B2PLYPD3) =    -0.13270430888691D+03

 The electronic state is 1-A.
 Alpha  occ. eigenvalues --  -14.84674 -10.68549 -10.66803  -1.03074  -0.88613
 Alpha  occ. eigenvalues --   -0.58280  -0.55288  -0.52106  -0.44635  -0.38544
 Alpha  occ. eigenvalues --   -0.37972
 Alpha virt. eigenvalues --    0.03378   0.06957   0.07468   0.09950   0.10967
 Alpha virt. eigenvalues --    0.11384   0.14812   0.15116   0.16465   0.20165
 Alpha virt. eigenvalues --    0.20191   0.25456   0.30938   0.33079   0.35101

 Mulliken charges:
               1
     1  C   -0.118548
     2  C    0.007200
     3  N   -0.218444
     4  H    0.114768
     5  H    0.097540
     6  H    0.117485
 Sum of Mulliken charges =   0.00000

 Dipole moment (field-independent basis, Debye):
    X=             -4.0953    Y=              0.0211    Z=             -0.0104  Tot=              4.0954
 Quadrupole moment (field-independent basis, Debye-Ang):
   XX=            -21.6300   YY=            -17.7950   ZZ=            -17.6892
   XY=              0.1472   XZ=             -0.0219   YZ=              0.0935

 Normal termination of Gaussian 09 at Wed Aug 26 22:37:26 2020.
