 Gaussian 09, Revision D.01,
 Gaussian 09:  ES64L-G09RevD.01 24-Apr-2013

 --------------------
 #p B2PLYPD3/Def2QZVP
 --------------------

 ------------
 cyanomethane
 ------------
 Symbolic Z-matrix:
 Charge =  0 Multiplicity = 1

                         Standard orientation:
 ---------------------------------------------------------------------
 Center     Atomic      Atomic             Coordinates (Angstroms)
 Number     Number       Type             X           Y           Z
 ---------------------------------------------------------------------
      1          6           0        1.170684    0.000612   -0.006098
      2          6           0       -0.270824   -0.011757   -0.017112
      3          7           0       -1.434539    0.010073    0.010419
      4          1           0        1.512084   -0.487710   -0.867261
      5          1           0        1.528688   -0.544159    0.880716
      6          1           0        1.601841    1.028226    0.052866
 ---------------------------------------------------------------------

 SCF Done:  E(RB2PLYPD3) =  -132.532503629     A.U. after   12 cycles
 E2(B2PLYPD3) =    -0.1813251957D+00 E(B2PLYPD3) =    -0.13271382882479D+03

 The electronic state is 1-A.
 Alpha  occ. eigenvalues --  -14.84450 -10.66935 -10.66474  -1.03776  -0.89619
 Alpha  occ. eigenvalues --   -0.60086  -0.54854  -0.53246  -0.44847  -0.38847
 Alpha  occ. eigenvalues --   -0.38666
 Alpha virt. eigenvalues --    0.03711   0.07255   0.08111   0.10124   0.11278
 Alpha virt. eigenvalues --    0.11573   0.15507   0.15926   0.16692   0.20104
 Alpha virt. eigenvalues --    0.20200   0.25635   0.32754   0.34179   0.34971

 Mulliken charges:
               1
     1  C   -0.081123
     2  C    0.000813
     3  N   -0.211044
     4  H    0.100331
     5  H    0.095361
     6  H    0.095663
 Sum of Mulliken charges =   0.00000

 Dipole moment (field-independent basis, Debye):
    X=              4.1379    Y=             -0.0293    Z=             -0.0109  Tot=              4.1380
 Quadrupole moment (field-independent basis, Debye-Ang):
   XX=            -20.9858   YY=            -17.7645   ZZ=            -17.7800
   XY=              0.0872   XZ=              0.0807   YZ=              0.0420

 Normal termination of Gaussian 09 at Wed Aug 26 15:25:43 2020.
