 Gaussian 09, Revision D.01,
 Gaussian 09:  ES64L-G09RevD.01 24-Apr-2013

 --------------------
 #p B2PLYPD3/Def2QZVP
 --------------------

 ------------
 cyanomethane
 ------------
 Symbolic Z-matrix:
 Charge =  0 Multiplicity = 1

                         Standard orientation:
 ---------------------------------------------------------------------
 Center     Atomic      Atomic             Coordinates (Angstroms)
 Number     Number       Type             X           Y           Z
 ---------------------------------------------------------------------
      1          6           0       -1.175523    0.002452   -0.048206
      2          6           0        0.276167    0.066151    0.021299
      3          7           0        1.413860   -0.023725   -0.000472
      4          1           0       -1.530317   -0.421433    0.974628
      5          1           0       -1.340843   -0.746994   -0.688874
      6          1           0       -1.629723    0.922880   -0.120999
 ---------------------------------------------------------------------

 SCF Done:  E(RB2PLYPD3) =  -132.520033397     A.U. after   12 cycles
 E2(B2PLYPD3) =    -0.1793457720D+00 E(B2PLYPD3) =    -0.13269937916919D+03

 The electronic state is 1-A.
 Alpha  occ. eigenvalues --  -14.83627 -10.66310 -10.65665  -1.04609  -0.90206
 Alpha  occ. eigenvalues --   -0.59552  -0.57892  -0.51895  -0.44585  -0.39664
 Alpha  occ. eigenvalues --   -0.38789
 Alpha virt. eigenvalues --    0.03692   0.07886   0.08965   0.10266   0.11145
 Alpha virt. eigenvalues --    0.12153   0.15188   0.15826   0.16897   0.19858
 Alpha virt. eigenvalues --    0.20209   0.25643   0.31871   0.33663   0.36853

 Mulliken charges:
               1
     1  C   -0.089848
     2  C   -0.002606
     3  N   -0.202773
     4  H    0.080369
     5  H    0.110772
     6  H    0.104085
 Sum of Mulliken charges =   0.00000

 Dipole moment (field-independent basis, Debye):
    X=             -4.0883    Y=              0.0105    Z=              0.0299  Tot=              4.0884
 Quadrupole moment (field-independent basis, Debye-Ang):
   XX=            -21.1161   YY=            -17.4012   ZZ=            -17.8705
   XY=             -0.0113   XZ=             -0.1897   YZ=              0.1374

 Normal termination of Gaussian 09 at Wed Aug 26 23:54:03 2020.
