 Gaussian 09, Revision D.01,
 Gaussian 09:  ES64L-G09RevD.01 24-Apr-2013

 --------------------
 #p B2PLYPD3/Def2QZVP
 --------------------

 ------------
 cyanomethane
 ------------
 Symbolic Z-matrix:
 Charge =  0 Multiplicity = 1

                         Standard orientation:
 ---------------------------------------------------------------------
 Center     Atomic      Atomic             Coordinates (Angstroms)
 Number     Number       Type             X           Y           Z
 ---------------------------------------------------------------------
      1          6           0       -1.180898   -0.033456   -0.021748
      2          6           0        0.272132   -0.018575    0.054813
      3          7           0        1.429499    0.009051   -0.029421
      4          1           0       -1.502898    0.847329   -0.612189
      5          1           0       -1.467209    0.242402    0.963237
      6          1           0       -1.583790   -0.840904   -0.343491
 ---------------------------------------------------------------------

 SCF Done:  E(RB2PLYPD3) =  -132.517702378     A.U. after   12 cycles
 E2(B2PLYPD3) =    -0.1807426003D+00 E(B2PLYPD3) =    -0.13269844497821D+03

 The electronic state is 1-A.
 Alpha  occ. eigenvalues --  -14.84300 -10.66370 -10.65695  -1.03890  -0.90591
 Alpha  occ. eigenvalues --   -0.61184  -0.56518  -0.53027  -0.44773  -0.39219
 Alpha  occ. eigenvalues --   -0.38558
 Alpha virt. eigenvalues --    0.03754   0.07998   0.08721   0.09962   0.11057
 Alpha virt. eigenvalues --    0.11669   0.15270   0.15565   0.17434   0.20065
 Alpha virt. eigenvalues --    0.20235   0.25594   0.33018   0.33727   0.35927

 Mulliken charges:
               1
     1  C   -0.079562
     2  C    0.004870
     3  N   -0.211503
     4  H    0.090251
     5  H    0.091940
     6  H    0.104004
 Sum of Mulliken charges =   0.00000

 Dipole moment (field-independent basis, Debye):
    X=             -4.1280    Y=              0.0277    Z=              0.0668  Tot=              4.1286
 Quadrupole moment (field-independent basis, Debye-Ang):
   XX=            -20.9571   YY=            -17.5875   ZZ=            -17.8103
   XY=             -0.0763   XZ=              0.1552   YZ=              0.1173

 Normal termination of Gaussian 09 at Wed Aug 26 20:20:01 2020.
