 Gaussian 09, Revision D.01,
 Gaussian 09:  ES64L-G09RevD.01 24-Apr-2013

 --------------------
 #p B2PLYPD3/Def2QZVP
 --------------------

 ------------
 cyanomethane
 ------------
 Symbolic Z-matrix:
 Charge =  0 Multiplicity = 1

                         Standard orientation:
 ---------------------------------------------------------------------
 Center     Atomic      Atomic             Coordinates (Angstroms)
 Number     Number       Type             X           Y           Z
 ---------------------------------------------------------------------
      1          6           0        1.171484    0.016152    0.013482
      2          6           0       -0.273067    0.005756   -0.039504
      3          7           0       -1.440653   -0.004865    0.018242
      4          1           0        1.565343    1.040573   -0.077701
      5          1           0        1.575706   -0.649717   -0.825878
      6          1           0        1.553021   -0.488248    0.932015
 ---------------------------------------------------------------------

 SCF Done:  E(RB2PLYPD3) =  -132.529902755     A.U. after   12 cycles
 E2(B2PLYPD3) =    -0.1822685144D+00 E(B2PLYPD3) =    -0.13271217126894D+03

 The electronic state is 1-A.
 Alpha  occ. eigenvalues --  -14.84659 -10.67986 -10.66714  -1.03608  -0.88787
 Alpha  occ. eigenvalues --   -0.59825  -0.54291  -0.52150  -0.44916  -0.38789
 Alpha  occ. eigenvalues --   -0.38404
 Alpha virt. eigenvalues --    0.03539   0.06903   0.07349   0.10071   0.11192
 Alpha virt. eigenvalues --    0.11691   0.15379   0.15883   0.16798   0.20072
 Alpha virt. eigenvalues --    0.20212   0.25647   0.32266   0.33550   0.34749

 Mulliken charges:
               1
     1  C   -0.089734
     2  C    0.004387
     3  N   -0.211598
     4  H    0.104858
     5  H    0.092882
     6  H    0.099205
 Sum of Mulliken charges =   0.00000

 Dipole moment (field-independent basis, Debye):
    X=              4.1307    Y=             -0.0211    Z=             -0.0143  Tot=              4.1308
 Quadrupole moment (field-independent basis, Debye-Ang):
   XX=            -21.0571   YY=            -17.6609   ZZ=            -18.0207
   XY=             -0.1022   XZ=              0.1011   YZ=             -0.0395

 Normal termination of Gaussian 09 at Wed Aug 26 10:31:36 2020.
