 Gaussian 09, Revision D.01,
 Gaussian 09:  ES64L-G09RevD.01 24-Apr-2013

 --------------------
 #p B2PLYPD3/Def2QZVP
 --------------------

 ------------
 cyanomethane
 ------------
 Symbolic Z-matrix:
 Charge =  0 Multiplicity = 1

                         Standard orientation:
 ---------------------------------------------------------------------
 Center     Atomic      Atomic             Coordinates (Angstroms)
 Number     Number       Type             X           Y           Z
 ---------------------------------------------------------------------
      1          6           0       -1.182395    0.003419    0.010379
      2          6           0        0.285007    0.001701   -0.034113
      3          7           0        1.425807   -0.003269    0.016442
      4          1           0       -1.527878   -0.084000    1.026148
      5          1           0       -1.557789   -0.863333   -0.568613
      6          1           0       -1.510651    0.939498   -0.430224
 ---------------------------------------------------------------------

 SCF Done:  E(RB2PLYPD3) =  -132.535479156     A.U. after   11 cycles
 E2(B2PLYPD3) =    -0.1793971319D+00 E(B2PLYPD3) =    -0.13271487628836D+03

 The electronic state is 1-A.
 Alpha  occ. eigenvalues --  -14.83757 -10.67214 -10.65806  -1.04550  -0.89037
 Alpha  occ. eigenvalues --   -0.59023  -0.54381  -0.53685  -0.44645  -0.39390
 Alpha  occ. eigenvalues --   -0.39323
 Alpha virt. eigenvalues --    0.03754   0.08089   0.08422   0.10195   0.11498
 Alpha virt. eigenvalues --    0.11603   0.15338   0.15974   0.16492   0.20016
 Alpha virt. eigenvalues --    0.20051   0.25233   0.32742   0.34438   0.34810

 Mulliken charges:
               1
     1  C   -0.093570
     2  C   -0.005514
     3  N   -0.199963
     4  H    0.100911
     5  H    0.097284
     6  H    0.100853
 Sum of Mulliken charges =   0.00000

 Dipole moment (field-independent basis, Debye):
    X=             -4.0949    Y=              0.0048    Z=             -0.0152  Tot=              4.0949
 Quadrupole moment (field-independent basis, Debye-Ang):
   XX=            -21.1435   YY=            -17.6321   ZZ=            -17.7090
   XY=              0.0564   XZ=             -0.1095   YZ=             -0.0237

 Normal termination of Gaussian 09 at Wed Aug 26 11:44:39 2020.
