 Gaussian 09, Revision D.01,
 Gaussian 09:  ES64L-G09RevD.01 24-Apr-2013

 --------------------
 #p B2PLYPD3/Def2QZVP
 --------------------

 ------------
 cyanomethane
 ------------
 Symbolic Z-matrix:
 Charge =  0 Multiplicity = 1

                         Standard orientation:
 ---------------------------------------------------------------------
 Center     Atomic      Atomic             Coordinates (Angstroms)
 Number     Number       Type             X           Y           Z
 ---------------------------------------------------------------------
      1          6           0       -1.183634    0.000213    0.003930
      2          6           0        0.283070    0.021057   -0.000240
      3          7           0        1.433504   -0.006880   -0.001843
      4          1           0       -1.506826   -0.309984    0.945013
      5          1           0       -1.519921   -0.739327   -0.712833
      6          1           0       -1.604396    0.969852   -0.241419
 ---------------------------------------------------------------------

 SCF Done:  E(RB2PLYPD3) =  -132.534685590     A.U. after   12 cycles
 E2(B2PLYPD3) =    -0.1798953455D+00 E(B2PLYPD3) =    -0.13271458093579D+03

 The electronic state is 1-A.
 Alpha  occ. eigenvalues --  -14.84063 -10.66619 -10.66143  -1.04233  -0.89530
 Alpha  occ. eigenvalues --   -0.59664  -0.54692  -0.53988  -0.44735  -0.39288
 Alpha  occ. eigenvalues --   -0.39160
 Alpha virt. eigenvalues --    0.03842   0.08086   0.08473   0.10228   0.11316
 Alpha virt. eigenvalues --    0.11509   0.15383   0.16096   0.16608   0.20038
 Alpha virt. eigenvalues --    0.20112   0.25177   0.32742   0.34677   0.35263

 Mulliken charges:
               1
     1  C   -0.079966
     2  C   -0.003250
     3  N   -0.204810
     4  H    0.097248
     5  H    0.094711
     6  H    0.096068
 Sum of Mulliken charges =   0.00000

 Dipole moment (field-independent basis, Debye):
    X=             -4.1321    Y=             -0.0125    Z=              0.0149  Tot=              4.1322
 Quadrupole moment (field-independent basis, Debye-Ang):
   XX=            -20.9597   YY=            -17.6499   ZZ=            -17.7852
   XY=              0.0196   XZ=              0.0095   YZ=             -0.0239

 Normal termination of Gaussian 09 at Wed Aug 26 23:54:54 2020.
