 Gaussian 09, Revision D.01,
 Gaussian 09:  ES64L-G09RevD.01 24-Apr-2013

 --------------------
 #p B2PLYPD3/Def2QZVP
 --------------------

 ------------
 cyanomethane
 ------------
 Symbolic Z-matrix:
 Charge =  0 Multiplicity = 1

                         Standard orientation:
 ---------------------------------------------------------------------
 Center     Atomic      Atomic             Coordinates (Angstroms)
 Number     Number       Type             X           Y           Z
 ---------------------------------------------------------------------
      1          6           0       -1.144393    0.021405    0.015449
      2          6           0        0.258920   -0.081682   -0.005121
      3          7           0        1.433005    0.042149   -0.000006
      4          1           0       -1.555907   -0.203609    0.975063
      5          1           0       -1.559122   -0.737599   -0.709941
      6          1           0       -1.603176    1.007830   -0.327051
 ---------------------------------------------------------------------

 SCF Done:  E(RB2PLYPD3) =  -132.524120475     A.U. after   13 cycles
 E2(B2PLYPD3) =    -0.1834681233D+00 E(B2PLYPD3) =    -0.13270758859876D+03

 The electronic state is 1-A.
 Alpha  occ. eigenvalues --  -14.85066 -10.67289 -10.66923  -1.03379  -0.89618
 Alpha  occ. eigenvalues --   -0.61197  -0.54128  -0.52428  -0.45138  -0.38377
 Alpha  occ. eigenvalues --   -0.38032
 Alpha virt. eigenvalues --    0.03321   0.06215   0.07213   0.09798   0.11329
 Alpha virt. eigenvalues --    0.11735   0.15634   0.15802   0.17367   0.20144
 Alpha virt. eigenvalues --    0.20362   0.26606   0.32689   0.33791   0.34670

 Mulliken charges:
               1
     1  C   -0.075928
     2  C    0.010380
     3  N   -0.215767
     4  H    0.098060
     5  H    0.088147
     6  H    0.095108
 Sum of Mulliken charges =   0.00000

 Dipole moment (field-independent basis, Debye):
    X=             -4.1246    Y=             -0.0624    Z=              0.0006  Tot=              4.1251
 Quadrupole moment (field-independent basis, Debye-Ang):
   XX=            -20.8269   YY=            -17.9180   ZZ=            -17.8736
   XY=             -0.2256   XZ=              0.0208   YZ=             -0.0348

 Normal termination of Gaussian 09 at Wed Aug 26 22:53:54 2020.
