 Gaussian 09, Revision D.01,
 Gaussian 09:  ES64L-G09RevD.01 24-Apr-2013

 --------------------
 #p B2PLYPD3/Def2QZVP
 --------------------

 ------------
 cyanomethane
 ------------
 Symbolic Z-matrix:
 Charge =  0 Multiplicity = 1

                         Standard orientation:
 ---------------------------------------------------------------------
 Center     Atomic      Atomic             Coordinates (Angstroms)
 Number     Number       Type             X           Y           Z
 ---------------------------------------------------------------------
      1          6           0        1.200627   -0.003571    0.028884
      2          6           0       -0.296622    0.024598   -0.026962
      3          7           0       -1.437205   -0.005373    0.001375
      4          1           0        1.599159   -0.632369   -0.839422
      5          1           0        1.380372   -0.454470    0.924475
      6          1           0        1.656877    0.998290   -0.106209
 ---------------------------------------------------------------------

 SCF Done:  E(RB2PLYPD3) =  -132.527582702     A.U. after   12 cycles
 E2(B2PLYPD3) =    -0.1794917745D+00 E(B2PLYPD3) =    -0.13270707447688D+03

 The electronic state is 1-A.
 Alpha  occ. eigenvalues --  -14.83786 -10.67565 -10.65956  -1.04540  -0.88702
 Alpha  occ. eigenvalues --   -0.58459  -0.55758  -0.52091  -0.44601  -0.39660
 Alpha  occ. eigenvalues --   -0.39316
 Alpha virt. eigenvalues --    0.03678   0.07748   0.08854   0.10352   0.11270
 Alpha virt. eigenvalues --    0.11638   0.14909   0.15994   0.16619   0.19949
 Alpha virt. eigenvalues --    0.20070   0.24641   0.31993   0.33625   0.35781

 Mulliken charges:
               1
     1  C   -0.097919
     2  C   -0.006895
     3  N   -0.199147
     4  H    0.092394
     5  H    0.112649
     6  H    0.098918
 Sum of Mulliken charges =   0.00000

 Dipole moment (field-independent basis, Debye):
    X=              4.1211    Y=              0.0025    Z=             -0.0042  Tot=              4.1211
 Quadrupole moment (field-independent basis, Debye-Ang):
   XX=            -21.0823   YY=            -17.7517   ZZ=            -17.6944
   XY=              0.0841   XZ=             -0.1881   YZ=             -0.1148

 Normal termination of Gaussian 09 at Wed Aug 26 23:21:02 2020.
