 Gaussian 09, Revision D.01,
 Gaussian 09:  ES64L-G09RevD.01 24-Apr-2013

 --------------------
 #p B2PLYPD3/Def2QZVP
 --------------------

 ------------
 cyanomethane
 ------------
 Symbolic Z-matrix:
 Charge =  0 Multiplicity = 1

                         Standard orientation:
 ---------------------------------------------------------------------
 Center     Atomic      Atomic             Coordinates (Angstroms)
 Number     Number       Type             X           Y           Z
 ---------------------------------------------------------------------
      1          6           0       -1.189562   -0.006372    0.020413
      2          6           0        0.284260   -0.019573    0.031747
      3          7           0        1.417783    0.013785   -0.027059
      4          1           0       -1.551224   -0.719077   -0.748192
      5          1           0       -1.566343    1.015397   -0.305581
      6          1           0       -1.375100   -0.237149    0.930226
 ---------------------------------------------------------------------

 SCF Done:  E(RB2PLYPD3) =  -132.516864087     A.U. after   12 cycles
 E2(B2PLYPD3) =    -0.1788197433D+00 E(B2PLYPD3) =    -0.13269568382993D+03

 The electronic state is 1-A.
 Alpha  occ. eigenvalues --  -14.83474 -10.66532 -10.65480  -1.04763  -0.90017
 Alpha  occ. eigenvalues --   -0.58234  -0.57377  -0.52587  -0.44498  -0.39715
 Alpha  occ. eigenvalues --   -0.39286
 Alpha virt. eigenvalues --    0.03669   0.07713   0.09759   0.10309   0.11177
 Alpha virt. eigenvalues --    0.11837   0.15215   0.15564   0.16650   0.19940
 Alpha virt. eigenvalues --    0.20115   0.25034   0.32589   0.33599   0.35787

 Mulliken charges:
               1
     1  C   -0.108057
     2  C   -0.010150
     3  N   -0.197590
     4  H    0.099670
     5  H    0.097504
     6  H    0.118623
 Sum of Mulliken charges =   0.00000

 Dipole moment (field-independent basis, Debye):
    X=             -4.0697    Y=             -0.0233    Z=              0.0266  Tot=              4.0699
 Quadrupole moment (field-independent basis, Debye-Ang):
   XX=            -21.2414   YY=            -17.6642   ZZ=            -17.4895
   XY=             -0.1252   XZ=              0.3314   YZ=             -0.0483

 Normal termination of Gaussian 09 at Wed Aug 26 21:42:39 2020.
