 Gaussian 09, Revision D.01,
 Gaussian 09:  ES64L-G09RevD.01 24-Apr-2013

 --------------------
 #p B2PLYPD3/Def2QZVP
 --------------------

 ------------
 cyanomethane
 ------------
 Symbolic Z-matrix:
 Charge =  0 Multiplicity = 1

                         Standard orientation:
 ---------------------------------------------------------------------
 Center     Atomic      Atomic             Coordinates (Angstroms)
 Number     Number       Type             X           Y           Z
 ---------------------------------------------------------------------
      1          6           0        1.174085    0.000631   -0.015040
      2          6           0       -0.266888    0.041265   -0.038223
      3          7           0       -1.420822   -0.021815    0.025233
      4          1           0        1.556431   -0.416883    0.891707
      5          1           0        1.489364    0.919424   -0.042781
      6          1           0        1.456781   -0.601214   -0.705981
 ---------------------------------------------------------------------

 SCF Done:  E(RB2PLYPD3) =  -132.509467019     A.U. after   12 cycles
 E2(B2PLYPD3) =    -0.1798945686D+00 E(B2PLYPD3) =    -0.13268936158813D+03

 The electronic state is 1-A.
 Alpha  occ. eigenvalues --  -14.84160 -10.66087 -10.64121  -1.04066  -0.91878
 Alpha  occ. eigenvalues --   -0.60653  -0.58868  -0.53934  -0.44741  -0.39283
 Alpha  occ. eigenvalues --   -0.38811
 Alpha virt. eigenvalues --    0.03910   0.08260   0.09499   0.10148   0.10906
 Alpha virt. eigenvalues --    0.11622   0.15740   0.16005   0.16573   0.20044
 Alpha virt. eigenvalues --    0.20233   0.25735   0.33381   0.34706   0.36855

 Mulliken charges:
               1
     1  C   -0.064791
     2  C    0.000545
     3  N   -0.210594
     4  H    0.079247
     5  H    0.096682
     6  H    0.098911
 Sum of Mulliken charges =   0.00000

 Dipole moment (field-independent basis, Debye):
    X=              4.1296    Y=              0.0152    Z=             -0.0151  Tot=              4.1297
 Quadrupole moment (field-independent basis, Debye-Ang):
   XX=            -20.8073   YY=            -17.4730   ZZ=            -17.7432
   XY=             -0.1577   XZ=              0.2548   YZ=              0.1089

 Normal termination of Gaussian 09 at Wed Aug 26 22:14:34 2020.
