 Gaussian 09, Revision D.01,
 Gaussian 09:  ES64L-G09RevD.01 24-Apr-2013

 --------------------
 #p B2PLYPD3/Def2QZVP
 --------------------

 ------------
 cyanomethane
 ------------
 Symbolic Z-matrix:
 Charge =  0 Multiplicity = 1

                         Standard orientation:
 ---------------------------------------------------------------------
 Center     Atomic      Atomic             Coordinates (Angstroms)
 Number     Number       Type             X           Y           Z
 ---------------------------------------------------------------------
      1          6           0       -1.177785   -0.001136    0.005376
      2          6           0        0.282920    0.020441   -0.007106
      3          7           0        1.425645   -0.010749    0.002129
      4          1           0       -1.522804   -0.188816    0.995323
      5          1           0       -1.547052   -0.814404   -0.647978
      6          1           0       -1.540473    0.962635   -0.351862
 ---------------------------------------------------------------------

 SCF Done:  E(RB2PLYPD3) =  -132.535780997     A.U. after   11 cycles
 E2(B2PLYPD3) =    -0.1794456000D+00 E(B2PLYPD3) =    -0.13271522659742D+03

 The electronic state is 1-A.
 Alpha  occ. eigenvalues --  -14.83806 -10.67050 -10.65845  -1.04526  -0.89215
 Alpha  occ. eigenvalues --   -0.59334  -0.54440  -0.53681  -0.44682  -0.39365
 Alpha  occ. eigenvalues --   -0.39275
 Alpha virt. eigenvalues --    0.03776   0.08055   0.08385   0.10201   0.11497
 Alpha virt. eigenvalues --    0.11638   0.15403   0.16181   0.16416   0.20012
 Alpha virt. eigenvalues --    0.20077   0.25306   0.32830   0.34420   0.34912

 Mulliken charges:
               1
     1  C   -0.089212
     2  C   -0.004825
     3  N   -0.200672
     4  H    0.099406
     5  H    0.096665
     6  H    0.098638
 Sum of Mulliken charges =   0.00000

 Dipole moment (field-independent basis, Debye):
    X=             -4.1025    Y=              0.0097    Z=              0.0083  Tot=              4.1025
 Quadrupole moment (field-independent basis, Debye-Ang):
   XX=            -21.0803   YY=            -17.6352   ZZ=            -17.7290
   XY=              0.0806   XZ=             -0.0205   YZ=             -0.0241

 Normal termination of Gaussian 09 at Thu Aug 27 00:13:04 2020.
