 Gaussian 09, Revision D.01,
 Gaussian 09:  ES64L-G09RevD.01 24-Apr-2013

 --------------------
 #p B2PLYPD3/Def2QZVP
 --------------------

 ------------
 cyanomethane
 ------------
 Symbolic Z-matrix:
 Charge =  0 Multiplicity = 1

                         Standard orientation:
 ---------------------------------------------------------------------
 Center     Atomic      Atomic             Coordinates (Angstroms)
 Number     Number       Type             X           Y           Z
 ---------------------------------------------------------------------
      1          6           0        1.180332   -0.025771    0.012578
      2          6           0       -0.290237    0.061881   -0.048382
      3          7           0       -1.408188   -0.020086    0.023076
      4          1           0        1.409663   -0.944163   -0.564991
      5          1           0        1.480979   -0.079865    1.066714
      6          1           0        1.626105    0.947972   -0.448429
 ---------------------------------------------------------------------

 SCF Done:  E(RB2PLYPD3) =  -132.528369409     A.U. after   12 cycles
 E2(B2PLYPD3) =    -0.1784523544D+00 E(B2PLYPD3) =    -0.13270682176322D+03

 The electronic state is 1-A.
 Alpha  occ. eigenvalues --  -14.83117 -10.68242 -10.65125  -1.05262  -0.88209
 Alpha  occ. eigenvalues --   -0.57757  -0.54343  -0.52666  -0.44468  -0.39761
 Alpha  occ. eigenvalues --   -0.39570
 Alpha virt. eigenvalues --    0.03520   0.07848   0.08468   0.10192   0.11802
 Alpha virt. eigenvalues --    0.11881   0.15121   0.15818   0.16358   0.19866
 Alpha virt. eigenvalues --    0.19996   0.25451   0.31939   0.34221   0.34350

 Mulliken charges:
               1
     1  C   -0.118952
     2  C   -0.008646
     3  N   -0.188675
     4  H    0.111401
     5  H    0.107852
     6  H    0.097021
 Sum of Mulliken charges =   0.00000

 Dipole moment (field-independent basis, Debye):
    X=              4.0078    Y=              0.0235    Z=             -0.0140  Tot=              4.0079
 Quadrupole moment (field-independent basis, Debye-Ang):
   XX=            -21.4676   YY=            -17.5153   ZZ=            -17.6403
   XY=              0.0372   XZ=              0.1812   YZ=              0.0853

 Normal termination of Gaussian 09 at Wed Aug 26 19:55:38 2020.
