 Gaussian 09, Revision D.01,
 Gaussian 09:  ES64L-G09RevD.01 24-Apr-2013

 --------------------
 #p B2PLYPD3/Def2QZVP
 --------------------

 ------------
 cyanomethane
 ------------
 Symbolic Z-matrix:
 Charge =  0 Multiplicity = 1

                         Standard orientation:
 ---------------------------------------------------------------------
 Center     Atomic      Atomic             Coordinates (Angstroms)
 Number     Number       Type             X           Y           Z
 ---------------------------------------------------------------------
      1          6           0       -1.187246   -0.008912    0.001197
      2          6           0        0.284916    0.022557    0.001345
      3          7           0        1.435298   -0.007948   -0.003033
      4          1           0       -1.498867   -0.461450    0.900746
      5          1           0       -1.547083   -0.576234   -0.831633
      6          1           0       -1.587152    1.011449   -0.063130
 ---------------------------------------------------------------------

 SCF Done:  E(RB2PLYPD3) =  -132.535077907     A.U. after   12 cycles
 E2(B2PLYPD3) =    -0.1799389372D+00 E(B2PLYPD3) =    -0.13271501684383D+03

 The electronic state is 1-A.
 Alpha  occ. eigenvalues --  -14.84068 -10.66800 -10.66158  -1.04216  -0.89339
 Alpha  occ. eigenvalues --   -0.59447  -0.54676  -0.53863  -0.44722  -0.39264
 Alpha  occ. eigenvalues --   -0.39210
 Alpha virt. eigenvalues --    0.03826   0.08082   0.08446   0.10225   0.11365
 Alpha virt. eigenvalues --    0.11410   0.15323   0.16167   0.16462   0.20056
 Alpha virt. eigenvalues --    0.20081   0.25088   0.32644   0.34758   0.35099

 Mulliken charges:
               1
     1  C   -0.082461
     2  C   -0.003853
     3  N   -0.204556
     4  H    0.099220
     5  H    0.097159
     6  H    0.094490
 Sum of Mulliken charges =   0.00000

 Dipole moment (field-independent basis, Debye):
    X=             -4.1304    Y=             -0.0009    Z=              0.0085  Tot=              4.1304
 Quadrupole moment (field-independent basis, Debye-Ang):
   XX=            -20.9949   YY=            -17.7084   ZZ=            -17.7316
   XY=              0.0200   XZ=              0.0472   YZ=             -0.0104

 Normal termination of Gaussian 09 at Thu Aug 27 00:11:18 2020.
