 Gaussian 09, Revision D.01,
 Gaussian 09:  ES64L-G09RevD.01 24-Apr-2013

 --------------------
 #p B2PLYPD3/Def2QZVP
 --------------------

 ------------
 cyanomethane
 ------------
 Symbolic Z-matrix:
 Charge =  0 Multiplicity = 1

                         Standard orientation:
 ---------------------------------------------------------------------
 Center     Atomic      Atomic             Coordinates (Angstroms)
 Number     Number       Type             X           Y           Z
 ---------------------------------------------------------------------
      1          6           0        1.182924   -0.001261   -0.003580
      2          6           0       -0.278008    0.027943    0.004601
      3          7           0       -1.436056   -0.014868   -0.003472
      4          1           0        1.539430    0.998683   -0.164158
      5          1           0        1.559225   -0.677195   -0.772832
      6          1           0        1.524241   -0.377501    0.955167
 ---------------------------------------------------------------------

 SCF Done:  E(RB2PLYPD3) =  -132.534932107     A.U. after   12 cycles
 E2(B2PLYPD3) =    -0.1807642981D+00 E(B2PLYPD3) =    -0.13271569640535D+03

 The electronic state is 1-A.
 Alpha  occ. eigenvalues --  -14.84281 -10.67004 -10.66349  -1.03914  -0.89340
 Alpha  occ. eigenvalues --   -0.59529  -0.54629  -0.53702  -0.44759  -0.39016
 Alpha  occ. eigenvalues --   -0.38909
 Alpha virt. eigenvalues --    0.03759   0.07767   0.08187   0.10163   0.11244
 Alpha virt. eigenvalues --    0.11482   0.15368   0.15987   0.16474   0.20065
 Alpha virt. eigenvalues --    0.20156   0.25303   0.32713   0.34482   0.34905

 Mulliken charges:
               1
     1  C   -0.085129
     2  C   -0.001635
     3  N   -0.208576
     4  H    0.099851
     5  H    0.097931
     6  H    0.097558
 Sum of Mulliken charges =   0.00000

 Dipole moment (field-independent basis, Debye):
    X=              4.1317    Y=              0.0111    Z=              0.0127  Tot=              4.1318
 Quadrupole moment (field-independent basis, Debye-Ang):
   XX=            -21.0563   YY=            -17.6765   ZZ=            -17.8031
   XY=             -0.1109   XZ=             -0.0249   YZ=             -0.0096

 Normal termination of Gaussian 09 at Wed Aug 26 09:42:08 2020.
