 Gaussian 09, Revision D.01,
 Gaussian 09:  ES64L-G09RevD.01 24-Apr-2013

 --------------------
 #p B2PLYPD3/Def2QZVP
 --------------------

 ------------
 cyanomethane
 ------------
 Symbolic Z-matrix:
 Charge =  0 Multiplicity = 1

                         Standard orientation:
 ---------------------------------------------------------------------
 Center     Atomic      Atomic             Coordinates (Angstroms)
 Number     Number       Type             X           Y           Z
 ---------------------------------------------------------------------
      1          6           0        1.194505    0.012195   -0.001003
      2          6           0       -0.261735   -0.045240   -0.027893
      3          7           0       -1.443796    0.034434    0.010732
      4          1           0        1.408780   -0.875727   -0.600380
      5          1           0        1.435735   -0.156831    1.070410
      6          1           0        1.665439    0.989789   -0.371777
 ---------------------------------------------------------------------

 SCF Done:  E(RB2PLYPD3) =  -132.520873240     A.U. after   13 cycles
 E2(B2PLYPD3) =    -0.1839110066D+00 E(B2PLYPD3) =    -0.13270478424661D+03

 The electronic state is 1-A.
 Alpha  occ. eigenvalues --  -14.84858 -10.68140 -10.67021  -1.02828  -0.89134
 Alpha  occ. eigenvalues --   -0.58556  -0.54524  -0.53249  -0.44666  -0.38152
 Alpha  occ. eigenvalues --   -0.38013
 Alpha virt. eigenvalues --    0.03344   0.06575   0.08055   0.09890   0.11047
 Alpha virt. eigenvalues --    0.11316   0.14578   0.15177   0.16801   0.20198
 Alpha virt. eigenvalues --    0.20357   0.25424   0.32080   0.33634   0.34081

 Mulliken charges:
               1
     1  C   -0.112368
     2  C    0.005442
     3  N   -0.221696
     4  H    0.110562
     5  H    0.109122
     6  H    0.108938
 Sum of Mulliken charges =   0.00000

 Dipole moment (field-independent basis, Debye):
    X=              4.1288    Y=             -0.0526    Z=              0.0095  Tot=              4.1291
 Quadrupole moment (field-independent basis, Debye-Ang):
   XX=            -21.4984   YY=            -17.6822   ZZ=            -17.8673
   XY=              0.3655   XZ=              0.0380   YZ=              0.0181

 Normal termination of Gaussian 09 at Wed Aug 26 22:22:37 2020.
