 Gaussian 09, Revision D.01,
 Gaussian 09:  ES64L-G09RevD.01 24-Apr-2013

 --------------------
 #p B2PLYPD3/Def2QZVP
 --------------------

 ------------
 cyanomethane
 ------------
 Symbolic Z-matrix:
 Charge =  0 Multiplicity = 1

                         Standard orientation:
 ---------------------------------------------------------------------
 Center     Atomic      Atomic             Coordinates (Angstroms)
 Number     Number       Type             X           Y           Z
 ---------------------------------------------------------------------
      1          6           0       -1.175519   -0.008734   -0.000139
      2          6           0        0.274007    0.017933   -0.005232
      3          7           0        1.434662   -0.012642    0.001655
      4          1           0       -1.495791    0.977304   -0.321707
      5          1           0       -1.540249   -0.180863    0.989838
      6          1           0       -1.597521   -0.763143   -0.647497
 ---------------------------------------------------------------------

 SCF Done:  E(RB2PLYPD3) =  -132.534229695     A.U. after   12 cycles
 E2(B2PLYPD3) =    -0.1809201568D+00 E(B2PLYPD3) =    -0.13271514985162D+03

 The electronic state is 1-A.
 Alpha  occ. eigenvalues --  -14.84354 -10.66726 -10.66405  -1.03874  -0.89650
 Alpha  occ. eigenvalues --   -0.60111  -0.54245  -0.54132  -0.44812  -0.38931
 Alpha  occ. eigenvalues --   -0.38831
 Alpha virt. eigenvalues --    0.03808   0.07701   0.08081   0.10128   0.11386
 Alpha virt. eigenvalues --    0.11435   0.15450   0.15860   0.16817   0.20114
 Alpha virt. eigenvalues --    0.20169   0.25509   0.32823   0.34522   0.35012

 Mulliken charges:
               1
     1  C   -0.079396
     2  C    0.000291
     3  N   -0.209984
     4  H    0.096309
     5  H    0.096155
     6  H    0.096624
 Sum of Mulliken charges =   0.00000

 Dipole moment (field-independent basis, Debye):
    X=             -4.1390    Y=              0.0225    Z=              0.0089  Tot=              4.1391
 Quadrupole moment (field-independent basis, Debye-Ang):
   XX=            -20.9703   YY=            -17.7141   ZZ=            -17.7967
   XY=              0.1302   XZ=             -0.0177   YZ=              0.0026

 Normal termination of Gaussian 09 at Wed Aug 26 10:10:13 2020.
