 Gaussian 09, Revision D.01,
 Gaussian 09:  ES64L-G09RevD.01 24-Apr-2013

 --------------------
 #p B2PLYPD3/Def2QZVP
 --------------------

 ------------
 cyanomethane
 ------------
 Symbolic Z-matrix:
 Charge =  0 Multiplicity = 1

                         Standard orientation:
 ---------------------------------------------------------------------
 Center     Atomic      Atomic             Coordinates (Angstroms)
 Number     Number       Type             X           Y           Z
 ---------------------------------------------------------------------
      1          6           0       -1.184501    0.000457   -0.018390
      2          6           0        0.260333    0.041876   -0.041430
      3          7           0        1.431456   -0.028292    0.017169
      4          1           0       -1.444960    0.952415   -0.348841
      5          1           0       -1.425434   -0.115399    1.119885
      6          1           0       -1.604794   -0.892973   -0.532307
 ---------------------------------------------------------------------

 SCF Done:  E(RB2PLYPD3) =  -132.521961834     A.U. after   12 cycles
 E2(B2PLYPD3) =    -0.1827222313D+00 E(B2PLYPD3) =    -0.13270468406545D+03

 The electronic state is 1-A.
 Alpha  occ. eigenvalues --  -14.84508 -10.67692 -10.66592  -1.03253  -0.89529
 Alpha  occ. eigenvalues --   -0.58684  -0.56180  -0.52398  -0.44635  -0.38558
 Alpha  occ. eigenvalues --   -0.37992
 Alpha virt. eigenvalues --    0.03382   0.06785   0.08382   0.10005   0.10880
 Alpha virt. eigenvalues --    0.11706   0.14956   0.15271   0.16519   0.20089
 Alpha virt. eigenvalues --    0.20327   0.25556   0.32148   0.32711   0.35387

 Mulliken charges:
               1
     1  C   -0.109372
     2  C    0.003382
     3  N   -0.218222
     4  H    0.113284
     5  H    0.100898
     6  H    0.110030
 Sum of Mulliken charges =   0.00000

 Dipole moment (field-independent basis, Debye):
    X=             -4.1096    Y=              0.0275    Z=              0.0054  Tot=              4.1097
 Quadrupole moment (field-independent basis, Debye-Ang):
   XX=            -21.4926   YY=            -17.5444   ZZ=            -17.8732
   XY=              0.2761   XZ=             -0.0463   YZ=             -0.0108

 Normal termination of Gaussian 09 at Wed Aug 26 23:21:56 2020.
