 Gaussian 09, Revision D.01,
 Gaussian 09:  ES64L-G09RevD.01 24-Apr-2013

 --------------------
 #p B2PLYPD3/Def2QZVP
 --------------------

 ------------
 cyanomethane
 ------------
 Symbolic Z-matrix:
 Charge =  0 Multiplicity = 1

                         Standard orientation:
 ---------------------------------------------------------------------
 Center     Atomic      Atomic             Coordinates (Angstroms)
 Number     Number       Type             X           Y           Z
 ---------------------------------------------------------------------
      1          6           0        1.176615    0.008802   -0.001489
      2          6           0       -0.281721    0.011362   -0.013513
      3          7           0       -1.434725   -0.005961    0.009811
      4          1           0        1.586862   -0.348837    0.965815
      5          1           0        1.563958    0.979309   -0.196562
      6          1           0        1.522892   -0.709728   -0.747916
 ---------------------------------------------------------------------

 SCF Done:  E(RB2PLYPD3) =  -132.534719641     A.U. after   12 cycles
 E2(B2PLYPD3) =    -0.1803822298D+00 E(B2PLYPD3) =    -0.13271510187107D+03

 The electronic state is 1-A.
 Alpha  occ. eigenvalues --  -14.84192 -10.67088 -10.66260  -1.04180  -0.89206
 Alpha  occ. eigenvalues --   -0.59899  -0.54651  -0.52997  -0.44816  -0.39227
 Alpha  occ. eigenvalues --   -0.38987
 Alpha virt. eigenvalues --    0.03738   0.07648   0.08196   0.10180   0.11305
 Alpha virt. eigenvalues --    0.11644   0.15421   0.16176   0.16704   0.20029
 Alpha virt. eigenvalues --    0.20136   0.25341   0.32744   0.34187   0.35122

 Mulliken charges:
               1
     1  C   -0.080847
     2  C   -0.000976
     3  N   -0.205228
     4  H    0.092465
     5  H    0.099135
     6  H    0.095452
 Sum of Mulliken charges =   0.00000

 Dipole moment (field-independent basis, Debye):
    X=              4.1294    Y=             -0.0039    Z=             -0.0140  Tot=              4.1295
 Quadrupole moment (field-independent basis, Debye-Ang):
   XX=            -20.9390   YY=            -17.6793   ZZ=            -17.8538
   XY=             -0.0493   XZ=              0.1026   YZ=              0.0009

 Normal termination of Gaussian 09 at Wed Aug 26 10:34:06 2020.
