 Gaussian 09, Revision D.01,
 Gaussian 09:  ES64L-G09RevD.01 24-Apr-2013

 --------------------
 #p B2PLYPD3/Def2QZVP
 --------------------

 ------------
 cyanomethane
 ------------
 Symbolic Z-matrix:
 Charge =  0 Multiplicity = 1

                         Standard orientation:
 ---------------------------------------------------------------------
 Center     Atomic      Atomic             Coordinates (Angstroms)
 Number     Number       Type             X           Y           Z
 ---------------------------------------------------------------------
      1          6           0       -1.171553   -0.014307    0.024298
      2          6           0        0.293041    0.052627   -0.022401
      3          7           0        1.411466   -0.023554    0.006210
      4          1           0       -1.487637   -0.366534    1.013451
      5          1           0       -1.542005   -0.783870   -0.824477
      6          1           0       -1.579547    1.085359   -0.243824
 ---------------------------------------------------------------------

 SCF Done:  E(RB2PLYPD3) =  -132.519258847     A.U. after   12 cycles
 E2(B2PLYPD3) =    -0.1789273460D+00 E(B2PLYPD3) =    -0.13269818619274D+03

 The electronic state is 1-A.
 Alpha  occ. eigenvalues --  -14.83181 -10.69379 -10.65203  -1.05413  -0.87442
 Alpha  occ. eigenvalues --   -0.57952  -0.53279  -0.51479  -0.44580  -0.39800
 Alpha  occ. eigenvalues --   -0.39408
 Alpha virt. eigenvalues --    0.03206   0.07105   0.07893   0.10155   0.11889
 Alpha virt. eigenvalues --    0.12195   0.15221   0.15812   0.16604   0.19844
 Alpha virt. eigenvalues --    0.19989   0.25378   0.31373   0.32292   0.34553

 Mulliken charges:
               1
     1  C   -0.129962
     2  C   -0.002898
     3  N   -0.185168
     4  H    0.114985
     5  H    0.101841
     6  H    0.101201
 Sum of Mulliken charges =   0.00000

 Dipole moment (field-independent basis, Debye):
    X=             -3.9924    Y=              0.0195    Z=              0.0067  Tot=              3.9925
 Quadrupole moment (field-independent basis, Debye-Ang):
   XX=            -21.4950   YY=            -17.6115   ZZ=            -17.6614
   XY=              0.1462   XZ=             -0.0178   YZ=             -0.0631

 Normal termination of Gaussian 09 at Wed Aug 26 22:46:54 2020.
