 Gaussian 09, Revision D.01,
 Gaussian 09:  ES64L-G09RevD.01 24-Apr-2013

 --------------------
 #p B2PLYPD3/Def2QZVP
 --------------------

 ------------
 cyanomethane
 ------------
 Symbolic Z-matrix:
 Charge =  0 Multiplicity = 1

                         Standard orientation:
 ---------------------------------------------------------------------
 Center     Atomic      Atomic             Coordinates (Angstroms)
 Number     Number       Type             X           Y           Z
 ---------------------------------------------------------------------
      1          6           0        1.183328    0.000072   -0.005447
      2          6           0       -0.264149    0.057856    0.008868
      3          7           0       -1.446584   -0.017950   -0.005488
      4          1           0        1.482435   -0.254371    0.911814
      5          1           0        1.710156    0.824318   -0.296807
      6          1           0        1.418426   -0.791868   -0.597115
 ---------------------------------------------------------------------

 SCF Done:  E(RB2PLYPD3) =  -132.516573048     A.U. after   12 cycles
 E2(B2PLYPD3) =    -0.1824338728D+00 E(B2PLYPD3) =    -0.13269900692036D+03

 The electronic state is 1-A.
 Alpha  occ. eigenvalues --  -14.85031 -10.67184 -10.64712  -1.03037  -0.91408
 Alpha  occ. eigenvalues --   -0.61514  -0.55732  -0.55528  -0.44928  -0.38576
 Alpha  occ. eigenvalues --   -0.38355
 Alpha virt. eigenvalues --    0.03974   0.07709   0.08238   0.10269   0.10999
 Alpha virt. eigenvalues --    0.11345   0.15418   0.15734   0.17147   0.20211
 Alpha virt. eigenvalues --    0.20313   0.25595   0.32658   0.35371   0.36125

 Mulliken charges:
               1
     1  C   -0.054411
     2  C    0.009883
     3  N   -0.222251
     4  H    0.088307
     5  H    0.087150
     6  H    0.091322
 Sum of Mulliken charges =   0.00000

 Dipole moment (field-independent basis, Debye):
    X=              4.2108    Y=             -0.0283    Z=              0.0278  Tot=              4.2110
 Quadrupole moment (field-independent basis, Debye-Ang):
   XX=            -20.6274   YY=            -17.7353   ZZ=            -17.8705
   XY=              0.0058   XZ=              0.0029   YZ=             -0.0067

 Normal termination of Gaussian 09 at Wed Aug 26 18:35:26 2020.
