 Gaussian 09, Revision D.01,
 Gaussian 09:  ES64L-G09RevD.01 24-Apr-2013

 --------------------
 #p B2PLYPD3/Def2QZVP
 --------------------

 ------------
 cyanomethane
 ------------
 Symbolic Z-matrix:
 Charge =  0 Multiplicity = 1

                         Standard orientation:
 ---------------------------------------------------------------------
 Center     Atomic      Atomic             Coordinates (Angstroms)
 Number     Number       Type             X           Y           Z
 ---------------------------------------------------------------------
      1          6           0        1.192902   -0.020247   -0.003143
      2          6           0       -0.286888    0.028963   -0.071766
      3          7           0       -1.434515   -0.015119    0.047373
      4          1           0        1.667680    0.002432    1.017809
      5          1           0        1.450123    0.987846   -0.430434
      6          1           0        1.487713   -0.936743   -0.469531
 ---------------------------------------------------------------------

 SCF Done:  E(RB2PLYPD3) =  -132.522793528     A.U. after   13 cycles
 E2(B2PLYPD3) =    -0.1812408283D+00 E(B2PLYPD3) =    -0.13270403435659D+03

 The electronic state is 1-A.
 Alpha  occ. eigenvalues --  -14.84224 -10.67918 -10.66299  -1.04088  -0.88535
 Alpha  occ. eigenvalues --   -0.59096  -0.55750  -0.50962  -0.44723  -0.39285
 Alpha  occ. eigenvalues --   -0.38664
 Alpha virt. eigenvalues --    0.03401   0.06763   0.08632   0.09951   0.11007
 Alpha virt. eigenvalues --    0.11748   0.15132   0.15534   0.17084   0.19958
 Alpha virt. eigenvalues --    0.20212   0.25293   0.32386   0.32891   0.35313

 Mulliken charges:
               1
     1  C   -0.099581
     2  C    0.002181
     3  N   -0.205094
     4  H    0.092098
     5  H    0.101076
     6  H    0.109318
 Sum of Mulliken charges =   0.00000

 Dipole moment (field-independent basis, Debye):
    X=              4.0764    Y=              0.0302    Z=             -0.0214  Tot=              4.0765
 Quadrupole moment (field-independent basis, Debye-Ang):
   XX=            -21.2223   YY=            -17.4008   ZZ=            -18.1247
   XY=             -0.0984   XZ=              0.5414   YZ=              0.0795

 Normal termination of Gaussian 09 at Wed Aug 26 18:56:34 2020.
