 Gaussian 09, Revision D.01,
 Gaussian 09:  ES64L-G09RevD.01 24-Apr-2013

 --------------------
 #p B2PLYPD3/Def2QZVP
 --------------------

 ------------
 cyanomethane
 ------------
 Symbolic Z-matrix:
 Charge =  0 Multiplicity = 1

                         Standard orientation:
 ---------------------------------------------------------------------
 Center     Atomic      Atomic             Coordinates (Angstroms)
 Number     Number       Type             X           Y           Z
 ---------------------------------------------------------------------
      1          6           0        1.181851    0.022222    0.003119
      2          6           0       -0.306953   -0.087643   -0.016022
      3          7           0       -1.439291    0.040571    0.005303
      4          1           0        1.559984    1.093345   -0.086328
      5          1           0        1.676083   -0.582473   -0.749400
      6          1           0        1.589588   -0.402345    0.876031
 ---------------------------------------------------------------------

 SCF Done:  E(RB2PLYPD3) =  -132.528801502     A.U. after   12 cycles
 E2(B2PLYPD3) =    -0.1796160865D+00 E(B2PLYPD3) =    -0.13270841758869D+03

 The electronic state is 1-A.
 Alpha  occ. eigenvalues --  -14.84093 -10.67407 -10.66220  -1.04850  -0.88363
 Alpha  occ. eigenvalues --   -0.60148  -0.53210  -0.52464  -0.44966  -0.39751
 Alpha  occ. eigenvalues --   -0.39626
 Alpha virt. eigenvalues --    0.03375   0.07632   0.08533   0.10169   0.11455
 Alpha virt. eigenvalues --    0.11561   0.15225   0.16206   0.17570   0.19926
 Alpha virt. eigenvalues --    0.20002   0.25447   0.32635   0.34034   0.34980

 Mulliken charges:
               1
     1  C   -0.071616
     2  C    0.004026
     3  N   -0.196060
     4  H    0.094118
     5  H    0.082607
     6  H    0.086925
 Sum of Mulliken charges =   0.00000

 Dipole moment (field-independent basis, Debye):
    X=              4.1120    Y=             -0.1102    Z=              0.0171  Tot=              4.1135
 Quadrupole moment (field-independent basis, Debye-Ang):
   XX=            -20.5854   YY=            -17.6165   ZZ=            -18.1046
   XY=              0.0593   XZ=              0.0456   YZ=             -0.0343

 Normal termination of Gaussian 09 at Wed Aug 26 22:44:57 2020.
