 Gaussian 09, Revision D.01,
 Gaussian 09:  ES64L-G09RevD.01 24-Apr-2013

 --------------------
 #p B2PLYPD3/Def2QZVP
 --------------------

 ------------
 cyanomethane
 ------------
 Symbolic Z-matrix:
 Charge =  0 Multiplicity = 1

                         Standard orientation:
 ---------------------------------------------------------------------
 Center     Atomic      Atomic             Coordinates (Angstroms)
 Number     Number       Type             X           Y           Z
 ---------------------------------------------------------------------
      1          6           0        1.149121    0.007854    0.028321
      2          6           0       -0.265679   -0.022171   -0.057357
      3          7           0       -1.430288    0.014096    0.023043
      4          1           0        1.623979    1.053467   -0.190936
      5          1           0        1.580340   -0.713697   -0.724813
      6          1           0        1.507040   -0.352538    0.928666
 ---------------------------------------------------------------------

 SCF Done:  E(RB2PLYPD3) =  -132.524416302     A.U. after   12 cycles
 E2(B2PLYPD3) =    -0.1821879561D+00 E(B2PLYPD3) =    -0.13270660425797D+03

 The electronic state is 1-A.
 Alpha  occ. eigenvalues --  -14.84683 -10.67294 -10.66598  -1.03808  -0.89567
 Alpha  occ. eigenvalues --   -0.61092  -0.53918  -0.52550  -0.45039  -0.38709
 Alpha  occ. eigenvalues --   -0.38390
 Alpha virt. eigenvalues --    0.03516   0.06646   0.07290   0.09969   0.11511
 Alpha virt. eigenvalues --    0.11718   0.15677   0.15804   0.17333   0.20107
 Alpha virt. eigenvalues --    0.20217   0.26309   0.32335   0.33372   0.35201

 Mulliken charges:
               1
     1  C   -0.079208
     2  C    0.008612
     3  N   -0.211430
     4  H    0.094937
     5  H    0.086456
     6  H    0.100633
 Sum of Mulliken charges =   0.00000

 Dipole moment (field-independent basis, Debye):
    X=              4.1148    Y=             -0.0666    Z=             -0.0076  Tot=              4.1153
 Quadrupole moment (field-independent basis, Debye-Ang):
   XX=            -20.8692   YY=            -17.7022   ZZ=            -17.9893
   XY=              0.0203   XZ=              0.1052   YZ=             -0.0761

 Normal termination of Gaussian 09 at Wed Aug 26 22:37:26 2020.
