 Gaussian 09, Revision D.01,
 Gaussian 09:  ES64L-G09RevD.01 24-Apr-2013

 --------------------
 #p B2PLYPD3/Def2QZVP
 --------------------

 ------------
 cyanomethane
 ------------
 Symbolic Z-matrix:
 Charge =  0 Multiplicity = 1

                         Standard orientation:
 ---------------------------------------------------------------------
 Center     Atomic      Atomic             Coordinates (Angstroms)
 Number     Number       Type             X           Y           Z
 ---------------------------------------------------------------------
      1          6           0       -1.178409   -0.007737    0.007972
      2          6           0        0.277481    0.003425   -0.020641
      3          7           0        1.427881    0.000080    0.009862
      4          1           0       -1.526352   -0.112524    1.007419
      5          1           0       -1.519501   -0.832312   -0.601800
      6          1           0       -1.543745    0.970149   -0.398638
 ---------------------------------------------------------------------

 SCF Done:  E(RB2PLYPD3) =  -132.534784590     A.U. after   11 cycles
 E2(B2PLYPD3) =    -0.1801088694D+00 E(B2PLYPD3) =    -0.13271489345950D+03

 The electronic state is 1-A.
 Alpha  occ. eigenvalues --  -14.83994 -10.67073 -10.66033  -1.04218  -0.89344
 Alpha  occ. eigenvalues --   -0.59362  -0.54632  -0.53674  -0.44690  -0.39158
 Alpha  occ. eigenvalues --   -0.39028
 Alpha virt. eigenvalues --    0.03769   0.07910   0.08234   0.10169   0.11428
 Alpha virt. eigenvalues --    0.11571   0.15394   0.16030   0.16334   0.20067
 Alpha virt. eigenvalues --    0.20105   0.25377   0.32682   0.34263   0.34956

 Mulliken charges:
               1
     1  C   -0.090968
     2  C   -0.003101
     3  N   -0.205132
     4  H    0.100981
     5  H    0.101165
     6  H    0.097055
 Sum of Mulliken charges =   0.00000

 Dipole moment (field-independent basis, Debye):
    X=             -4.1086    Y=             -0.0050    Z=             -0.0009  Tot=              4.1086
 Quadrupole moment (field-independent basis, Debye-Ang):
   XX=            -21.1427   YY=            -17.6469   ZZ=            -17.7329
   XY=             -0.0096   XZ=             -0.0843   YZ=              0.0272

 Normal termination of Gaussian 09 at Wed Aug 26 09:56:35 2020.
