 Gaussian 09, Revision D.01,
 Gaussian 09:  ES64L-G09RevD.01 24-Apr-2013

 --------------------
 #p B2PLYPD3/Def2QZVP
 --------------------

 ------------
 cyanomethane
 ------------
 Symbolic Z-matrix:
 Charge =  0 Multiplicity = 1

                         Standard orientation:
 ---------------------------------------------------------------------
 Center     Atomic      Atomic             Coordinates (Angstroms)
 Number     Number       Type             X           Y           Z
 ---------------------------------------------------------------------
      1          6           0       -1.190635    0.015487   -0.002438
      2          6           0        0.272086   -0.036789   -0.009241
      3          7           0        1.444428    0.018483    0.005841
      4          1           0       -1.543329   -0.078855    1.015559
      5          1           0       -1.517216   -0.862572   -0.557336
      6          1           0       -1.539158    0.939859   -0.429033
 ---------------------------------------------------------------------

 SCF Done:  E(RB2PLYPD3) =  -132.532242162     A.U. after   12 cycles
 E2(B2PLYPD3) =    -0.1821063161D+00 E(B2PLYPD3) =    -0.13271434847816D+03

 The electronic state is 1-A.
 Alpha  occ. eigenvalues --  -14.84673 -10.67081 -10.66771  -1.03307  -0.89414
 Alpha  occ. eigenvalues --   -0.59426  -0.54786  -0.53872  -0.44769  -0.38672
 Alpha  occ. eigenvalues --   -0.38520
 Alpha virt. eigenvalues --    0.03727   0.07583   0.07900   0.10090   0.11109
 Alpha virt. eigenvalues --    0.11268   0.15268   0.15606   0.16519   0.20130
 Alpha virt. eigenvalues --    0.20226   0.25298   0.32487   0.34299   0.34956

 Mulliken charges:
               1
     1  C   -0.087670
     2  C    0.000771
     3  N   -0.215730
     4  H    0.098611
     5  H    0.099726
     6  H    0.104293
 Sum of Mulliken charges =   0.00000

 Dipole moment (field-independent basis, Debye):
    X=             -4.1500    Y=             -0.0302    Z=              0.0074  Tot=              4.1501
 Quadrupole moment (field-independent basis, Debye-Ang):
   XX=            -21.1419   YY=            -17.6748   ZZ=            -17.8631
   XY=             -0.0902   XZ=             -0.0833   YZ=             -0.0203

 Normal termination of Gaussian 09 at Wed Aug 26 12:03:02 2020.
