 Gaussian 09, Revision D.01,
 Gaussian 09:  ES64L-G09RevD.01 24-Apr-2013

 --------------------
 #p B2PLYPD3/Def2QZVP
 --------------------

 ------------
 cyanomethane
 ------------
 Symbolic Z-matrix:
 Charge =  0 Multiplicity = 1

                         Standard orientation:
 ---------------------------------------------------------------------
 Center     Atomic      Atomic             Coordinates (Angstroms)
 Number     Number       Type             X           Y           Z
 ---------------------------------------------------------------------
      1          6           0        1.184125    0.010421   -0.026564
      2          6           0       -0.263082    0.055097    0.039287
      3          7           0       -1.451013   -0.035022   -0.009195
      4          1           0        1.682064   -0.534295    0.876305
      5          1           0        1.465638    0.976032   -0.044185
      6          1           0        1.483130   -0.589688   -0.844092
 ---------------------------------------------------------------------

 SCF Done:  E(RB2PLYPD3) =  -132.517193224     A.U. after   12 cycles
 E2(B2PLYPD3) =    -0.1839764518D+00 E(B2PLYPD3) =    -0.13270116967537D+03

 The electronic state is 1-A.
 Alpha  occ. eigenvalues --  -14.85280 -10.67333 -10.66753  -1.02730  -0.90004
 Alpha  occ. eigenvalues --   -0.60091  -0.56983  -0.51974  -0.44944  -0.38378
 Alpha  occ. eigenvalues --   -0.37926
 Alpha virt. eigenvalues --    0.03479   0.06274   0.08120   0.09967   0.10734
 Alpha virt. eigenvalues --    0.11522   0.15223   0.15885   0.16542   0.20083
 Alpha virt. eigenvalues --    0.20380   0.25685   0.31778   0.34007   0.35588

 Mulliken charges:
               1
     1  C   -0.079977
     2  C    0.005201
     3  N   -0.222397
     4  H    0.086159
     5  H    0.107447
     6  H    0.103568
 Sum of Mulliken charges =   0.00000

 Dipole moment (field-independent basis, Debye):
    X=              4.1614    Y=              0.0213    Z=             -0.0149  Tot=              4.1614
 Quadrupole moment (field-independent basis, Debye-Ang):
   XX=            -21.0019   YY=            -17.6659   ZZ=            -18.0525
   XY=             -0.3104   XZ=              0.0609   YZ=              0.0775

 Normal termination of Gaussian 09 at Wed Aug 26 23:13:42 2020.
