 Gaussian 09, Revision D.01,
 Gaussian 09:  ES64L-G09RevD.01 24-Apr-2013

 --------------------
 #p B2PLYPD3/Def2QZVP
 --------------------

 ------------
 cyanomethane
 ------------
 Symbolic Z-matrix:
 Charge =  0 Multiplicity = 1

                         Standard orientation:
 ---------------------------------------------------------------------
 Center     Atomic      Atomic             Coordinates (Angstroms)
 Number     Number       Type             X           Y           Z
 ---------------------------------------------------------------------
      1          6           0        1.173598   -0.001181   -0.009429
      2          6           0       -0.270838    0.017558    0.011601
      3          7           0       -1.430798   -0.007490   -0.001944
      4          1           0        1.568984   -0.276134    0.985384
      5          1           0        1.541556    0.985057   -0.271628
      6          1           0        1.488479   -0.754758   -0.713177
 ---------------------------------------------------------------------

 SCF Done:  E(RB2PLYPD3) =  -132.534624719     A.U. after   11 cycles
 E2(B2PLYPD3) =    -0.1809463335D+00 E(B2PLYPD3) =    -0.13271557105272D+03

 The electronic state is 1-A.
 Alpha  occ. eigenvalues --  -14.84267 -10.67029 -10.66293  -1.03879  -0.89529
 Alpha  occ. eigenvalues --   -0.59636  -0.54784  -0.53595  -0.44755  -0.38889
 Alpha  occ. eigenvalues --   -0.38753
 Alpha virt. eigenvalues --    0.03763   0.07658   0.07967   0.10153   0.11349
 Alpha virt. eigenvalues --    0.11549   0.15424   0.16163   0.16193   0.20100
 Alpha virt. eigenvalues --    0.20165   0.25571   0.32752   0.34300   0.34861

 Mulliken charges:
               1
     1  C   -0.087656
     2  C   -0.000795
     3  N   -0.209877
     4  H    0.095608
     5  H    0.100602
     6  H    0.102119
 Sum of Mulliken charges =   0.00000

 Dipole moment (field-independent basis, Debye):
    X=              4.1258    Y=              0.0010    Z=              0.0056  Tot=              4.1258
 Quadrupole moment (field-independent basis, Debye-Ang):
   XX=            -21.1081   YY=            -17.6548   ZZ=            -17.7993
   XY=             -0.0342   XZ=              0.0560   YZ=              0.0192

 Normal termination of Gaussian 09 at Wed Aug 26 09:40:23 2020.
