 Gaussian 09, Revision D.01,
 Gaussian 09:  ES64L-G09RevD.01 24-Apr-2013

 --------------------
 #p B2PLYPD3/Def2QZVP
 --------------------

 ------------
 cyanomethane
 ------------
 Symbolic Z-matrix:
 Charge =  0 Multiplicity = 1

                         Standard orientation:
 ---------------------------------------------------------------------
 Center     Atomic      Atomic             Coordinates (Angstroms)
 Number     Number       Type             X           Y           Z
 ---------------------------------------------------------------------
      1          6           0       -1.182224   -0.001178   -0.001927
      2          6           0        0.278663    0.028271    0.029808
      3          7           0        1.424930   -0.015502   -0.021769
      4          1           0       -1.587959   -0.725845   -0.752342
      5          1           0       -1.525938    1.000487   -0.234076
      6          1           0       -1.439247   -0.328689    0.971512
 ---------------------------------------------------------------------

 SCF Done:  E(RB2PLYPD3) =  -132.532472670     A.U. after   12 cycles
 E2(B2PLYPD3) =    -0.1799917885D+00 E(B2PLYPD3) =    -0.13271246445820D+03

 The electronic state is 1-A.
 Alpha  occ. eigenvalues --  -14.83892 -10.67093 -10.65924  -1.04299  -0.89358
 Alpha  occ. eigenvalues --   -0.58889  -0.55251  -0.53316  -0.44635  -0.39212
 Alpha  occ. eigenvalues --   -0.39061
 Alpha virt. eigenvalues --    0.03678   0.07672   0.08768   0.10161   0.11381
 Alpha virt. eigenvalues --    0.11581   0.15355   0.15480   0.16740   0.20064
 Alpha virt. eigenvalues --    0.20108   0.25362   0.32818   0.34217   0.34923

 Mulliken charges:
               1
     1  C   -0.096867
     2  C   -0.004115
     3  N   -0.204061
     4  H    0.098121
     5  H    0.102689
     6  H    0.104234
 Sum of Mulliken charges =   0.00000

 Dipole moment (field-independent basis, Debye):
    X=             -4.0928    Y=              0.0149    Z=              0.0427  Tot=              4.0931
 Quadrupole moment (field-independent basis, Debye-Ang):
   XX=            -21.2124   YY=            -17.6249   ZZ=            -17.7024
   XY=              0.1201   XZ=              0.2118   YZ=             -0.0597

 Normal termination of Gaussian 09 at Wed Aug 26 11:10:27 2020.
