 Gaussian 09, Revision D.01,
 Gaussian 09:  ES64L-G09RevD.01 24-Apr-2013

 --------------------
 #p B2PLYPD3/Def2QZVP
 --------------------

 ------------
 cyanomethane
 ------------
 Symbolic Z-matrix:
 Charge =  0 Multiplicity = 1

                         Standard orientation:
 ---------------------------------------------------------------------
 Center     Atomic      Atomic             Coordinates (Angstroms)
 Number     Number       Type             X           Y           Z
 ---------------------------------------------------------------------
      1          6           0        1.170815   -0.002437    0.002526
      2          6           0       -0.277984   -0.011099   -0.029867
      3          7           0       -1.442262    0.002012    0.009623
      4          1           0        1.554772    0.980253   -0.317096
      5          1           0        1.675905   -0.763140   -0.604743
      6          1           0        1.508166   -0.149980    1.018521
 ---------------------------------------------------------------------

 SCF Done:  E(RB2PLYPD3) =  -132.533205852     A.U. after   12 cycles
 E2(B2PLYPD3) =    -0.1815354454D+00 E(B2PLYPD3) =    -0.13271474129739D+03

 The electronic state is 1-A.
 Alpha  occ. eigenvalues --  -14.84616 -10.67167 -10.66708  -1.03808  -0.89227
 Alpha  occ. eigenvalues --   -0.60623  -0.53606  -0.53352  -0.44971  -0.38878
 Alpha  occ. eigenvalues --   -0.38790
 Alpha virt. eigenvalues --    0.03716   0.07327   0.07592   0.10163   0.11389
 Alpha virt. eigenvalues --    0.11513   0.15451   0.16225   0.16958   0.20129
 Alpha virt. eigenvalues --    0.20145   0.25540   0.32553   0.34417   0.34888

 Mulliken charges:
               1
     1  C   -0.073273
     2  C    0.004407
     3  N   -0.210276
     4  H    0.092513
     5  H    0.092032
     6  H    0.094597
 Sum of Mulliken charges =   0.00000

 Dipole moment (field-independent basis, Debye):
    X=              4.1543    Y=              0.0042    Z=              0.0111  Tot=              4.1543
 Quadrupole moment (field-independent basis, Debye-Ang):
   XX=            -20.7783   YY=            -17.8366   ZZ=            -17.8914
   XY=             -0.0403   XZ=              0.0106   YZ=             -0.0040

 Normal termination of Gaussian 09 at Wed Aug 26 13:54:43 2020.
