 Gaussian 09, Revision D.01,
 Gaussian 09:  ES64L-G09RevD.01 24-Apr-2013

 --------------------
 #p B2PLYPD3/Def2QZVP
 --------------------

 ------------
 cyanomethane
 ------------
 Symbolic Z-matrix:
 Charge =  0 Multiplicity = 1

                         Standard orientation:
 ---------------------------------------------------------------------
 Center     Atomic      Atomic             Coordinates (Angstroms)
 Number     Number       Type             X           Y           Z
 ---------------------------------------------------------------------
      1          6           0       -1.177005    0.005016   -0.003623
      2          6           0        0.278240    0.004972    0.017108
      3          7           0        1.438438   -0.004259   -0.011154
      4          1           0       -1.546856    1.016195   -0.083575
      5          1           0       -1.532964   -0.450263    0.907668
      6          1           0       -1.596657   -0.596045   -0.826923
 ---------------------------------------------------------------------

 SCF Done:  E(RB2PLYPD3) =  -132.534505068     A.U. after   12 cycles
 E2(B2PLYPD3) =    -0.1809931320D+00 E(B2PLYPD3) =    -0.13271549819992D+03

 The electronic state is 1-A.
 Alpha  occ. eigenvalues --  -14.84402 -10.67043 -10.66471  -1.03905  -0.89308
 Alpha  occ. eigenvalues --   -0.60015  -0.54445  -0.53311  -0.44852  -0.38998
 Alpha  occ. eigenvalues --   -0.38866
 Alpha virt. eigenvalues --    0.03743   0.07533   0.08029   0.10153   0.11297
 Alpha virt. eigenvalues --    0.11515   0.15429   0.16060   0.16744   0.20082
 Alpha virt. eigenvalues --    0.20157   0.25403   0.32704   0.34445   0.34906

 Mulliken charges:
               1
     1  C   -0.079034
     2  C    0.000336
     3  N   -0.208752
     4  H    0.098280
     5  H    0.095381
     6  H    0.093791
 Sum of Mulliken charges =   0.00000

 Dipole moment (field-independent basis, Debye):
    X=             -4.1412    Y=             -0.0050    Z=              0.0244  Tot=              4.1413
 Quadrupole moment (field-independent basis, Debye-Ang):
   XX=            -20.9309   YY=            -17.7163   ZZ=            -17.8614
   XY=              0.0718   XZ=              0.0851   YZ=             -0.0222

 Normal termination of Gaussian 09 at Wed Aug 26 22:37:52 2020.
