 Gaussian 09, Revision D.01,
 Gaussian 09:  ES64L-G09RevD.01 24-Apr-2013

 --------------------
 #p B2PLYPD3/Def2QZVP
 --------------------

 ------------
 cyanomethane
 ------------
 Symbolic Z-matrix:
 Charge =  0 Multiplicity = 1

                         Standard orientation:
 ---------------------------------------------------------------------
 Center     Atomic      Atomic             Coordinates (Angstroms)
 Number     Number       Type             X           Y           Z
 ---------------------------------------------------------------------
      1          6           0       -1.180218    0.026413    0.009664
      2          6           0        0.250997   -0.076792   -0.008140
      3          7           0        1.440076    0.038106   -0.000179
      4          1           0       -1.452123   -0.094629    0.971133
      5          1           0       -1.515473   -0.844878   -0.572145
      6          1           0       -1.537614    0.975042   -0.406885
 ---------------------------------------------------------------------

 SCF Done:  E(RB2PLYPD3) =  -132.520558737     A.U. after   13 cycles
 E2(B2PLYPD3) =    -0.1840038934D+00 E(B2PLYPD3) =    -0.13270456263062D+03

 The electronic state is 1-A.
 Alpha  occ. eigenvalues --  -14.85155 -10.67158 -10.66378  -1.02622  -0.90464
 Alpha  occ. eigenvalues --   -0.59863  -0.55734  -0.54363  -0.44817  -0.38078
 Alpha  occ. eigenvalues --   -0.37860
 Alpha virt. eigenvalues --    0.03552   0.06915   0.07933   0.09862   0.11056
 Alpha virt. eigenvalues --    0.11149   0.15010   0.15528   0.16615   0.20220
 Alpha virt. eigenvalues --    0.20368   0.26068   0.32497   0.34339   0.34946

 Mulliken charges:
               1
     1  C   -0.089312
     2  C    0.005801
     3  N   -0.225953
     4  H    0.106016
     5  H    0.097632
     6  H    0.105816
 Sum of Mulliken charges =   0.00000

 Dipole moment (field-independent basis, Debye):
    X=             -4.1428    Y=             -0.0504    Z=              0.0267  Tot=              4.1432
 Quadrupole moment (field-independent basis, Debye-Ang):
   XX=            -21.2412   YY=            -17.6367   ZZ=            -17.8688
   XY=             -0.1682   XZ=             -0.0040   YZ=             -0.0375

 Normal termination of Gaussian 09 at Wed Aug 26 23:53:08 2020.
