 Gaussian 09, Revision D.01,
 Gaussian 09:  ES64L-G09RevD.01 24-Apr-2013

 --------------------
 #p B2PLYPD3/Def2QZVP
 --------------------

 ------------
 cyanomethane
 ------------
 Symbolic Z-matrix:
 Charge =  0 Multiplicity = 1

                         Standard orientation:
 ---------------------------------------------------------------------
 Center     Atomic      Atomic             Coordinates (Angstroms)
 Number     Number       Type             X           Y           Z
 ---------------------------------------------------------------------
      1          6           0        1.162635    0.002480   -0.010271
      2          6           0       -0.278886    0.021725   -0.020841
      3          7           0       -1.427487   -0.010365    0.017734
      4          1           0        1.620812   -0.531900    0.899593
      5          1           0        1.581273    1.009607    0.014067
      6          1           0        1.487832   -0.550383   -0.851129
 ---------------------------------------------------------------------

 SCF Done:  E(RB2PLYPD3) =  -132.531635129     A.U. after   12 cycles
 E2(B2PLYPD3) =    -0.1802970260D+00 E(B2PLYPD3) =    -0.13271193215531D+03

 The electronic state is 1-A.
 Alpha  occ. eigenvalues --  -14.84116 -10.67196 -10.66112  -1.04402  -0.89280
 Alpha  occ. eigenvalues --   -0.60162  -0.54969  -0.52175  -0.44867  -0.39279
 Alpha  occ. eigenvalues --   -0.38917
 Alpha virt. eigenvalues --    0.03610   0.07178   0.08276   0.10143   0.11404
 Alpha virt. eigenvalues --    0.11859   0.15548   0.16238   0.16867   0.19990
 Alpha virt. eigenvalues --    0.20158   0.25680   0.32734   0.33825   0.35226

 Mulliken charges:
               1
     1  C   -0.081073
     2  C    0.000006
     3  N   -0.202933
     4  H    0.087849
     5  H    0.096576
     6  H    0.099575
 Sum of Mulliken charges =   0.00000

 Dipole moment (field-independent basis, Debye):
    X=              4.1099    Y=              0.0045    Z=             -0.0340  Tot=              4.1100
 Quadrupole moment (field-independent basis, Debye-Ang):
   XX=            -20.8951   YY=            -17.7018   ZZ=            -17.8503
   XY=             -0.0647   XZ=              0.1895   YZ=              0.0945

 Normal termination of Gaussian 09 at Wed Aug 26 10:30:42 2020.
