 Gaussian 09, Revision D.01,
 Gaussian 09:  ES64L-G09RevD.01 24-Apr-2013

 --------------------
 #p B2PLYPD3/Def2QZVP
 --------------------

 ------------
 cyanomethane
 ------------
 Symbolic Z-matrix:
 Charge =  0 Multiplicity = 1

                         Standard orientation:
 ---------------------------------------------------------------------
 Center     Atomic      Atomic             Coordinates (Angstroms)
 Number     Number       Type             X           Y           Z
 ---------------------------------------------------------------------
      1          6           0        1.165842   -0.000281   -0.020227
      2          6           0       -0.280569    0.013751   -0.020295
      3          7           0       -1.421071   -0.010531    0.023199
      4          1           0        1.699547   -0.163789    0.968183
      5          1           0        1.450770    0.979047   -0.315237
      6          1           0        1.485544   -0.822358   -0.572208
 ---------------------------------------------------------------------

 SCF Done:  E(RB2PLYPD3) =  -132.526985485     A.U. after   12 cycles
 E2(B2PLYPD3) =    -0.1795114991D+00 E(B2PLYPD3) =    -0.13270649698429D+03

 The electronic state is 1-A.
 Alpha  occ. eigenvalues --  -14.83806 -10.66619 -10.65805  -1.04681  -0.89751
 Alpha  occ. eigenvalues --   -0.60192  -0.56596  -0.51510  -0.44753  -0.39574
 Alpha  occ. eigenvalues --   -0.38960
 Alpha virt. eigenvalues --    0.03709   0.07277   0.08906   0.10203   0.11338
 Alpha virt. eigenvalues --    0.12021   0.15394   0.16140   0.17096   0.19912
 Alpha virt. eigenvalues --    0.20203   0.25591   0.32734   0.33934   0.35858

 Mulliken charges:
               1
     1  C   -0.080273
     2  C   -0.001437
     3  N   -0.200280
     4  H    0.080823
     5  H    0.100863
     6  H    0.100303
 Sum of Mulliken charges =   0.00000

 Dipole moment (field-independent basis, Debye):
    X=              4.1050    Y=              0.0044    Z=             -0.0157  Tot=              4.1050
 Quadrupole moment (field-independent basis, Debye-Ang):
   XX=            -20.8880   YY=            -17.3952   ZZ=            -18.0549
   XY=             -0.1512   XZ=              0.3617   YZ=              0.0496

 Normal termination of Gaussian 09 at Wed Aug 26 16:26:59 2020.
