 Gaussian 09, Revision D.01,
 Gaussian 09:  ES64L-G09RevD.01 24-Apr-2013

 --------------------
 #p B2PLYPD3/Def2QZVP
 --------------------

 ------------
 cyanomethane
 ------------
 Symbolic Z-matrix:
 Charge =  0 Multiplicity = 1

                         Standard orientation:
 ---------------------------------------------------------------------
 Center     Atomic      Atomic             Coordinates (Angstroms)
 Number     Number       Type             X           Y           Z
 ---------------------------------------------------------------------
      1          6           0       -1.170769   -0.012472    0.010323
      2          6           0        0.269901   -0.018459   -0.062553
      3          7           0        1.416871    0.020478    0.035675
      4          1           0       -1.553597   -0.056551    1.014415
      5          1           0       -1.371207   -0.884336   -0.525212
      6          1           0       -1.588087    0.983128   -0.425547
 ---------------------------------------------------------------------

 SCF Done:  E(RB2PLYPD3) =  -132.524280463     A.U. after   12 cycles
 E2(B2PLYPD3) =    -0.1806174527D+00 E(B2PLYPD3) =    -0.13270489791611D+03

 The electronic state is 1-A.
 Alpha  occ. eigenvalues --  -14.83983 -10.67067 -10.65940  -1.04244  -0.89730
 Alpha  occ. eigenvalues --   -0.59501  -0.55603  -0.52496  -0.44683  -0.38992
 Alpha  occ. eigenvalues --   -0.38803
 Alpha virt. eigenvalues --    0.03579   0.06980   0.08793   0.10016   0.11319
 Alpha virt. eigenvalues --    0.11817   0.15092   0.15727   0.16831   0.20000
 Alpha virt. eigenvalues --    0.20200   0.25824   0.32296   0.34238   0.34935

 Mulliken charges:
               1
     1  C   -0.099912
     2  C    0.000303
     3  N   -0.206535
     4  H    0.100113
     5  H    0.108790
     6  H    0.097241
 Sum of Mulliken charges =   0.00000

 Dipole moment (field-independent basis, Debye):
    X=             -4.0569    Y=             -0.0408    Z=             -0.0127  Tot=              4.0572
 Quadrupole moment (field-independent basis, Debye-Ang):
   XX=            -21.2878   YY=            -17.4857   ZZ=            -17.8284
   XY=             -0.2614   XZ=             -0.3632   YZ=              0.0853

 Normal termination of Gaussian 09 at Wed Aug 26 18:33:16 2020.
