 Gaussian 09, Revision D.01,
 Gaussian 09:  ES64L-G09RevD.01 24-Apr-2013

 --------------------
 #p B2PLYPD3/Def2QZVP
 --------------------

 ------------
 cyanomethane
 ------------
 Symbolic Z-matrix:
 Charge =  0 Multiplicity = 1

                         Standard orientation:
 ---------------------------------------------------------------------
 Center     Atomic      Atomic             Coordinates (Angstroms)
 Number     Number       Type             X           Y           Z
 ---------------------------------------------------------------------
      1          6           0       -1.204787   -0.015180    0.013880
      2          6           0        0.277891   -0.025098   -0.028628
      3          7           0        1.445244    0.014827    0.012268
      4          1           0       -1.499317   -0.018096    0.986300
      5          1           0       -1.524422   -0.853436   -0.540288
      6          1           0       -1.531594    1.009414   -0.443399
 ---------------------------------------------------------------------

 SCF Done:  E(RB2PLYPD3) =  -132.524518651     A.U. after   12 cycles
 E2(B2PLYPD3) =    -0.1816910935D+00 E(B2PLYPD3) =    -0.13270620974455D+03

 The electronic state is 1-A.
 Alpha  occ. eigenvalues --  -14.84488 -10.67193 -10.66628  -1.03422  -0.89373
 Alpha  occ. eigenvalues --   -0.59022  -0.56018  -0.52839  -0.44643  -0.38925
 Alpha  occ. eigenvalues --   -0.38561
 Alpha virt. eigenvalues --    0.03600   0.07596   0.08469   0.10135   0.10861
 Alpha virt. eigenvalues --    0.11386   0.15074   0.15839   0.15961   0.20070
 Alpha virt. eigenvalues --    0.20222   0.24843   0.31753   0.33482   0.35599

 Mulliken charges:
               1
     1  C   -0.096182
     2  C   -0.001295
     3  N   -0.214002
     4  H    0.106527
     5  H    0.107882
     6  H    0.097070
 Sum of Mulliken charges =   0.00000

 Dipole moment (field-independent basis, Debye):
    X=             -4.1371    Y=             -0.0225    Z=              0.0190  Tot=              4.1372
 Quadrupole moment (field-independent basis, Debye-Ang):
   XX=            -21.2818   YY=            -17.6038   ZZ=            -17.8436
   XY=             -0.0764   XZ=             -0.1218   YZ=              0.0851

 Normal termination of Gaussian 09 at Wed Aug 26 18:18:33 2020.
