 Gaussian 09, Revision D.01,
 Gaussian 09:  ES64L-G09RevD.01 24-Apr-2013

 --------------------
 #p B2PLYPD3/Def2QZVP
 --------------------

 ------------
 cyanomethane
 ------------
 Symbolic Z-matrix:
 Charge =  0 Multiplicity = 1

                         Standard orientation:
 ---------------------------------------------------------------------
 Center     Atomic      Atomic             Coordinates (Angstroms)
 Number     Number       Type             X           Y           Z
 ---------------------------------------------------------------------
      1          6           0        1.188524   -0.005865   -0.024002
      2          6           0       -0.288342    0.004832   -0.027630
      3          7           0       -1.437864   -0.003475    0.020849
      4          1           0        1.608770    0.020087    1.017500
      5          1           0        1.508914    0.889754   -0.435602
      6          1           0        1.546272   -0.879322   -0.418054
 ---------------------------------------------------------------------

 SCF Done:  E(RB2PLYPD3) =  -132.527992118     A.U. after   11 cycles
 E2(B2PLYPD3) =    -0.1799333707D+00 E(B2PLYPD3) =    -0.13270792548845D+03

 The electronic state is 1-A.
 Alpha  occ. eigenvalues --  -14.84126 -10.66428 -10.66221  -1.04256  -0.89637
 Alpha  occ. eigenvalues --   -0.59879  -0.56740  -0.52069  -0.44774  -0.39562
 Alpha  occ. eigenvalues --   -0.39003
 Alpha virt. eigenvalues --    0.03745   0.07800   0.08936   0.10222   0.10949
 Alpha virt. eigenvalues --    0.11735   0.15314   0.16321   0.16763   0.19935
 Alpha virt. eigenvalues --    0.20173   0.24978   0.32597   0.33871   0.36319

 Mulliken charges:
               1
     1  C   -0.071636
     2  C   -0.002375
     3  N   -0.204176
     4  H    0.080345
     5  H    0.098364
     6  H    0.099479
 Sum of Mulliken charges =   0.00000

 Dipole moment (field-independent basis, Debye):
    X=              4.1421    Y=              0.0114    Z=             -0.0010  Tot=              4.1421
 Quadrupole moment (field-independent basis, Debye-Ang):
   XX=            -20.8492   YY=            -17.5048   ZZ=            -17.9950
   XY=             -0.0318   XZ=              0.2671   YZ=              0.0094

 Normal termination of Gaussian 09 at Wed Aug 26 12:06:31 2020.
