 Gaussian 09, Revision D.01,
 Gaussian 09:  ES64L-G09RevD.01 24-Apr-2013

 --------------------
 #p B2PLYPD3/Def2QZVP
 --------------------

 ------------
 cyanomethane
 ------------
 Symbolic Z-matrix:
 Charge =  0 Multiplicity = 1

                         Standard orientation:
 ---------------------------------------------------------------------
 Center     Atomic      Atomic             Coordinates (Angstroms)
 Number     Number       Type             X           Y           Z
 ---------------------------------------------------------------------
      1          6           0        1.171912   -0.003165   -0.016026
      2          6           0       -0.271167   -0.005181   -0.029057
      3          7           0       -1.432192    0.003266    0.012344
      4          1           0        1.558443    1.000061   -0.166422
      5          1           0        1.585389   -0.692489   -0.638664
      6          1           0        1.477044   -0.280360    0.989175
 ---------------------------------------------------------------------

 SCF Done:  E(RB2PLYPD3) =  -132.530729059     A.U. after   12 cycles
 E2(B2PLYPD3) =    -0.1808294139D+00 E(B2PLYPD3) =    -0.13271155847286D+03

 The electronic state is 1-A.
 Alpha  occ. eigenvalues --  -14.84354 -10.66409 -10.66180  -1.03867  -0.90154
 Alpha  occ. eigenvalues --   -0.60647  -0.55592  -0.53423  -0.44824  -0.39065
 Alpha  occ. eigenvalues --   -0.38644
 Alpha virt. eigenvalues --    0.03825   0.07767   0.08284   0.10166   0.11130
 Alpha virt. eigenvalues --    0.11690   0.15553   0.15865   0.16949   0.20077
 Alpha virt. eigenvalues --    0.20221   0.25602   0.32952   0.34062   0.35687

 Mulliken charges:
               1
     1  C   -0.071465
     2  C    0.001682
     3  N   -0.211036
     4  H    0.094854
     5  H    0.096638
     6  H    0.089326
 Sum of Mulliken charges =   0.00000

 Dipole moment (field-independent basis, Debye):
    X=              4.1497    Y=             -0.0190    Z=              0.0238  Tot=              4.1498
 Quadrupole moment (field-independent basis, Debye-Ang):
   XX=            -20.8885   YY=            -17.6242   ZZ=            -17.8678
   XY=             -0.0160   XZ=              0.0895   YZ=              0.0623

 Normal termination of Gaussian 09 at Wed Aug 26 15:22:37 2020.
