 Gaussian 09, Revision D.01,
 Gaussian 09:  ES64L-G09RevD.01 24-Apr-2013

 --------------------
 #p B2PLYPD3/Def2QZVP
 --------------------

 ------------
 cyanomethane
 ------------
 Symbolic Z-matrix:
 Charge =  0 Multiplicity = 1

                         Standard orientation:
 ---------------------------------------------------------------------
 Center     Atomic      Atomic             Coordinates (Angstroms)
 Number     Number       Type             X           Y           Z
 ---------------------------------------------------------------------
      1          6           0        1.174600   -0.009384    0.000650
      2          6           0       -0.274609    0.002126   -0.022042
      3          7           0       -1.441444    0.000661    0.010436
      4          1           0        1.576164    1.004478   -0.158827
      5          1           0        1.568214   -0.640926   -0.725028
      6          1           0        1.545783   -0.324632    0.939157
 ---------------------------------------------------------------------

 SCF Done:  E(RB2PLYPD3) =  -132.532092482     A.U. after   11 cycles
 E2(B2PLYPD3) =    -0.1813406898D+00 E(B2PLYPD3) =    -0.13271343317199D+03

 The electronic state is 1-A.
 Alpha  occ. eigenvalues --  -14.84625 -10.66690 -10.66342  -1.03686  -0.89889
 Alpha  occ. eigenvalues --   -0.60778  -0.54846  -0.53607  -0.44930  -0.38909
 Alpha  occ. eigenvalues --   -0.38741
 Alpha virt. eigenvalues --    0.03827   0.07572   0.08008   0.10146   0.11221
 Alpha virt. eigenvalues --    0.11455   0.15529   0.16446   0.16539   0.20117
 Alpha virt. eigenvalues --    0.20186   0.25510   0.32745   0.34595   0.35381

 Mulliken charges:
               1
     1  C   -0.065180
     2  C    0.002591
     3  N   -0.212182
     4  H    0.089327
     5  H    0.093648
     6  H    0.091796
 Sum of Mulliken charges =   0.00000

 Dipole moment (field-independent basis, Debye):
    X=              4.1618    Y=             -0.0109    Z=             -0.0013  Tot=              4.1618
 Quadrupole moment (field-independent basis, Debye-Ang):
   XX=            -20.7819   YY=            -17.7799   ZZ=            -17.8401
   XY=             -0.0036   XZ=              0.0683   YZ=              0.0324

 Normal termination of Gaussian 09 at Wed Aug 26 22:02:46 2020.
