 Gaussian 09, Revision D.01,
 Gaussian 09:  ES64L-G09RevD.01 24-Apr-2013

 --------------------
 #p B2PLYPD3/Def2QZVP
 --------------------

 ------------
 cyanomethane
 ------------
 Symbolic Z-matrix:
 Charge =  0 Multiplicity = 1

                         Standard orientation:
 ---------------------------------------------------------------------
 Center     Atomic      Atomic             Coordinates (Angstroms)
 Number     Number       Type             X           Y           Z
 ---------------------------------------------------------------------
      1          6           0       -1.160885    0.004300    0.000747
      2          6           0        0.269553    0.021658    0.000089
      3          7           0        1.432528   -0.017075    0.004116
      4          1           0       -1.478858    0.983744   -0.164537
      5          1           0       -1.642288   -0.373688    0.905399
      6          1           0       -1.558557   -0.646277   -0.774683
 ---------------------------------------------------------------------

 SCF Done:  E(RB2PLYPD3) =  -132.531228932     A.U. after   12 cycles
 E2(B2PLYPD3) =    -0.1812008165D+00 E(B2PLYPD3) =    -0.13271242974858D+03

 The electronic state is 1-A.
 Alpha  occ. eigenvalues --  -14.84489 -10.66494 -10.66359  -1.03880  -0.90058
 Alpha  occ. eigenvalues --   -0.61012  -0.55194  -0.53010  -0.44932  -0.38873
 Alpha  occ. eigenvalues --   -0.38687
 Alpha virt. eigenvalues --    0.03792   0.07198   0.08154   0.10085   0.11301
 Alpha virt. eigenvalues --    0.11695   0.15571   0.16149   0.17019   0.20068
 Alpha virt. eigenvalues --    0.20269   0.25863   0.33003   0.34561   0.35159

 Mulliken charges:
               1
     1  C   -0.067618
     2  C    0.003071
     3  N   -0.210928
     4  H    0.096564
     5  H    0.088707
     6  H    0.090205
 Sum of Mulliken charges =   0.00000

 Dipole moment (field-independent basis, Debye):
    X=             -4.1507    Y=              0.0181    Z=             -0.0127  Tot=              4.1508
 Quadrupole moment (field-independent basis, Debye-Ang):
   XX=            -20.7690   YY=            -17.6884   ZZ=            -17.9162
   XY=              0.2016   XZ=             -0.0773   YZ=             -0.0119

 Normal termination of Gaussian 09 at Wed Aug 26 13:17:19 2020.
