 Gaussian 09, Revision D.01,
 Gaussian 09:  ES64L-G09RevD.01 24-Apr-2013

 --------------------
 #p B2PLYPD3/Def2QZVP
 --------------------

 ------------
 cyanomethane
 ------------
 Symbolic Z-matrix:
 Charge =  0 Multiplicity = 1

                         Standard orientation:
 ---------------------------------------------------------------------
 Center     Atomic      Atomic             Coordinates (Angstroms)
 Number     Number       Type             X           Y           Z
 ---------------------------------------------------------------------
      1          6           0        1.170595   -0.002730   -0.002378
      2          6           0       -0.274128   -0.001101   -0.015731
      3          7           0       -1.430981    0.003568    0.007029
      4          1           0        1.539960   -0.638493   -0.807093
      5          1           0        1.514183   -0.404150    0.981043
      6          1           0        1.583923    1.040652   -0.114499
 ---------------------------------------------------------------------

 SCF Done:  E(RB2PLYPD3) =  -132.533596506     A.U. after   12 cycles
 E2(B2PLYPD3) =    -0.1809711926D+00 E(B2PLYPD3) =    -0.13271456769890D+03

 The electronic state is 1-A.
 Alpha  occ. eigenvalues --  -14.84226 -10.67670 -10.66258  -1.04027  -0.89016
 Alpha  occ. eigenvalues --   -0.59509  -0.54036  -0.53147  -0.44787  -0.38931
 Alpha  occ. eigenvalues --   -0.38802
 Alpha virt. eigenvalues --    0.03635   0.07353   0.07793   0.10145   0.11455
 Alpha virt. eigenvalues --    0.11644   0.15416   0.16068   0.16412   0.20082
 Alpha virt. eigenvalues --    0.20137   0.25554   0.32613   0.33952   0.34498

 Mulliken charges:
               1
     1  C   -0.093658
     2  C    0.000176
     3  N   -0.207200
     4  H    0.102118
     5  H    0.100006
     6  H    0.098559
 Sum of Mulliken charges =   0.00000

 Dipole moment (field-independent basis, Debye):
    X=              4.1139    Y=             -0.0128    Z=             -0.0037  Tot=              4.1139
 Quadrupole moment (field-independent basis, Debye-Ang):
   XX=            -21.1257   YY=            -17.7501   ZZ=            -17.7578
   XY=              0.0500   XZ=              0.0286   YZ=              0.0281

 Normal termination of Gaussian 09 at Thu Aug 27 00:02:57 2020.
