 Gaussian 09, Revision D.01,
 Gaussian 09:  ES64L-G09RevD.01 24-Apr-2013

 --------------------
 #p B2PLYPD3/Def2QZVP
 --------------------

 ------------
 cyanomethane
 ------------
 Symbolic Z-matrix:
 Charge =  0 Multiplicity = 1

                         Standard orientation:
 ---------------------------------------------------------------------
 Center     Atomic      Atomic             Coordinates (Angstroms)
 Number     Number       Type             X           Y           Z
 ---------------------------------------------------------------------
      1          6           0        1.171362    0.011800   -0.019415
      2          6           0       -0.277102   -0.024934   -0.014919
      3          7           0       -1.447152    0.015097    0.012179
      4          1           0        1.534844   -0.833351   -0.585341
      5          1           0        1.610014   -0.146642    1.057436
      6          1           0        1.619644    0.953117   -0.351347
 ---------------------------------------------------------------------

 SCF Done:  E(RB2PLYPD3) =  -132.527624938     A.U. after   12 cycles
 E2(B2PLYPD3) =    -0.1824698868D+00 E(B2PLYPD3) =    -0.13271009482449D+03

 The electronic state is 1-A.
 Alpha  occ. eigenvalues --  -14.84832 -10.67858 -10.66919  -1.03589  -0.88820
 Alpha  occ. eigenvalues --   -0.60394  -0.54455  -0.51602  -0.45026  -0.38852
 Alpha  occ. eigenvalues --   -0.38413
 Alpha virt. eigenvalues --    0.03470   0.06572   0.07572   0.10044   0.11174
 Alpha virt. eigenvalues --    0.11698   0.15407   0.16026   0.17122   0.20066
 Alpha virt. eigenvalues --    0.20265   0.25551   0.32127   0.33354   0.35120

 Mulliken charges:
               1
     1  C   -0.080436
     2  C    0.005791
     3  N   -0.211573
     4  H    0.099042
     5  H    0.086658
     6  H    0.100518
 Sum of Mulliken charges =   0.00000

 Dipole moment (field-independent basis, Debye):
    X=              4.1476    Y=             -0.0283    Z=             -0.0144  Tot=              4.1477
 Quadrupole moment (field-independent basis, Debye-Ang):
   XX=            -20.8616   YY=            -17.7795   ZZ=            -18.0388
   XY=              0.1137   XZ=              0.1256   YZ=              0.0314

 Normal termination of Gaussian 09 at Wed Aug 26 15:54:17 2020.
