 Gaussian 09, Revision D.01,
 Gaussian 09:  ES64L-G09RevD.01 24-Apr-2013

 --------------------
 #p B2PLYPD3/Def2QZVP
 --------------------

 ------------
 cyanomethane
 ------------
 Symbolic Z-matrix:
 Charge =  0 Multiplicity = 1

                         Standard orientation:
 ---------------------------------------------------------------------
 Center     Atomic      Atomic             Coordinates (Angstroms)
 Number     Number       Type             X           Y           Z
 ---------------------------------------------------------------------
      1          6           0       -1.164255    0.029830   -0.007355
      2          6           0        0.273964   -0.020639   -0.073738
      3          7           0        1.419089    0.012204    0.040865
      4          1           0       -1.542328   -0.196913    1.023442
      5          1           0       -1.471714   -0.883269   -0.528541
      6          1           0       -1.577838    0.939610   -0.294399
 ---------------------------------------------------------------------

 SCF Done:  E(RB2PLYPD3) =  -132.527204409     A.U. after   12 cycles
 E2(B2PLYPD3) =    -0.1805149621D+00 E(B2PLYPD3) =    -0.13270771937096D+03

 The electronic state is 1-A.
 Alpha  occ. eigenvalues --  -14.84071 -10.66787 -10.66031  -1.04317  -0.89663
 Alpha  occ. eigenvalues --   -0.60282  -0.56078  -0.51854  -0.44807  -0.39341
 Alpha  occ. eigenvalues --   -0.38562
 Alpha virt. eigenvalues --    0.03580   0.07357   0.08429   0.09948   0.11175
 Alpha virt. eigenvalues --    0.11977   0.15428   0.15763   0.17394   0.19938
 Alpha virt. eigenvalues --    0.20202   0.25978   0.32950   0.33497   0.35769

 Mulliken charges:
               1
     1  C   -0.083301
     2  C    0.003338
     3  N   -0.205269
     4  H    0.086981
     5  H    0.093693
     6  H    0.104558
 Sum of Mulliken charges =   0.00000

 Dipole moment (field-independent basis, Debye):
    X=             -4.0845    Y=             -0.0544    Z=             -0.0148  Tot=              4.0849
 Quadrupole moment (field-independent basis, Debye-Ang):
   XX=            -21.0311   YY=            -17.4101   ZZ=            -18.0240
   XY=             -0.0597   XZ=             -0.3735   YZ=             -0.0489

 Normal termination of Gaussian 09 at Wed Aug 26 23:15:23 2020.
