 Gaussian 09, Revision D.01,
 Gaussian 09:  ES64L-G09RevD.01 24-Apr-2013

 --------------------
 #p B2PLYPD3/Def2QZVP
 --------------------

 ------------
 cyanomethane
 ------------
 Symbolic Z-matrix:
 Charge =  0 Multiplicity = 1

                         Standard orientation:
 ---------------------------------------------------------------------
 Center     Atomic      Atomic             Coordinates (Angstroms)
 Number     Number       Type             X           Y           Z
 ---------------------------------------------------------------------
      1          6           0        1.185030    0.041302   -0.000839
      2          6           0       -0.285418   -0.079144    0.017667
      3          7           0       -1.406504    0.039560   -0.014861
      4          1           0        1.521194    1.024568   -0.246502
      5          1           0        1.520499   -0.764807   -0.752547
      6          1           0        1.406164   -0.309630    1.002106
 ---------------------------------------------------------------------

 SCF Done:  E(RB2PLYPD3) =  -132.526140817     A.U. after   12 cycles
 E2(B2PLYPD3) =    -0.1787694689D+00 E(B2PLYPD3) =    -0.13270491028545D+03

 The electronic state is 1-A.
 Alpha  occ. eigenvalues --  -14.83205 -10.67615 -10.65194  -1.05056  -0.88839
 Alpha  occ. eigenvalues --   -0.58284  -0.54693  -0.53082  -0.44452  -0.39692
 Alpha  occ. eigenvalues --   -0.39343
 Alpha virt. eigenvalues --    0.03557   0.07923   0.08958   0.10015   0.11486
 Alpha virt. eigenvalues --    0.12063   0.14827   0.15275   0.16988   0.19874
 Alpha virt. eigenvalues --    0.20112   0.25619   0.32369   0.33764   0.35054

 Mulliken charges:
               1
     1  C   -0.116504
     2  C   -0.006452
     3  N   -0.193525
     4  H    0.113189
     5  H    0.097812
     6  H    0.105479
 Sum of Mulliken charges =   0.00000

 Dipole moment (field-independent basis, Debye):
    X=              4.0026    Y=             -0.0705    Z=              0.0402  Tot=              4.0034
 Quadrupole moment (field-independent basis, Debye-Ang):
   XX=            -21.5244   YY=            -17.4244   ZZ=            -17.6625
   XY=              0.2438   XZ=             -0.1503   YZ=             -0.0702

 Normal termination of Gaussian 09 at Wed Aug 26 22:45:37 2020.
