 Gaussian 09, Revision D.01,
 Gaussian 09:  ES64L-G09RevD.01 24-Apr-2013

 --------------------
 #p B2PLYPD3/Def2QZVP
 --------------------

 ------------
 cyanomethane
 ------------
 Symbolic Z-matrix:
 Charge =  0 Multiplicity = 1

                         Standard orientation:
 ---------------------------------------------------------------------
 Center     Atomic      Atomic             Coordinates (Angstroms)
 Number     Number       Type             X           Y           Z
 ---------------------------------------------------------------------
      1          6           0       -1.180555   -0.010268    0.011327
      2          6           0        0.268421    0.024463   -0.023183
      3          7           0        1.428616   -0.014341    0.013023
      4          1           0       -1.465477    0.945226   -0.269296
      5          1           0       -1.546864   -0.232931    0.934446
      6          1           0       -1.515172   -0.697072   -0.685172
 ---------------------------------------------------------------------

 SCF Done:  E(RB2PLYPD3) =  -132.527284724     A.U. after   12 cycles
 E2(B2PLYPD3) =    -0.1803984034D+00 E(B2PLYPD3) =    -0.13270768312720D+03

 The electronic state is 1-A.
 Alpha  occ. eigenvalues --  -14.84255 -10.66271 -10.65200  -1.03835  -0.90918
 Alpha  occ. eigenvalues --   -0.60283  -0.55693  -0.55494  -0.44716  -0.38996
 Alpha  occ. eigenvalues --   -0.38849
 Alpha virt. eigenvalues --    0.04007   0.08300   0.08765   0.10115   0.11266
 Alpha virt. eigenvalues --    0.11305   0.15505   0.15638   0.16775   0.20156
 Alpha virt. eigenvalues --    0.20182   0.25551   0.33146   0.35170   0.35738

 Mulliken charges:
               1
     1  C   -0.069097
     2  C   -0.001112
     3  N   -0.212389
     4  H    0.094065
     5  H    0.094511
     6  H    0.094023
 Sum of Mulliken charges =   0.00000

 Dipole moment (field-independent basis, Debye):
    X=             -4.1406    Y=              0.0287    Z=             -0.0240  Tot=              4.1408
 Quadrupole moment (field-independent basis, Debye-Ang):
   XX=            -20.9580   YY=            -17.6542   ZZ=            -17.6528
   XY=              0.1019   XZ=             -0.0898   YZ=              0.0011

 Normal termination of Gaussian 09 at Wed Aug 26 11:31:06 2020.
