 Gaussian 09, Revision D.01,
 Gaussian 09:  ES64L-G09RevD.01 24-Apr-2013

 --------------------
 #p B2PLYPD3/Def2QZVP
 --------------------

 ------------
 cyanomethane
 ------------
 Symbolic Z-matrix:
 Charge =  0 Multiplicity = 1

                         Standard orientation:
 ---------------------------------------------------------------------
 Center     Atomic      Atomic             Coordinates (Angstroms)
 Number     Number       Type             X           Y           Z
 ---------------------------------------------------------------------
      1          6           0       -1.180680    0.007108    0.006654
      2          6           0        0.281180    0.015648   -0.008881
      3          7           0        1.436813   -0.012120    0.004487
      4          1           0       -1.511270    1.021956   -0.051994
      5          1           0       -1.579374   -0.495307    0.887498
      6          1           0       -1.570040   -0.578347   -0.853552
 ---------------------------------------------------------------------

 SCF Done:  E(RB2PLYPD3) =  -132.534315898     A.U. after   12 cycles
 E2(B2PLYPD3) =    -0.1806346499D+00 E(B2PLYPD3) =    -0.13271495054757D+03

 The electronic state is 1-A.
 Alpha  occ. eigenvalues --  -14.84250 -10.67192 -10.66328  -1.04051  -0.89146
 Alpha  occ. eigenvalues --   -0.59690  -0.54794  -0.52927  -0.44795  -0.39147
 Alpha  occ. eigenvalues --   -0.38932
 Alpha virt. eigenvalues --    0.03729   0.07587   0.08198   0.10173   0.11238
 Alpha virt. eigenvalues --    0.11608   0.15340   0.16167   0.16565   0.20026
 Alpha virt. eigenvalues --    0.20159   0.25271   0.32642   0.34199   0.35056

 Mulliken charges:
               1
     1  C   -0.083532
     2  C   -0.001240
     3  N   -0.206638
     4  H    0.101542
     5  H    0.096438
     6  H    0.093430
 Sum of Mulliken charges =   0.00000

 Dipole moment (field-independent basis, Debye):
    X=             -4.1316    Y=              0.0029    Z=             -0.0062  Tot=              4.1316
 Quadrupole moment (field-independent basis, Debye-Ang):
   XX=            -20.9953   YY=            -17.6457   ZZ=            -17.8849
   XY=              0.1618   XZ=             -0.0322   YZ=             -0.0236

 Normal termination of Gaussian 09 at Thu Aug 27 00:06:46 2020.
