 Gaussian 09, Revision D.01,
 Gaussian 09:  ES64L-G09RevD.01 24-Apr-2013

 --------------------
 #p B2PLYPD3/Def2QZVP
 --------------------

 ------------
 cyanomethane
 ------------
 Symbolic Z-matrix:
 Charge =  0 Multiplicity = 1

                         Standard orientation:
 ---------------------------------------------------------------------
 Center     Atomic      Atomic             Coordinates (Angstroms)
 Number     Number       Type             X           Y           Z
 ---------------------------------------------------------------------
      1          6           0       -1.178976   -0.007837   -0.002911
      2          6           0        0.285291    0.035808    0.005333
      3          7           0        1.424421   -0.018153   -0.004321
      4          1           0       -1.510922   -0.150028    0.967976
      5          1           0       -1.552884   -0.817385   -0.588182
      6          1           0       -1.545034    0.926656   -0.364083
 ---------------------------------------------------------------------

 SCF Done:  E(RB2PLYPD3) =  -132.534006133     A.U. after   12 cycles
 E2(B2PLYPD3) =    -0.1788777016D+00 E(B2PLYPD3) =    -0.13271288383425D+03

 The electronic state is 1-A.
 Alpha  occ. eigenvalues --  -14.83754 -10.66102 -10.65778  -1.04651  -0.89841
 Alpha  occ. eigenvalues --   -0.59790  -0.54798  -0.54437  -0.44697  -0.39514
 Alpha  occ. eigenvalues --   -0.39474
 Alpha virt. eigenvalues --    0.03900   0.08389   0.08848   0.10204   0.11439
 Alpha virt. eigenvalues --    0.11566   0.15493   0.16040   0.16821   0.19989
 Alpha virt. eigenvalues --    0.20078   0.25320   0.33090   0.35167   0.35211

 Mulliken charges:
               1
     1  C   -0.075406
     2  C   -0.005389
     3  N   -0.199713
     4  H    0.093034
     5  H    0.093877
     6  H    0.093596
 Sum of Mulliken charges =   0.00000

 Dipole moment (field-independent basis, Debye):
    X=             -4.1114    Y=              0.0205    Z=              0.0299  Tot=              4.1115
 Quadrupole moment (field-independent basis, Debye-Ang):
   XX=            -20.9116   YY=            -17.5768   ZZ=            -17.7437
   XY=              0.1237   XZ=              0.0001   YZ=             -0.0086

 Normal termination of Gaussian 09 at Wed Aug 26 15:44:40 2020.
