 Gaussian 09, Revision D.01,
 Gaussian 09:  ES64L-G09RevD.01 24-Apr-2013

 --------------------
 #p B2PLYPD3/Def2QZVP
 --------------------

 ------------
 cyanomethane
 ------------
 Symbolic Z-matrix:
 Charge =  0 Multiplicity = 1

                         Standard orientation:
 ---------------------------------------------------------------------
 Center     Atomic      Atomic             Coordinates (Angstroms)
 Number     Number       Type             X           Y           Z
 ---------------------------------------------------------------------
      1          6           0       -1.178457    0.004837   -0.001733
      2          6           0        0.286498   -0.003952   -0.013536
      3          7           0        1.434509    0.000210    0.007806
      4          1           0       -1.545223    1.043337    0.009289
      5          1           0       -1.577660   -0.522484    0.898322
      6          1           0       -1.566923   -0.527639   -0.870643
 ---------------------------------------------------------------------

 SCF Done:  E(RB2PLYPD3) =  -132.535158925     A.U. after   11 cycles
 E2(B2PLYPD3) =    -0.1801135889D+00 E(B2PLYPD3) =    -0.13271527251381D+03

 The electronic state is 1-A.
 Alpha  occ. eigenvalues --  -14.84061 -10.67582 -10.66145  -1.04373  -0.88727
 Alpha  occ. eigenvalues --   -0.59526  -0.53941  -0.52989  -0.44791  -0.39296
 Alpha  occ. eigenvalues --   -0.39171
 Alpha virt. eigenvalues --    0.03677   0.07706   0.08036   0.10199   0.11449
 Alpha virt. eigenvalues --    0.11628   0.15342   0.16345   0.16539   0.20016
 Alpha virt. eigenvalues --    0.20078   0.25223   0.32614   0.34216   0.34695

 Mulliken charges:
               1
     1  C   -0.087411
     2  C   -0.001951
     3  N   -0.201971
     4  H    0.099244
     5  H    0.094782
     6  H    0.097307
 Sum of Mulliken charges =   0.00000

 Dipole moment (field-independent basis, Debye):
    X=             -4.1176    Y=             -0.0095    Z=             -0.0116  Tot=              4.1176
 Quadrupole moment (field-independent basis, Debye-Ang):
   XX=            -20.9903   YY=            -17.6994   ZZ=            -17.8339
   XY=              0.0475   XZ=             -0.0550   YZ=              0.0231

 Normal termination of Gaussian 09 at Wed Aug 26 23:58:40 2020.
