 Gaussian 09, Revision D.01,
 Gaussian 09:  ES64L-G09RevD.01 24-Apr-2013

 --------------------
 #p B2PLYPD3/Def2QZVP
 --------------------

 ------------
 cyanomethane
 ------------
 Symbolic Z-matrix:
 Charge =  0 Multiplicity = 1

                         Standard orientation:
 ---------------------------------------------------------------------
 Center     Atomic      Atomic             Coordinates (Angstroms)
 Number     Number       Type             X           Y           Z
 ---------------------------------------------------------------------
      1          6           0       -1.187553    0.019695    0.015496
      2          6           0        0.283759   -0.013564   -0.045468
      3          7           0        1.423194    0.001934    0.021430
      4          1           0       -1.504049   -0.121153    0.993031
      5          1           0       -1.555104   -0.894807   -0.561478
      6          1           0       -1.480444    0.965640   -0.401731
 ---------------------------------------------------------------------

 SCF Done:  E(RB2PLYPD3) =  -132.530634986     A.U. after   11 cycles
 E2(B2PLYPD3) =    -0.1793847217D+00 E(B2PLYPD3) =    -0.13271001970788D+03

 The electronic state is 1-A.
 Alpha  occ. eigenvalues --  -14.83683 -10.67112 -10.65728  -1.04530  -0.89218
 Alpha  occ. eigenvalues --   -0.58925  -0.55426  -0.53014  -0.44571  -0.39501
 Alpha  occ. eigenvalues --   -0.39175
 Alpha virt. eigenvalues --    0.03754   0.08032   0.08646   0.10157   0.11337
 Alpha virt. eigenvalues --    0.11715   0.15262   0.15815   0.16395   0.19985
 Alpha virt. eigenvalues --    0.20080   0.25213   0.32240   0.34165   0.35256

 Mulliken charges:
               1
     1  C   -0.097794
     2  C   -0.005693
     3  N   -0.200674
     4  H    0.102582
     5  H    0.094136
     6  H    0.107443
 Sum of Mulliken charges =   0.00000

 Dipole moment (field-independent basis, Debye):
    X=             -4.0790    Y=             -0.0128    Z=              0.0042  Tot=              4.0790
 Quadrupole moment (field-independent basis, Debye-Ang):
   XX=            -21.2684   YY=            -17.4600   ZZ=            -17.7985
   XY=              0.0757   XZ=             -0.1954   YZ=             -0.0885

 Normal termination of Gaussian 09 at Wed Aug 26 22:52:45 2020.
