 Gaussian 09, Revision D.01,
 Gaussian 09:  ES64L-G09RevD.01 24-Apr-2013

 --------------------
 #p B2PLYPD3/Def2QZVP
 --------------------

 ------------
 cyanomethane
 ------------
 Symbolic Z-matrix:
 Charge =  0 Multiplicity = 1

                         Standard orientation:
 ---------------------------------------------------------------------
 Center     Atomic      Atomic             Coordinates (Angstroms)
 Number     Number       Type             X           Y           Z
 ---------------------------------------------------------------------
      1          6           0       -1.175986    0.002227    0.007480
      2          6           0        0.270515   -0.009925    0.025898
      3          7           0        1.428613    0.010543   -0.020000
      4          1           0       -1.419958   -0.443047    0.892375
      5          1           0       -1.544166   -0.619145   -0.836816
      6          1           0       -1.603339    1.034581   -0.115823
 ---------------------------------------------------------------------

 SCF Done:  E(RB2PLYPD3) =  -132.528580365     A.U. after   12 cycles
 E2(B2PLYPD3) =    -0.1809130473D+00 E(B2PLYPD3) =    -0.13270949341202D+03

 The electronic state is 1-A.
 Alpha  occ. eigenvalues --  -14.84213 -10.66889 -10.66233  -1.03922  -0.89810
 Alpha  occ. eigenvalues --   -0.59339  -0.55647  -0.53145  -0.44719  -0.38930
 Alpha  occ. eigenvalues --   -0.38738
 Alpha virt. eigenvalues --    0.03670   0.07221   0.08701   0.10136   0.11236
 Alpha virt. eigenvalues --    0.11616   0.15319   0.15571   0.16805   0.20084
 Alpha virt. eigenvalues --    0.20207   0.25547   0.32664   0.34034   0.35094

 Mulliken charges:
               1
     1  C   -0.092699
     2  C   -0.001224
     3  N   -0.209851
     4  H    0.106824
     5  H    0.096764
     6  H    0.100187
 Sum of Mulliken charges =   0.00000

 Dipole moment (field-independent basis, Debye):
    X=             -4.1156    Y=             -0.0371    Z=              0.0313  Tot=              4.1159
 Quadrupole moment (field-independent basis, Debye-Ang):
   XX=            -21.1456   YY=            -17.6570   ZZ=            -17.7505
   XY=             -0.1002   XZ=              0.2050   YZ=             -0.0677

 Normal termination of Gaussian 09 at Wed Aug 26 15:10:56 2020.
