 Gaussian 09, Revision D.01,
 Gaussian 09:  ES64L-G09RevD.01 24-Apr-2013

 --------------------
 #p B2PLYPD3/Def2QZVP
 --------------------

 ------------
 cyanomethane
 ------------
 Symbolic Z-matrix:
 Charge =  0 Multiplicity = 1

                         Standard orientation:
 ---------------------------------------------------------------------
 Center     Atomic      Atomic             Coordinates (Angstroms)
 Number     Number       Type             X           Y           Z
 ---------------------------------------------------------------------
      1          6           0        1.176786    0.006968   -0.005979
      2          6           0       -0.277576    0.011260   -0.006800
      3          7           0       -1.429345   -0.004521    0.002862
      4          1           0        1.528053   -0.793194   -0.678429
      5          1           0        1.513265   -0.250150    1.025787
      6          1           0        1.568839    0.965624   -0.290718
 ---------------------------------------------------------------------

 SCF Done:  E(RB2PLYPD3) =  -132.534943700     A.U. after   12 cycles
 E2(B2PLYPD3) =    -0.1803241368D+00 E(B2PLYPD3) =    -0.13271526783682D+03

 The electronic state is 1-A.
 Alpha  occ. eigenvalues --  -14.84043 -10.67342 -10.66097  -1.04185  -0.89150
 Alpha  occ. eigenvalues --   -0.59377  -0.54511  -0.53321  -0.44715  -0.39160
 Alpha  occ. eigenvalues --   -0.38924
 Alpha virt. eigenvalues --    0.03715   0.07797   0.08061   0.10181   0.11376
 Alpha virt. eigenvalues --    0.11673   0.15378   0.15979   0.16461   0.20048
 Alpha virt. eigenvalues --    0.20132   0.25376   0.32724   0.33918   0.34941

 Mulliken charges:
               1
     1  C   -0.092487
     2  C   -0.002104
     3  N   -0.205297
     4  H    0.099800
     5  H    0.097640
     6  H    0.102448
 Sum of Mulliken charges =   0.00000

 Dipole moment (field-independent basis, Debye):
    X=              4.1133    Y=             -0.0021    Z=              0.0037  Tot=              4.1133
 Quadrupole moment (field-independent basis, Debye-Ang):
   XX=            -21.1330   YY=            -17.6549   ZZ=            -17.7746
   XY=             -0.0096   XZ=              0.0134   YZ=             -0.0090

 Normal termination of Gaussian 09 at Thu Aug 27 00:03:53 2020.
