 Gaussian 09, Revision D.01,
 Gaussian 09:  ES64L-G09RevD.01 24-Apr-2013

 --------------------
 #p B2PLYPD3/Def2QZVP
 --------------------

 ------------
 cyanomethane
 ------------
 Symbolic Z-matrix:
 Charge =  0 Multiplicity = 1

                         Standard orientation:
 ---------------------------------------------------------------------
 Center     Atomic      Atomic             Coordinates (Angstroms)
 Number     Number       Type             X           Y           Z
 ---------------------------------------------------------------------
      1          6           0        1.176789   -0.004748    0.006366
      2          6           0       -0.285463   -0.004320   -0.022606
      3          7           0       -1.434069    0.003948    0.011082
      4          1           0        1.560998   -0.006079    1.020098
      5          1           0        1.578271    0.898744   -0.487695
      6          1           0        1.551253   -0.865890   -0.512540
 ---------------------------------------------------------------------

 SCF Done:  E(RB2PLYPD3) =  -132.535617073     A.U. after   11 cycles
 E2(B2PLYPD3) =    -0.1800000128D+00 E(B2PLYPD3) =    -0.13271561708609D+03

 The electronic state is 1-A.
 Alpha  occ. eigenvalues --  -14.84101 -10.67072 -10.66170  -1.04357  -0.89105
 Alpha  occ. eigenvalues --   -0.59902  -0.54177  -0.53318  -0.44819  -0.39304
 Alpha  occ. eigenvalues --   -0.39198
 Alpha virt. eigenvalues --    0.03758   0.07818   0.08185   0.10187   0.11424
 Alpha virt. eigenvalues --    0.11584   0.15427   0.16312   0.16699   0.20025
 Alpha virt. eigenvalues --    0.20084   0.25304   0.32755   0.34501   0.34965

 Mulliken charges:
               1
     1  C   -0.079139
     2  C   -0.001676
     3  N   -0.202824
     4  H    0.095499
     5  H    0.092192
     6  H    0.095947
 Sum of Mulliken charges =   0.00000

 Dipole moment (field-independent basis, Debye):
    X=              4.1245    Y=             -0.0067    Z=             -0.0140  Tot=              4.1245
 Quadrupole moment (field-independent basis, Debye-Ang):
   XX=            -20.8976   YY=            -17.7604   ZZ=            -17.7686
   XY=              0.0426   XZ=              0.0650   YZ=              0.0283

 Normal termination of Gaussian 09 at Thu Aug 27 00:10:49 2020.
