 Gaussian 09, Revision D.01,
 Gaussian 09:  ES64L-G09RevD.01 24-Apr-2013

 --------------------
 #p B2PLYPD3/Def2QZVP
 --------------------

 ------------
 cyanomethane
 ------------
 Symbolic Z-matrix:
 Charge =  0 Multiplicity = 1

                         Standard orientation:
 ---------------------------------------------------------------------
 Center     Atomic      Atomic             Coordinates (Angstroms)
 Number     Number       Type             X           Y           Z
 ---------------------------------------------------------------------
      1          6           0        1.174173   -0.001187   -0.008233
      2          6           0       -0.282038   -0.036803    0.000092
      3          7           0       -1.428828    0.014041    0.006741
      4          1           0        1.633664   -0.034400    1.035284
      5          1           0        1.450920    1.003905   -0.451894
      6          1           0        1.564400   -0.839853   -0.581734
 ---------------------------------------------------------------------

 SCF Done:  E(RB2PLYPD3) =  -132.531745084     A.U. after   12 cycles
 E2(B2PLYPD3) =    -0.1803722115D+00 E(B2PLYPD3) =    -0.13271211729568D+03

 The electronic state is 1-A.
 Alpha  occ. eigenvalues --  -14.83987 -10.68035 -10.66056  -1.04379  -0.88573
 Alpha  occ. eigenvalues --   -0.59220  -0.54175  -0.52355  -0.44745  -0.39237
 Alpha  occ. eigenvalues --   -0.38965
 Alpha virt. eigenvalues --    0.03542   0.07279   0.08040   0.10202   0.11439
 Alpha virt. eigenvalues --    0.11839   0.15248   0.16047   0.16600   0.19985
 Alpha virt. eigenvalues --    0.20119   0.25408   0.32484   0.33549   0.34569

 Mulliken charges:
               1
     1  C   -0.099593
     2  C   -0.000492
     3  N   -0.202195
     4  H    0.095666
     5  H    0.102860
     6  H    0.103754
 Sum of Mulliken charges =   0.00000

 Dipole moment (field-independent basis, Debye):
    X=              4.0967    Y=             -0.0129    Z=             -0.0070  Tot=              4.0967
 Quadrupole moment (field-independent basis, Debye-Ang):
   XX=            -21.1369   YY=            -17.6414   ZZ=            -17.8592
   XY=             -0.0006   XZ=              0.1521   YZ=              0.0388

 Normal termination of Gaussian 09 at Wed Aug 26 13:26:25 2020.
