 Gaussian 09, Revision D.01,
 Gaussian 09:  ES64L-G09RevD.01 24-Apr-2013

 --------------------
 #p B2PLYPD3/Def2QZVP
 --------------------

 ------------
 cyanomethane
 ------------
 Symbolic Z-matrix:
 Charge =  0 Multiplicity = 1

                         Standard orientation:
 ---------------------------------------------------------------------
 Center     Atomic      Atomic             Coordinates (Angstroms)
 Number     Number       Type             X           Y           Z
 ---------------------------------------------------------------------
      1          6           0        1.171604    0.012342    0.017879
      2          6           0       -0.255840   -0.020128   -0.055222
      3          7           0       -1.433534    0.004354    0.017546
      4          1           0        1.490530    1.036597   -0.274174
      5          1           0        1.640562   -0.783118   -0.668182
      6          1           0        1.409062   -0.237244    1.043588
 ---------------------------------------------------------------------

 SCF Done:  E(RB2PLYPD3) =  -132.526931519     A.U. after   12 cycles
 E2(B2PLYPD3) =    -0.1831263106D+00 E(B2PLYPD3) =    -0.13271005782947D+03

 The electronic state is 1-A.
 Alpha  occ. eigenvalues --  -14.84725 -10.67738 -10.66754  -1.03130  -0.89465
 Alpha  occ. eigenvalues --   -0.59149  -0.54892  -0.53206  -0.44759  -0.38234
 Alpha  occ. eigenvalues --   -0.38095
 Alpha virt. eigenvalues --    0.03572   0.06790   0.07414   0.10083   0.11243
 Alpha virt. eigenvalues --    0.11458   0.15257   0.15701   0.16020   0.20188
 Alpha virt. eigenvalues --    0.20234   0.25936   0.31973   0.34004   0.34419

 Mulliken charges:
               1
     1  C   -0.103256
     2  C    0.004614
     3  N   -0.219628
     4  H    0.108770
     5  H    0.098383
     6  H    0.111116
 Sum of Mulliken charges =   0.00000

 Dipole moment (field-independent basis, Debye):
    X=              4.1216    Y=             -0.0062    Z=              0.0060  Tot=              4.1216
 Quadrupole moment (field-independent basis, Debye-Ang):
   XX=            -21.3668   YY=            -17.6895   ZZ=            -17.8262
   XY=             -0.0735   XZ=             -0.0232   YZ=             -0.0697

 Normal termination of Gaussian 09 at Wed Aug 26 23:10:40 2020.
