 Gaussian 09, Revision D.01,
 Gaussian 09:  ES64L-G09RevD.01 24-Apr-2013

 --------------------
 #p B2PLYPD3/Def2QZVP
 --------------------

 ------------
 cyanomethane
 ------------
 Symbolic Z-matrix:
 Charge =  0 Multiplicity = 1

                         Standard orientation:
 ---------------------------------------------------------------------
 Center     Atomic      Atomic             Coordinates (Angstroms)
 Number     Number       Type             X           Y           Z
 ---------------------------------------------------------------------
      1          6           0        1.168955    0.010593   -0.003004
      2          6           0       -0.266958   -0.000780   -0.020128
      3          7           0       -1.429794   -0.002584    0.005911
      4          1           0        1.516004    1.066306   -0.087550
      5          1           0        1.598365   -0.662783   -0.804434
      6          1           0        1.482207   -0.444315    0.989402
 ---------------------------------------------------------------------

 SCF Done:  E(RB2PLYPD3) =  -132.530231182     A.U. after   12 cycles
 E2(B2PLYPD3) =    -0.1817365632D+00 E(B2PLYPD3) =    -0.13271196774518D+03

 The electronic state is 1-A.
 Alpha  occ. eigenvalues --  -14.84314 -10.68098 -10.66346  -1.03770  -0.88954
 Alpha  occ. eigenvalues --   -0.59164  -0.54234  -0.52766  -0.44749  -0.38725
 Alpha  occ. eigenvalues --   -0.38448
 Alpha virt. eigenvalues --    0.03538   0.07123   0.07444   0.10117   0.11389
 Alpha virt. eigenvalues --    0.11744   0.15336   0.15726   0.16398   0.20094
 Alpha virt. eigenvalues --    0.20205   0.25661   0.32431   0.33341   0.34413

 Mulliken charges:
               1
     1  C   -0.103738
     2  C    0.002394
     3  N   -0.210744
     4  H    0.108231
     5  H    0.101799
     6  H    0.102057
 Sum of Mulliken charges =   0.00000

 Dipole moment (field-independent basis, Debye):
    X=              4.1095    Y=             -0.0128    Z=              0.0097  Tot=              4.1095
 Quadrupole moment (field-independent basis, Debye-Ang):
   XX=            -21.2962   YY=            -17.6085   ZZ=            -17.8853
   XY=             -0.0927   XZ=             -0.0118   YZ=             -0.0001

 Normal termination of Gaussian 09 at Wed Aug 26 13:35:52 2020.
