 Gaussian 09, Revision D.01,
 Gaussian 09:  ES64L-G09RevD.01 24-Apr-2013

 --------------------
 #p B2PLYPD3/Def2QZVP
 --------------------

 ------------
 cyanomethane
 ------------
 Symbolic Z-matrix:
 Charge =  0 Multiplicity = 1

                         Standard orientation:
 ---------------------------------------------------------------------
 Center     Atomic      Atomic             Coordinates (Angstroms)
 Number     Number       Type             X           Y           Z
 ---------------------------------------------------------------------
      1          6           0        1.167343   -0.001820    0.009199
      2          6           0       -0.269687   -0.013243   -0.025352
      3          7           0       -1.431612    0.005929    0.004302
      4          1           0        1.556712    1.041935   -0.216285
      5          1           0        1.636546   -0.715691   -0.688497
      6          1           0        1.442088   -0.277370    0.971584
 ---------------------------------------------------------------------

 SCF Done:  E(RB2PLYPD3) =  -132.530800068     A.U. after   12 cycles
 E2(B2PLYPD3) =    -0.1812369090D+00 E(B2PLYPD3) =    -0.13271203697702D+03

 The electronic state is 1-A.
 Alpha  occ. eigenvalues --  -14.84382 -10.67019 -10.66406  -1.03862  -0.89652
 Alpha  occ. eigenvalues --   -0.60103  -0.54651  -0.53267  -0.44834  -0.38800
 Alpha  occ. eigenvalues --   -0.38723
 Alpha virt. eigenvalues --    0.03704   0.07210   0.08015   0.10165   0.11485
 Alpha virt. eigenvalues --    0.11510   0.15481   0.15917   0.16698   0.20136
 Alpha virt. eigenvalues --    0.20151   0.25730   0.32469   0.34104   0.35053

 Mulliken charges:
               1
     1  C   -0.084824
     2  C    0.001689
     3  N   -0.210644
     4  H    0.096494
     5  H    0.094600
     6  H    0.102685
 Sum of Mulliken charges =   0.00000

 Dipole moment (field-independent basis, Debye):
    X=              4.1308    Y=             -0.0254    Z=              0.0264  Tot=              4.1310
 Quadrupole moment (field-independent basis, Debye-Ang):
   XX=            -21.0027   YY=            -17.6867   ZZ=            -17.8469
   XY=             -0.0285   XZ=             -0.0434   YZ=             -0.0276

 Normal termination of Gaussian 09 at Wed Aug 26 10:27:26 2020.
