 Gaussian 09, Revision D.01,
 Gaussian 09:  ES64L-G09RevD.01 24-Apr-2013

 --------------------
 #p B2PLYPD3/Def2QZVP
 --------------------

 ------------
 cyanomethane
 ------------
 Symbolic Z-matrix:
 Charge =  0 Multiplicity = 1

                         Standard orientation:
 ---------------------------------------------------------------------
 Center     Atomic      Atomic             Coordinates (Angstroms)
 Number     Number       Type             X           Y           Z
 ---------------------------------------------------------------------
      1          6           0       -1.173808    0.011892    0.005463
      2          6           0        0.271676    0.014677   -0.002241
      3          7           0        1.431652   -0.012278    0.001224
      4          1           0       -1.490767    1.010759   -0.090794
      5          1           0       -1.563291   -0.469699    0.899936
      6          1           0       -1.554712   -0.614523   -0.837044
 ---------------------------------------------------------------------

 SCF Done:  E(RB2PLYPD3) =  -132.533039173     A.U. after   11 cycles
 E2(B2PLYPD3) =    -0.1809386659D+00 E(B2PLYPD3) =    -0.13271397783862D+03

 The electronic state is 1-A.
 Alpha  occ. eigenvalues --  -14.84286 -10.66918 -10.66312  -1.03889  -0.89616
 Alpha  occ. eigenvalues --   -0.59781  -0.55446  -0.52993  -0.44772  -0.38984
 Alpha  occ. eigenvalues --   -0.38686
 Alpha virt. eigenvalues --    0.03749   0.07459   0.08227   0.10146   0.11203
 Alpha virt. eigenvalues --    0.11667   0.15417   0.16118   0.16373   0.20058
 Alpha virt. eigenvalues --    0.20206   0.25535   0.32762   0.34011   0.35233

 Mulliken charges:
               1
     1  C   -0.084203
     2  C   -0.000920
     3  N   -0.209754
     4  H    0.103962
     5  H    0.097113
     6  H    0.093802
 Sum of Mulliken charges =   0.00000

 Dipole moment (field-independent basis, Debye):
    X=             -4.1296    Y=              0.0004    Z=             -0.0003  Tot=              4.1296
 Quadrupole moment (field-independent basis, Debye-Ang):
   XX=            -21.0650   YY=            -17.6029   ZZ=            -17.8678
   XY=              0.1712   XZ=             -0.0187   YZ=             -0.0367

 Normal termination of Gaussian 09 at Wed Aug 26 23:35:42 2020.
