 Gaussian 09, Revision D.01,
 Gaussian 09:  ES64L-G09RevD.01 24-Apr-2013

 --------------------
 #p B2PLYPD3/Def2QZVP
 --------------------

 ------------
 cyanomethane
 ------------
 Symbolic Z-matrix:
 Charge =  0 Multiplicity = 1

                         Standard orientation:
 ---------------------------------------------------------------------
 Center     Atomic      Atomic             Coordinates (Angstroms)
 Number     Number       Type             X           Y           Z
 ---------------------------------------------------------------------
      1          6           0        1.184161    0.000715   -0.004308
      2          6           0       -0.275822    0.010617    0.004786
      3          7           0       -1.439280   -0.002429   -0.002422
      4          1           0        1.531743   -0.122995    0.979201
      5          1           0        1.584577    0.892026   -0.392104
      6          1           0        1.508602   -0.820013   -0.573011
 ---------------------------------------------------------------------

 SCF Done:  E(RB2PLYPD3) =  -132.532611349     A.U. after   11 cycles
 E2(B2PLYPD3) =    -0.1807665223D+00 E(B2PLYPD3) =    -0.13271337787096D+03

 The electronic state is 1-A.
 Alpha  occ. eigenvalues --  -14.84427 -10.66509 -10.65983  -1.03751  -0.90134
 Alpha  occ. eigenvalues --   -0.60206  -0.55000  -0.54665  -0.44801  -0.38982
 Alpha  occ. eigenvalues --   -0.38898
 Alpha virt. eigenvalues --    0.03927   0.08142   0.08279   0.10204   0.11212
 Alpha virt. eigenvalues --    0.11316   0.15441   0.16083   0.16565   0.20129
 Alpha virt. eigenvalues --    0.20161   0.25276   0.32824   0.35073   0.35403

 Mulliken charges:
               1
     1  C   -0.068522
     2  C   -0.000745
     3  N   -0.211587
     4  H    0.092426
     5  H    0.093621
     6  H    0.094805
 Sum of Mulliken charges =   0.00000

 Dipole moment (field-independent basis, Debye):
    X=              4.1610    Y=             -0.0068    Z=              0.0125  Tot=              4.1610
 Quadrupole moment (field-independent basis, Debye-Ang):
   XX=            -20.8754   YY=            -17.7056   ZZ=            -17.7786
   XY=              0.0196   XZ=              0.0042   YZ=              0.0020

 Normal termination of Gaussian 09 at Thu Aug 27 00:08:55 2020.
