 Gaussian 09, Revision D.01,
 Gaussian 09:  ES64L-G09RevD.01 24-Apr-2013

 --------------------
 #p B2PLYPD3/Def2QZVP
 --------------------

 ------------
 cyanomethane
 ------------
 Symbolic Z-matrix:
 Charge =  0 Multiplicity = 1

                         Standard orientation:
 ---------------------------------------------------------------------
 Center     Atomic      Atomic             Coordinates (Angstroms)
 Number     Number       Type             X           Y           Z
 ---------------------------------------------------------------------
      1          6           0       -1.178337    0.000927    0.002713
      2          6           0        0.270578   -0.008217    0.021599
      3          7           0        1.429469    0.010015   -0.015648
      4          1           0       -1.445479   -0.316978    0.968668
      5          1           0       -1.509486   -0.757019   -0.754753
      6          1           0       -1.604768    1.047636   -0.250248
 ---------------------------------------------------------------------

 SCF Done:  E(RB2PLYPD3) =  -132.528650315     A.U. after   12 cycles
 E2(B2PLYPD3) =    -0.1812464545D+00 E(B2PLYPD3) =    -0.13270989676984D+03

 The electronic state is 1-A.
 Alpha  occ. eigenvalues --  -14.84192 -10.67696 -10.66237  -1.03865  -0.89232
 Alpha  occ. eigenvalues --   -0.58778  -0.54734  -0.53140  -0.44677  -0.38804
 Alpha  occ. eigenvalues --   -0.38704
 Alpha virt. eigenvalues --    0.03521   0.07078   0.08369   0.10139   0.11364
 Alpha virt. eigenvalues --    0.11573   0.15322   0.15331   0.16628   0.20117
 Alpha virt. eigenvalues --    0.20173   0.25463   0.32292   0.33786   0.34461

 Mulliken charges:
               1
     1  C   -0.104071
     2  C   -0.000360
     3  N   -0.209789
     4  H    0.108028
     5  H    0.103199
     6  H    0.102993
 Sum of Mulliken charges =   0.00000

 Dipole moment (field-independent basis, Debye):
    X=             -4.1034    Y=             -0.0387    Z=              0.0386  Tot=              4.1037
 Quadrupole moment (field-independent basis, Debye-Ang):
   XX=            -21.3199   YY=            -17.6273   ZZ=            -17.7786
   XY=             -0.0976   XZ=              0.1181   YZ=             -0.0237

 Normal termination of Gaussian 09 at Wed Aug 26 14:10:34 2020.
