 Gaussian 09, Revision D.01,
 Gaussian 09:  ES64L-G09RevD.01 24-Apr-2013

 --------------------
 #p B2PLYPD3/Def2QZVP
 --------------------

 ------------
 cyanomethane
 ------------
 Symbolic Z-matrix:
 Charge =  0 Multiplicity = 1

                         Standard orientation:
 ---------------------------------------------------------------------
 Center     Atomic      Atomic             Coordinates (Angstroms)
 Number     Number       Type             X           Y           Z
 ---------------------------------------------------------------------
      1          6           0        1.170046   -0.020957    0.006409
      2          6           0       -0.273967    0.006306   -0.040949
      3          7           0       -1.443634   -0.001325    0.020396
      4          1           0        1.570751    1.034542   -0.056471
      5          1           0        1.584145   -0.538759   -0.778960
      6          1           0        1.574066   -0.398606    0.899900
 ---------------------------------------------------------------------

 SCF Done:  E(RB2PLYPD3) =  -132.528254798     A.U. after   12 cycles
 E2(B2PLYPD3) =    -0.1818588036D+00 E(B2PLYPD3) =    -0.13271011360197D+03

 The electronic state is 1-A.
 Alpha  occ. eigenvalues --  -14.84815 -10.66874 -10.66393  -1.03595  -0.89879
 Alpha  occ. eigenvalues --   -0.61312  -0.55080  -0.52816  -0.45031  -0.38903
 Alpha  occ. eigenvalues --   -0.38555
 Alpha virt. eigenvalues --    0.03735   0.07161   0.07915   0.10072   0.11168
 Alpha virt. eigenvalues --    0.11570   0.15584   0.16220   0.17029   0.20116
 Alpha virt. eigenvalues --    0.20232   0.25687   0.32577   0.34118   0.35660

 Mulliken charges:
               1
     1  C   -0.061201
     2  C    0.006372
     3  N   -0.213324
     4  H    0.083818
     5  H    0.092513
     6  H    0.091821
 Sum of Mulliken charges =   0.00000

 Dipole moment (field-independent basis, Debye):
    X=              4.1615    Y=             -0.0046    Z=             -0.0202  Tot=              4.1615
 Quadrupole moment (field-independent basis, Debye-Ang):
   XX=            -20.6935   YY=            -17.8723   ZZ=            -17.8473
   XY=             -0.0172   XZ=              0.1155   YZ=              0.0328

 Normal termination of Gaussian 09 at Wed Aug 26 16:06:14 2020.
