 Gaussian 09, Revision D.01,
 Gaussian 09:  ES64L-G09RevD.01 24-Apr-2013

 --------------------
 #p B2PLYPD3/Def2QZVP
 --------------------

 ------------
 cyanomethane
 ------------
 Symbolic Z-matrix:
 Charge =  0 Multiplicity = 1

                         Standard orientation:
 ---------------------------------------------------------------------
 Center     Atomic      Atomic             Coordinates (Angstroms)
 Number     Number       Type             X           Y           Z
 ---------------------------------------------------------------------
      1          6           0       -1.182776   -0.001220   -0.007999
      2          6           0        0.283616    0.017971    0.000131
      3          7           0        1.436886   -0.006711    0.002596
      4          1           0       -1.577157   -0.101158    0.986897
      5          1           0       -1.510028   -0.851281   -0.549035
      6          1           0       -1.576060    0.898913   -0.408829
 ---------------------------------------------------------------------

 SCF Done:  E(RB2PLYPD3) =  -132.534714906     A.U. after   11 cycles
 E2(B2PLYPD3) =    -0.1800900013D+00 E(B2PLYPD3) =    -0.13271480490740D+03

 The electronic state is 1-A.
 Alpha  occ. eigenvalues --  -14.84192 -10.66459 -10.66276  -1.04152  -0.89605
 Alpha  occ. eigenvalues --   -0.60030  -0.54990  -0.53639  -0.44796  -0.39277
 Alpha  occ. eigenvalues --   -0.39114
 Alpha virt. eigenvalues --    0.03863   0.08099   0.08352   0.10224   0.11247
 Alpha virt. eigenvalues --    0.11512   0.15389   0.16368   0.16555   0.20033
 Alpha virt. eigenvalues --    0.20129   0.25188   0.32801   0.34764   0.35385

 Mulliken charges:
               1
     1  C   -0.072186
     2  C   -0.001837
     3  N   -0.205940
     4  H    0.089317
     5  H    0.095928
     6  H    0.094718
 Sum of Mulliken charges =   0.00000

 Dipole moment (field-independent basis, Debye):
    X=             -4.1446    Y=              0.0004    Z=              0.0115  Tot=              4.1446
 Quadrupole moment (field-independent basis, Debye-Ang):
   XX=            -20.8586   YY=            -17.6474   ZZ=            -17.8509
   XY=              0.0130   XZ=             -0.0861   YZ=              0.0065

 Normal termination of Gaussian 09 at Wed Aug 26 14:18:45 2020.
