 Gaussian 09, Revision D.01,
 Gaussian 09:  ES64L-G09RevD.01 24-Apr-2013

 --------------------
 #p B2PLYPD3/Def2QZVP
 --------------------

 ------------
 cyanomethane
 ------------
 Symbolic Z-matrix:
 Charge =  0 Multiplicity = 1

                         Standard orientation:
 ---------------------------------------------------------------------
 Center     Atomic      Atomic             Coordinates (Angstroms)
 Number     Number       Type             X           Y           Z
 ---------------------------------------------------------------------
      1          6           0       -1.178728    0.001932   -0.002092
      2          6           0        0.272231   -0.006532    0.012929
      3          7           0        1.433440    0.004624   -0.011231
      4          1           0       -1.465775   -0.488146    0.891473
      5          1           0       -1.576625   -0.542001   -0.852517
      6          1           0       -1.552701    1.025377   -0.025358
 ---------------------------------------------------------------------

 SCF Done:  E(RB2PLYPD3) =  -132.533846755     A.U. after   12 cycles
 E2(B2PLYPD3) =    -0.1809338380D+00 E(B2PLYPD3) =    -0.13271478059311D+03

 The electronic state is 1-A.
 Alpha  occ. eigenvalues --  -14.84308 -10.66749 -10.66358  -1.03820  -0.89710
 Alpha  occ. eigenvalues --   -0.59690  -0.54814  -0.53990  -0.44750  -0.38864
 Alpha  occ. eigenvalues --   -0.38827
 Alpha virt. eigenvalues --    0.03799   0.07653   0.08292   0.10152   0.11332
 Alpha virt. eigenvalues --    0.11420   0.15409   0.15733   0.16654   0.20128
 Alpha virt. eigenvalues --    0.20166   0.25452   0.32782   0.34737   0.34764

 Mulliken charges:
               1
     1  C   -0.084664
     2  C   -0.001162
     3  N   -0.210676
     4  H    0.100489
     5  H    0.097170
     6  H    0.098844
 Sum of Mulliken charges =   0.00000

 Dipole moment (field-independent basis, Debye):
    X=             -4.1350    Y=             -0.0167    Z=              0.0240  Tot=              4.1351
 Quadrupole moment (field-independent basis, Debye-Ang):
   XX=            -21.0686   YY=            -17.6945   ZZ=            -17.7583
   XY=             -0.0253   XZ=              0.1254   YZ=             -0.0212

 Normal termination of Gaussian 09 at Thu Aug 27 00:07:53 2020.
