 Gaussian 09, Revision D.01,
 Gaussian 09:  ES64L-G09RevD.01 24-Apr-2013

 --------------------
 #p B2PLYPD3/Def2QZVP
 --------------------

 ------------
 cyanomethane
 ------------
 Symbolic Z-matrix:
 Charge =  0 Multiplicity = 1

                         Standard orientation:
 ---------------------------------------------------------------------
 Center     Atomic      Atomic             Coordinates (Angstroms)
 Number     Number       Type             X           Y           Z
 ---------------------------------------------------------------------
      1          6           0       -1.188974    0.028857    0.001981
      2          6           0        0.269476   -0.038721    0.013003
      3          7           0        1.416327    0.016836   -0.004506
      4          1           0       -1.442319    0.883072   -0.483039
      5          1           0       -1.497596   -0.068357    0.994591
      6          1           0       -1.457388   -0.873382   -0.569916
 ---------------------------------------------------------------------

 SCF Done:  E(RB2PLYPD3) =  -132.527979203     A.U. after   12 cycles
 E2(B2PLYPD3) =    -0.1796078793D+00 E(B2PLYPD3) =    -0.13270758708183D+03

 The electronic state is 1-A.
 Alpha  occ. eigenvalues --  -14.83684 -10.66106 -10.65704  -1.04211  -0.90378
 Alpha  occ. eigenvalues --   -0.58597  -0.56869  -0.54303  -0.44441  -0.39274
 Alpha  occ. eigenvalues --   -0.38890
 Alpha virt. eigenvalues --    0.03916   0.08615   0.08888   0.10128   0.11219
 Alpha virt. eigenvalues --    0.11635   0.15218   0.15353   0.16248   0.20068
 Alpha virt. eigenvalues --    0.20179   0.25346   0.32771   0.34102   0.35937

 Mulliken charges:
               1
     1  C   -0.097475
     2  C   -0.006904
     3  N   -0.207625
     4  H    0.109430
     5  H    0.104722
     6  H    0.097852
 Sum of Mulliken charges =   0.00000

 Dipole moment (field-independent basis, Debye):
    X=             -4.0822    Y=             -0.0375    Z=              0.0034  Tot=              4.0824
 Quadrupole moment (field-independent basis, Debye-Ang):
   XX=            -21.4111   YY=            -17.5460   ZZ=            -17.5397
   XY=             -0.0507   XZ=             -0.0154   YZ=             -0.0794

 Normal termination of Gaussian 09 at Wed Aug 26 22:33:50 2020.
