 Gaussian 09, Revision D.01,
 Gaussian 09:  ES64L-G09RevD.01 24-Apr-2013

 --------------------
 #p B2PLYPD3/Def2QZVP
 --------------------

 ------------
 cyanomethane
 ------------
 Symbolic Z-matrix:
 Charge =  0 Multiplicity = 1

                         Standard orientation:
 ---------------------------------------------------------------------
 Center     Atomic      Atomic             Coordinates (Angstroms)
 Number     Number       Type             X           Y           Z
 ---------------------------------------------------------------------
      1          6           0        1.162977   -0.021784    0.007097
      2          6           0       -0.274337   -0.003552   -0.041749
      3          7           0       -1.427018    0.004177    0.023927
      4          1           0        1.519349   -0.438899   -0.866383
      5          1           0        1.586273   -0.485739    0.867963
      6          1           0        1.551662    1.047418    0.038846
 ---------------------------------------------------------------------

 SCF Done:  E(RB2PLYPD3) =  -132.530312290     A.U. after   12 cycles
 E2(B2PLYPD3) =    -0.1804708001D+00 E(B2PLYPD3) =    -0.13271078309019D+03

 The electronic state is 1-A.
 Alpha  occ. eigenvalues --  -14.84226 -10.66534 -10.66205  -1.04210  -0.89837
 Alpha  occ. eigenvalues --   -0.60614  -0.55478  -0.52647  -0.44876  -0.39210
 Alpha  occ. eigenvalues --   -0.38786
 Alpha virt. eigenvalues --    0.03710   0.07336   0.08422   0.10066   0.11289
 Alpha virt. eigenvalues --    0.11823   0.15627   0.15929   0.17132   0.20017
 Alpha virt. eigenvalues --    0.20209   0.25819   0.32782   0.34005   0.35610

 Mulliken charges:
               1
     1  C   -0.074335
     2  C    0.001729
     3  N   -0.206444
     4  H    0.097125
     5  H    0.096234
     6  H    0.085691
 Sum of Mulliken charges =   0.00000

 Dipole moment (field-independent basis, Debye):
    X=              4.1192    Y=             -0.0005    Z=             -0.0379  Tot=              4.1194
 Quadrupole moment (field-independent basis, Debye-Ang):
   XX=            -20.8611   YY=            -17.8421   ZZ=            -17.6708
   XY=              0.0463   XZ=              0.1698   YZ=              0.0175

 Normal termination of Gaussian 09 at Wed Aug 26 15:28:25 2020.
