 Gaussian 09, Revision D.01,
 Gaussian 09:  ES64L-G09RevD.01 24-Apr-2013

 --------------------
 #p B2PLYPD3/Def2QZVP
 --------------------

 ------------
 cyanomethane
 ------------
 Symbolic Z-matrix:
 Charge =  0 Multiplicity = 1

                         Standard orientation:
 ---------------------------------------------------------------------
 Center     Atomic      Atomic             Coordinates (Angstroms)
 Number     Number       Type             X           Y           Z
 ---------------------------------------------------------------------
      1          6           0        1.178788   -0.014421    0.006379
      2          6           0       -0.294147   -0.064779   -0.006815
      3          7           0       -1.445314    0.047880    0.005341
      4          1           0        1.754398    0.980221   -0.273735
      5          1           0        1.453359   -0.661272   -0.636849
      6          1           0        1.601594   -0.178916    0.875814
 ---------------------------------------------------------------------

 SCF Done:  E(RB2PLYPD3) =  -132.499584381     A.U. after   12 cycles
 E2(B2PLYPD3) =    -0.1807103981D+00 E(B2PLYPD3) =    -0.13268029477888D+03

 The electronic state is 1-A.
 Alpha  occ. eigenvalues --  -14.84644 -10.66713 -10.65484  -1.04275  -0.90581
 Alpha  occ. eigenvalues --   -0.61630  -0.57054  -0.51114  -0.45126  -0.39613
 Alpha  occ. eigenvalues --   -0.39033
 Alpha virt. eigenvalues --    0.03101   0.07291   0.09270   0.09953   0.11026
 Alpha virt. eigenvalues --    0.11720   0.15466   0.16241   0.17859   0.19875
 Alpha virt. eigenvalues --    0.20603   0.25328   0.31893   0.33941   0.36634

 Mulliken charges:
               1
     1  C   -0.067366
     2  C    0.010887
     3  N   -0.204705
     4  H    0.074390
     5  H    0.099661
     6  H    0.087134
 Sum of Mulliken charges =   0.00000

 Dipole moment (field-independent basis, Debye):
    X=              4.1388    Y=             -0.1254    Z=              0.0218  Tot=              4.1408
 Quadrupole moment (field-independent basis, Debye-Ang):
   XX=            -20.3189   YY=            -17.8917   ZZ=            -17.8785
   XY=              0.3521   XZ=              0.1332   YZ=              0.1404

 Normal termination of Gaussian 09 at Wed Aug 26 20:16:39 2020.
