 Gaussian 09, Revision D.01,
 Gaussian 09:  ES64L-G09RevD.01 24-Apr-2013

 --------------------
 #p B2PLYPD3/Def2QZVP
 --------------------

 ------------
 cyanomethane
 ------------
 Symbolic Z-matrix:
 Charge =  0 Multiplicity = 1

                         Standard orientation:
 ---------------------------------------------------------------------
 Center     Atomic      Atomic             Coordinates (Angstroms)
 Number     Number       Type             X           Y           Z
 ---------------------------------------------------------------------
      1          6           0        1.180564   -0.009172   -0.005917
      2          6           0       -0.280024    0.012513    0.036268
      3          7           0       -1.425030   -0.004113   -0.020252
      4          1           0        1.552092    0.960541   -0.371176
      5          1           0        1.523844   -0.789772   -0.647559
      6          1           0        1.496033   -0.162026    0.978393
 ---------------------------------------------------------------------

 SCF Done:  E(RB2PLYPD3) =  -132.534200943     A.U. after   11 cycles
 E2(B2PLYPD3) =    -0.1795641332D+00 E(B2PLYPD3) =    -0.13271376507572D+03

 The electronic state is 1-A.
 Alpha  occ. eigenvalues --  -14.83870 -10.66566 -10.65890  -1.04382  -0.89648
 Alpha  occ. eigenvalues --   -0.59309  -0.55120  -0.53981  -0.44664  -0.39302
 Alpha  occ. eigenvalues --   -0.39208
 Alpha virt. eigenvalues --    0.03811   0.08044   0.08756   0.10176   0.11381
 Alpha virt. eigenvalues --    0.11554   0.15436   0.15764   0.16663   0.20035
 Alpha virt. eigenvalues --    0.20097   0.25373   0.32941   0.34621   0.35150

 Mulliken charges:
               1
     1  C   -0.086603
     2  C   -0.004823
     3  N   -0.203251
     4  H    0.095693
     5  H    0.099867
     6  H    0.099117
 Sum of Mulliken charges =   0.00000

 Dipole moment (field-independent basis, Debye):
    X=              4.1047    Y=              0.0013    Z=              0.0387  Tot=              4.1049
 Quadrupole moment (field-independent basis, Debye-Ang):
   XX=            -21.0847   YY=            -17.6556   ZZ=            -17.6612
   XY=             -0.0058   XZ=             -0.1244   YZ=              0.0143

 Normal termination of Gaussian 09 at Wed Aug 26 12:59:49 2020.
