 Gaussian 09, Revision D.01,
 Gaussian 09:  ES64L-G09RevD.01 24-Apr-2013

 --------------------
 #p B2PLYPD3/Def2QZVP
 --------------------

 ------------
 cyanomethane
 ------------
 Symbolic Z-matrix:
 Charge =  0 Multiplicity = 1

                         Standard orientation:
 ---------------------------------------------------------------------
 Center     Atomic      Atomic             Coordinates (Angstroms)
 Number     Number       Type             X           Y           Z
 ---------------------------------------------------------------------
      1          6           0        1.178119    0.006553    0.004013
      2          6           0       -0.285496   -0.023653    0.000395
      3          7           0       -1.433926    0.012771    0.001075
      4          1           0        1.579707   -0.271873    0.974460
      5          1           0        1.567615    1.006318   -0.267773
      6          1           0        1.534422   -0.721241   -0.740662
 ---------------------------------------------------------------------

 SCF Done:  E(RB2PLYPD3) =  -132.535350732     A.U. after   12 cycles
 E2(B2PLYPD3) =    -0.1801260967D+00 E(B2PLYPD3) =    -0.13271547682830D+03

 The electronic state is 1-A.
 Alpha  occ. eigenvalues --  -14.84079 -10.67419 -10.66156  -1.04344  -0.88860
 Alpha  occ. eigenvalues --   -0.59616  -0.53703  -0.53449  -0.44794  -0.39261
 Alpha  occ. eigenvalues --   -0.39175
 Alpha virt. eigenvalues --    0.03698   0.07759   0.08072   0.10182   0.11488
 Alpha virt. eigenvalues --    0.11554   0.15376   0.16086   0.16788   0.20043
 Alpha virt. eigenvalues --    0.20069   0.25283   0.32687   0.34320   0.34721

 Mulliken charges:
               1
     1  C   -0.086176
     2  C   -0.001556
     3  N   -0.202617
     4  H    0.097141
     5  H    0.097347
     6  H    0.095861
 Sum of Mulliken charges =   0.00000

 Dipole moment (field-independent basis, Debye):
    X=              4.1179    Y=             -0.0251    Z=             -0.0026  Tot=              4.1180
 Quadrupole moment (field-independent basis, Debye-Ang):
   XX=            -20.9785   YY=            -17.7465   ZZ=            -17.7769
   XY=              0.0745   XZ=              0.0328   YZ=             -0.0075

 Normal termination of Gaussian 09 at Wed Aug 26 23:55:35 2020.
