 Gaussian 09, Revision D.01,
 Gaussian 09:  ES64L-G09RevD.01 24-Apr-2013

 --------------------
 #p B2PLYPD3/Def2QZVP
 --------------------

 ------------
 cyanomethane
 ------------
 Symbolic Z-matrix:
 Charge =  0 Multiplicity = 1

                         Standard orientation:
 ---------------------------------------------------------------------
 Center     Atomic      Atomic             Coordinates (Angstroms)
 Number     Number       Type             X           Y           Z
 ---------------------------------------------------------------------
      1          6           0        1.156433   -0.025184   -0.014481
      2          6           0       -0.276044    0.069753    0.006322
      3          7           0       -1.434552   -0.041239   -0.009470
      4          1           0        1.505939    1.000296   -0.155165
      5          1           0        1.739774   -0.655688   -0.707334
      6          1           0        1.513818   -0.323343    0.977745
 ---------------------------------------------------------------------

 SCF Done:  E(RB2PLYPD3) =  -132.525924480     A.U. after   13 cycles
 E2(B2PLYPD3) =    -0.1819545422D+00 E(B2PLYPD3) =    -0.13270787902266D+03

 The electronic state is 1-A.
 Alpha  occ. eigenvalues --  -14.84673 -10.67091 -10.66705  -1.03985  -0.89392
 Alpha  occ. eigenvalues --   -0.61313  -0.53527  -0.52622  -0.45095  -0.38800
 Alpha  occ. eigenvalues --   -0.38685
 Alpha virt. eigenvalues --    0.03513   0.06565   0.07889   0.09757   0.11525
 Alpha virt. eigenvalues --    0.11740   0.15339   0.15773   0.18090   0.20056
 Alpha virt. eigenvalues --    0.20755   0.26187   0.33013   0.34116   0.34447

 Mulliken charges:
               1
     1  C   -0.077132
     2  C    0.012587
     3  N   -0.209111
     4  H    0.088018
     5  H    0.095839
     6  H    0.089800
 Sum of Mulliken charges =   0.00000

 Dipole moment (field-independent basis, Debye):
    X=              4.1289    Y=              0.0725    Z=              0.0441  Tot=              4.1297
 Quadrupole moment (field-independent basis, Debye-Ang):
   XX=            -20.6419   YY=            -17.8603   ZZ=            -17.9581
   XY=             -0.3057   XZ=             -0.0972   YZ=             -0.0064

 Normal termination of Gaussian 09 at Wed Aug 26 22:15:35 2020.
