 Gaussian 09, Revision D.01,
 Gaussian 09:  ES64L-G09RevD.01 24-Apr-2013

 --------------------
 #p B2PLYPD3/Def2QZVP
 --------------------

 ------------
 cyanomethane
 ------------
 Symbolic Z-matrix:
 Charge =  0 Multiplicity = 1

                         Standard orientation:
 ---------------------------------------------------------------------
 Center     Atomic      Atomic             Coordinates (Angstroms)
 Number     Number       Type             X           Y           Z
 ---------------------------------------------------------------------
      1          6           0        1.168537    0.000962    0.001341
      2          6           0       -0.278634   -0.008562    0.001221
      3          7           0       -1.431195    0.009329   -0.001817
      4          1           0        1.625246    0.917576   -0.459605
      5          1           0        1.511771   -0.873037   -0.557929
      6          1           0        1.541925   -0.064240    1.014883
 ---------------------------------------------------------------------

 SCF Done:  E(RB2PLYPD3) =  -132.534360367     A.U. after   12 cycles
 E2(B2PLYPD3) =    -0.1804756279D+00 E(B2PLYPD3) =    -0.13271483599450D+03

 The electronic state is 1-A.
 Alpha  occ. eigenvalues --  -14.84171 -10.67289 -10.66208  -1.04240  -0.89168
 Alpha  occ. eigenvalues --   -0.59983  -0.54053  -0.53156  -0.44836  -0.39071
 Alpha  occ. eigenvalues --   -0.39029
 Alpha virt. eigenvalues --    0.03701   0.07425   0.08039   0.10155   0.11534
 Alpha virt. eigenvalues --    0.11618   0.15478   0.16051   0.16867   0.20068
 Alpha virt. eigenvalues --    0.20121   0.25546   0.32741   0.34391   0.34605

 Mulliken charges:
               1
     1  C   -0.083650
     2  C   -0.000131
     3  N   -0.204831
     4  H    0.094406
     5  H    0.097302
     6  H    0.096904
 Sum of Mulliken charges =   0.00000

 Dipole moment (field-independent basis, Debye):
    X=              4.1211    Y=             -0.0254    Z=              0.0132  Tot=              4.1212
 Quadrupole moment (field-independent basis, Debye-Ang):
   XX=            -20.9491   YY=            -17.7547   ZZ=            -17.7909
   XY=              0.1113   XZ=             -0.0029   YZ=              0.0223

 Normal termination of Gaussian 09 at Wed Aug 26 23:54:23 2020.
