 Gaussian 09, Revision D.01,
 Gaussian 09:  ES64L-G09RevD.01 24-Apr-2013

 --------------------
 #p B2PLYPD3/Def2QZVP
 --------------------

 ------------
 cyanomethane
 ------------
 Symbolic Z-matrix:
 Charge =  0 Multiplicity = 1

                         Standard orientation:
 ---------------------------------------------------------------------
 Center     Atomic      Atomic             Coordinates (Angstroms)
 Number     Number       Type             X           Y           Z
 ---------------------------------------------------------------------
      1          6           0        1.161104   -0.038481   -0.022651
      2          6           0       -0.293600    0.068697    0.005221
      3          7           0       -1.424044   -0.029065    0.001605
      4          1           0        1.547443   -0.691608   -0.830455
      5          1           0        1.593485   -0.402313    1.061941
      6          1           0        1.622352    1.116080   -0.138138
 ---------------------------------------------------------------------

 SCF Done:  E(RB2PLYPD3) =  -132.511271814     A.U. after   12 cycles
 E2(B2PLYPD3) =    -0.1806334742D+00 E(B2PLYPD3) =    -0.13269190528799D+03

 The electronic state is 1-A.
 Alpha  occ. eigenvalues --  -14.83844 -10.70003 -10.65872  -1.05084  -0.87039
 Alpha  occ. eigenvalues --   -0.58847  -0.52779  -0.50185  -0.44901  -0.39613
 Alpha  occ. eigenvalues --   -0.38897
 Alpha virt. eigenvalues --    0.03007   0.06185   0.07112   0.10014   0.11756
 Alpha virt. eigenvalues --    0.12175   0.15320   0.15704   0.17411   0.19845
 Alpha virt. eigenvalues --    0.20033   0.25713   0.30562   0.31896   0.34578

 Mulliken charges:
               1
     1  C   -0.123168
     2  C    0.007969
     3  N   -0.190589
     4  H    0.116523
     5  H    0.098710
     6  H    0.090555
 Sum of Mulliken charges =   0.00000

 Dipole moment (field-independent basis, Debye):
    X=              4.0028    Y=              0.0193    Z=             -0.0049  Tot=              4.0029
 Quadrupole moment (field-independent basis, Debye-Ang):
   XX=            -21.2536   YY=            -17.8406   ZZ=            -17.7884
   XY=             -0.1744   XZ=              0.0512   YZ=              0.1414

 Normal termination of Gaussian 09 at Wed Aug 26 22:22:26 2020.
