 Gaussian 09, Revision D.01,
 Gaussian 09:  ES64L-G09RevD.01 24-Apr-2013

 --------------------
 #p B2PLYPD3/Def2QZVP
 --------------------

 ------------
 cyanomethane
 ------------
 Symbolic Z-matrix:
 Charge =  0 Multiplicity = 1

                         Standard orientation:
 ---------------------------------------------------------------------
 Center     Atomic      Atomic             Coordinates (Angstroms)
 Number     Number       Type             X           Y           Z
 ---------------------------------------------------------------------
      1          6           0       -1.174105    0.007304   -0.010529
      2          6           0        0.276470    0.031893   -0.021468
      3          7           0        1.421620   -0.010631    0.011043
      4          1           0       -1.482948   -0.292880    0.959352
      5          1           0       -1.469817   -0.817928   -0.615869
      6          1           0       -1.612765    0.950039   -0.228802
 ---------------------------------------------------------------------

 SCF Done:  E(RB2PLYPD3) =  -132.532805217     A.U. after   12 cycles
 E2(B2PLYPD3) =    -0.1795213879D+00 E(B2PLYPD3) =    -0.13271232660487D+03

 The electronic state is 1-A.
 Alpha  occ. eigenvalues --  -14.83829 -10.66227 -10.65865  -1.04407  -0.90040
 Alpha  occ. eigenvalues --   -0.59823  -0.55909  -0.53437  -0.44667  -0.39425
 Alpha  occ. eigenvalues --   -0.38972
 Alpha virt. eigenvalues --    0.03880   0.08299   0.08500   0.10206   0.11220
 Alpha virt. eigenvalues --    0.11878   0.15460   0.15848   0.16917   0.19951
 Alpha virt. eigenvalues --    0.20203   0.25488   0.33021   0.34281   0.35810

 Mulliken charges:
               1
     1  C   -0.079560
     2  C   -0.003087
     3  N   -0.204066
     4  H    0.090314
     5  H    0.096315
     6  H    0.100083
 Sum of Mulliken charges =   0.00000

 Dipole moment (field-independent basis, Debye):
    X=             -4.1201    Y=             -0.0270    Z=              0.0346  Tot=              4.1203
 Quadrupole moment (field-independent basis, Debye-Ang):
   XX=            -21.0046   YY=            -17.4027   ZZ=            -17.9193
   XY=              0.0402   XZ=             -0.1656   YZ=              0.0028

 Normal termination of Gaussian 09 at Wed Aug 26 22:23:15 2020.
