 Gaussian 09, Revision D.01,
 Gaussian 09:  ES64L-G09RevD.01 24-Apr-2013

 --------------------
 #p B2PLYPD3/Def2QZVP
 --------------------

 ------------
 cyanomethane
 ------------
 Symbolic Z-matrix:
 Charge =  0 Multiplicity = 1

                         Standard orientation:
 ---------------------------------------------------------------------
 Center     Atomic      Atomic             Coordinates (Angstroms)
 Number     Number       Type             X           Y           Z
 ---------------------------------------------------------------------
      1          6           0       -1.168017    0.001980   -0.003907
      2          6           0        0.273540   -0.016814    0.006822
      3          7           0        1.433625    0.009465   -0.002477
      4          1           0       -1.565313    0.001783    1.008895
      5          1           0       -1.541250   -0.868338   -0.510028
      6          1           0       -1.561951    0.889303   -0.499017
 ---------------------------------------------------------------------

 SCF Done:  E(RB2PLYPD3) =  -132.534903405     A.U. after   11 cycles
 E2(B2PLYPD3) =    -0.1809250822D+00 E(B2PLYPD3) =    -0.13271582848753D+03

 The electronic state is 1-A.
 Alpha  occ. eigenvalues --  -14.84380 -10.66791 -10.66399  -1.03946  -0.89603
 Alpha  occ. eigenvalues --   -0.60371  -0.54272  -0.53695  -0.44872  -0.38915
 Alpha  occ. eigenvalues --   -0.38857
 Alpha virt. eigenvalues --    0.03784   0.07589   0.07897   0.10133   0.11413
 Alpha virt. eigenvalues --    0.11530   0.15547   0.16247   0.16612   0.20104
 Alpha virt. eigenvalues --    0.20150   0.25651   0.32893   0.34620   0.34832

 Mulliken charges:
               1
     1  C   -0.075109
     2  C    0.000733
     3  N   -0.209022
     4  H    0.093151
     5  H    0.095555
     6  H    0.094691
 Sum of Mulliken charges =   0.00000

 Dipole moment (field-independent basis, Debye):
    X=             -4.1388    Y=             -0.0141    Z=              0.0058  Tot=              4.1388
 Quadrupole moment (field-independent basis, Debye-Ang):
   XX=            -20.8962   YY=            -17.7558   ZZ=            -17.8011
   XY=             -0.0652   XZ=             -0.0052   YZ=              0.0143

 Normal termination of Gaussian 09 at Wed Aug 26 23:44:32 2020.
