 Gaussian 09, Revision D.01,
 Gaussian 09:  ES64L-G09RevD.01 24-Apr-2013

 --------------------
 #p B2PLYPD3/Def2QZVP
 --------------------

 ------------
 cyanomethane
 ------------
 Symbolic Z-matrix:
 Charge =  0 Multiplicity = 1

                         Standard orientation:
 ---------------------------------------------------------------------
 Center     Atomic      Atomic             Coordinates (Angstroms)
 Number     Number       Type             X           Y           Z
 ---------------------------------------------------------------------
      1          6           0       -1.197963   -0.029260   -0.011284
      2          6           0        0.293064   -0.009307   -0.059806
      3          7           0        1.430283    0.005943    0.035193
      4          1           0       -1.564039    0.135663    0.970502
      5          1           0       -1.532778   -0.833125   -0.327119
      6          1           0       -1.485773    0.887262   -0.463196
 ---------------------------------------------------------------------

 SCF Done:  E(RB2PLYPD3) =  -132.508549065     A.U. after   12 cycles
 E2(B2PLYPD3) =    -0.1788265066D+00 E(B2PLYPD3) =    -0.13268737557133D+03

 The electronic state is 1-A.
 Alpha  occ. eigenvalues --  -14.83810 -10.65894 -10.65146  -1.04588  -0.90674
 Alpha  occ. eigenvalues --   -0.60429  -0.58118  -0.52395  -0.44671  -0.39951
 Alpha  occ. eigenvalues --   -0.39228
 Alpha virt. eigenvalues --    0.03846   0.08357   0.09814   0.10209   0.10768
 Alpha virt. eigenvalues --    0.11779   0.15419   0.16039   0.17018   0.19863
 Alpha virt. eigenvalues --    0.20159   0.24838   0.32985   0.34167   0.36424

 Mulliken charges:
               1
     1  C   -0.078046
     2  C   -0.002824
     3  N   -0.200146
     4  H    0.079655
     5  H    0.109563
     6  H    0.091798
 Sum of Mulliken charges =   0.00000

 Dipole moment (field-independent basis, Debye):
    X=             -4.1270    Y=              0.0359    Z=             -0.0024  Tot=              4.1271
 Quadrupole moment (field-independent basis, Debye-Ang):
   XX=            -20.7953   YY=            -17.3639   ZZ=            -17.9263
   XY=             -0.0919   XZ=             -0.3706   YZ=              0.0826

 Normal termination of Gaussian 09 at Wed Aug 26 19:49:00 2020.
