 Gaussian 09, Revision D.01,
 Gaussian 09:  ES64L-G09RevD.01 24-Apr-2013

 --------------------
 #p B2PLYPD3/Def2QZVP
 --------------------

 ------------
 cyanomethane
 ------------
 Symbolic Z-matrix:
 Charge =  0 Multiplicity = 1

                         Standard orientation:
 ---------------------------------------------------------------------
 Center     Atomic      Atomic             Coordinates (Angstroms)
 Number     Number       Type             X           Y           Z
 ---------------------------------------------------------------------
      1          6           0        1.181983    0.020741    0.007125
      2          6           0       -0.272134   -0.024084   -0.021609
      3          7           0       -1.434095    0.008253    0.006485
      4          1           0        1.509190    1.030599   -0.198195
      5          1           0        1.585981   -0.720050   -0.762134
      6          1           0        1.484404   -0.348259    1.001839
 ---------------------------------------------------------------------

 SCF Done:  E(RB2PLYPD3) =  -132.531742104     A.U. after   12 cycles
 E2(B2PLYPD3) =    -0.1814558632D+00 E(B2PLYPD3) =    -0.13271319796726D+03

 The electronic state is 1-A.
 Alpha  occ. eigenvalues --  -14.84307 -10.67760 -10.66376  -1.03732  -0.89007
 Alpha  occ. eigenvalues --   -0.58915  -0.54852  -0.52937  -0.44700  -0.38861
 Alpha  occ. eigenvalues --   -0.38586
 Alpha virt. eigenvalues --    0.03629   0.07412   0.07854   0.10131   0.11267
 Alpha virt. eigenvalues --    0.11549   0.15224   0.15700   0.16317   0.20092
 Alpha virt. eigenvalues --    0.20174   0.25414   0.32238   0.33723   0.34826

 Mulliken charges:
               1
     1  C   -0.100801
     2  C    0.000185
     3  N   -0.210907
     4  H    0.109519
     5  H    0.097560
     6  H    0.104443
 Sum of Mulliken charges =   0.00000

 Dipole moment (field-independent basis, Debye):
    X=              4.1142    Y=             -0.0191    Z=              0.0047  Tot=              4.1142
 Quadrupole moment (field-independent basis, Debye-Ang):
   XX=            -21.2968   YY=            -17.6358   ZZ=            -17.8228
   XY=             -0.0214   XZ=             -0.0084   YZ=             -0.0605

 Normal termination of Gaussian 09 at Wed Aug 26 16:07:22 2020.
