 Gaussian 09, Revision D.01,
 Gaussian 09:  ES64L-G09RevD.01 24-Apr-2013

 --------------------
 #p B2PLYPD3/Def2QZVP
 --------------------

 ------------
 cyanomethane
 ------------
 Symbolic Z-matrix:
 Charge =  0 Multiplicity = 1

                         Standard orientation:
 ---------------------------------------------------------------------
 Center     Atomic      Atomic             Coordinates (Angstroms)
 Number     Number       Type             X           Y           Z
 ---------------------------------------------------------------------
      1          6           0        1.176233    0.003887    0.007023
      2          6           0       -0.278878   -0.001946   -0.032102
      3          7           0       -1.443640    0.000163    0.007867
      4          1           0        1.593051    1.031551   -0.168843
      5          1           0        1.666531   -0.711918   -0.688975
      6          1           0        1.461767   -0.332419    0.953228
 ---------------------------------------------------------------------

 SCF Done:  E(RB2PLYPD3) =  -132.530625017     A.U. after   12 cycles
 E2(B2PLYPD3) =    -0.1815773751D+00 E(B2PLYPD3) =    -0.13271220239236D+03

 The electronic state is 1-A.
 Alpha  occ. eigenvalues --  -14.84604 -10.67226 -10.66714  -1.03762  -0.89237
 Alpha  occ. eigenvalues --   -0.60299  -0.54164  -0.52949  -0.44930  -0.38895
 Alpha  occ. eigenvalues --   -0.38778
 Alpha virt. eigenvalues --    0.03695   0.07158   0.07848   0.10192   0.11279
 Alpha virt. eigenvalues --    0.11536   0.15371   0.16013   0.17027   0.20099
 Alpha virt. eigenvalues --    0.20173   0.25427   0.32216   0.34468   0.34871

 Mulliken charges:
               1
     1  C   -0.078023
     2  C    0.003758
     3  N   -0.210674
     4  H    0.096049
     5  H    0.090098
     6  H    0.098792
 Sum of Mulliken charges =   0.00000

 Dipole moment (field-independent basis, Debye):
    X=              4.1526    Y=             -0.0297    Z=              0.0334  Tot=              4.1529
 Quadrupole moment (field-independent basis, Debye-Ang):
   XX=            -20.8435   YY=            -17.6965   ZZ=            -18.0004
   XY=             -0.0780   XZ=              0.0024   YZ=             -0.0459

 Normal termination of Gaussian 09 at Wed Aug 26 14:03:35 2020.
