 Gaussian 09, Revision D.01,
 Gaussian 09:  ES64L-G09RevD.01 24-Apr-2013

 --------------------
 #p B2PLYPD3/Def2QZVP
 --------------------

 ------------
 cyanomethane
 ------------
 Symbolic Z-matrix:
 Charge =  0 Multiplicity = 1

                         Standard orientation:
 ---------------------------------------------------------------------
 Center     Atomic      Atomic             Coordinates (Angstroms)
 Number     Number       Type             X           Y           Z
 ---------------------------------------------------------------------
      1          6           0        1.174925   -0.002589   -0.011794
      2          6           0       -0.275903    0.014890    0.011274
      3          7           0       -1.432073   -0.007991   -0.005060
      4          1           0        1.537764    1.021463   -0.081077
      5          1           0        1.551554   -0.601553   -0.816380
      6          1           0        1.541058   -0.437773    0.935992
 ---------------------------------------------------------------------

 SCF Done:  E(RB2PLYPD3) =  -132.535049625     A.U. after   11 cycles
 E2(B2PLYPD3) =    -0.1806218404D+00 E(B2PLYPD3) =    -0.13271567146544D+03

 The electronic state is 1-A.
 Alpha  occ. eigenvalues --  -14.84214 -10.67041 -10.66255  -1.04038  -0.89379
 Alpha  occ. eigenvalues --   -0.59778  -0.54500  -0.53544  -0.44779  -0.39051
 Alpha  occ. eigenvalues --   -0.38884
 Alpha virt. eigenvalues --    0.03766   0.07786   0.07973   0.10148   0.11378
 Alpha virt. eigenvalues --    0.11559   0.15443   0.16001   0.16582   0.20081
 Alpha virt. eigenvalues --    0.20136   0.25478   0.32771   0.34222   0.35009

 Mulliken charges:
               1
     1  C   -0.084692
     2  C   -0.000970
     3  N   -0.207491
     4  H    0.098352
     5  H    0.100012
     6  H    0.094790
 Sum of Mulliken charges =   0.00000

 Dipole moment (field-independent basis, Debye):
    X=              4.1251    Y=              0.0053    Z=              0.0130  Tot=              4.1252
 Quadrupole moment (field-independent basis, Debye-Ang):
   XX=            -21.0382   YY=            -17.6940   ZZ=            -17.7848
   XY=             -0.0669   XZ=             -0.0172   YZ=              0.0316

 Normal termination of Gaussian 09 at Wed Aug 26 09:33:44 2020.
