 Gaussian 09, Revision D.01,
 Gaussian 09:  ES64L-G09RevD.01 24-Apr-2013

 --------------------
 #p B2PLYPD3/Def2QZVP
 --------------------

 ------------
 cyanomethane
 ------------
 Symbolic Z-matrix:
 Charge =  0 Multiplicity = 1

                         Standard orientation:
 ---------------------------------------------------------------------
 Center     Atomic      Atomic             Coordinates (Angstroms)
 Number     Number       Type             X           Y           Z
 ---------------------------------------------------------------------
      1          6           0       -1.162228    0.013659    0.008463
      2          6           0        0.278628    0.009288   -0.026647
      3          7           0        1.430500   -0.014295    0.016843
      4          1           0       -1.452893    0.945880   -0.375057
      5          1           0       -1.637697   -0.157811    0.987690
      6          1           0       -1.621307   -0.825681   -0.621431
 ---------------------------------------------------------------------

 SCF Done:  E(RB2PLYPD3) =  -132.529653531     A.U. after   12 cycles
 E2(B2PLYPD3) =    -0.1806527040D+00 E(B2PLYPD3) =    -0.13271030623521D+03

 The electronic state is 1-A.
 Alpha  occ. eigenvalues --  -14.84244 -10.67177 -10.66260  -1.04302  -0.89331
 Alpha  occ. eigenvalues --   -0.60466  -0.54920  -0.51979  -0.44914  -0.39181
 Alpha  occ. eigenvalues --   -0.38867
 Alpha virt. eigenvalues --    0.03644   0.06929   0.08252   0.10107   0.11373
 Alpha virt. eigenvalues --    0.11874   0.15456   0.16154   0.17172   0.19984
 Alpha virt. eigenvalues --    0.20237   0.25724   0.32590   0.34040   0.35087

 Mulliken charges:
               1
     1  C   -0.078873
     2  C    0.002158
     3  N   -0.204665
     4  H    0.100751
     5  H    0.092940
     6  H    0.087688
 Sum of Mulliken charges =   0.00000

 Dipole moment (field-independent basis, Debye):
    X=             -4.1193    Y=              0.0238    Z=             -0.0155  Tot=              4.1194
 Quadrupole moment (field-independent basis, Debye-Ang):
   XX=            -20.8273   YY=            -17.7022   ZZ=            -17.9221
   XY=              0.2201   XZ=             -0.1791   YZ=             -0.0846

 Normal termination of Gaussian 09 at Wed Aug 26 13:58:49 2020.
