 Gaussian 09, Revision D.01,
 Gaussian 09:  ES64L-G09RevD.01 24-Apr-2013

 --------------------
 #p B2PLYPD3/Def2QZVP
 --------------------

 ------------
 cyanomethane
 ------------
 Symbolic Z-matrix:
 Charge =  0 Multiplicity = 1

                         Standard orientation:
 ---------------------------------------------------------------------
 Center     Atomic      Atomic             Coordinates (Angstroms)
 Number     Number       Type             X           Y           Z
 ---------------------------------------------------------------------
      1          6           0       -1.182246    0.002822    0.005201
      2          6           0        0.274276   -0.002453    0.020966
      3          7           0        1.438928    0.002628   -0.012241
      4          1           0       -1.527819   -0.190382    0.990635
      5          1           0       -1.531675   -0.822757   -0.684775
      6          1           0       -1.565180    0.992530   -0.377176
 ---------------------------------------------------------------------

 SCF Done:  E(RB2PLYPD3) =  -132.531646194     A.U. after   12 cycles
 E2(B2PLYPD3) =    -0.1816275240D+00 E(B2PLYPD3) =    -0.13271327371827D+03

 The electronic state is 1-A.
 Alpha  occ. eigenvalues --  -14.84444 -10.67707 -10.66525  -1.03665  -0.88985
 Alpha  occ. eigenvalues --   -0.59267  -0.54398  -0.53082  -0.44770  -0.38815
 Alpha  occ. eigenvalues --   -0.38639
 Alpha virt. eigenvalues --    0.03585   0.07217   0.07978   0.10150   0.11232
 Alpha virt. eigenvalues --    0.11491   0.15290   0.15873   0.16342   0.20110
 Alpha virt. eigenvalues --    0.20168   0.25333   0.32386   0.33752   0.34617

 Mulliken charges:
               1
     1  C   -0.095578
     2  C    0.000588
     3  N   -0.211126
     4  H    0.104497
     5  H    0.099931
     6  H    0.101689
 Sum of Mulliken charges =   0.00000

 Dipole moment (field-independent basis, Debye):
    X=             -4.1286    Y=             -0.0128    Z=              0.0256  Tot=              4.1287
 Quadrupole moment (field-independent basis, Debye-Ang):
   XX=            -21.1849   YY=            -17.7413   ZZ=            -17.7913
   XY=             -0.0193   XZ=              0.0578   YZ=             -0.0280

 Normal termination of Gaussian 09 at Wed Aug 26 10:10:05 2020.
