 Gaussian 09, Revision D.01,
 Gaussian 09:  ES64L-G09RevD.01 24-Apr-2013

 --------------------
 #p B2PLYPD3/Def2QZVP
 --------------------

 ------------
 cyanomethane
 ------------
 Symbolic Z-matrix:
 Charge =  0 Multiplicity = 1

                         Standard orientation:
 ---------------------------------------------------------------------
 Center     Atomic      Atomic             Coordinates (Angstroms)
 Number     Number       Type             X           Y           Z
 ---------------------------------------------------------------------
      1          6           0        1.200251    0.012843    0.005567
      2          6           0       -0.278307    0.050160   -0.004741
      3          7           0       -1.440069   -0.031933   -0.004995
      4          1           0        1.495513    0.929202   -0.390277
      5          1           0        1.620032   -0.894405   -0.626953
      6          1           0        1.433280   -0.189281    1.047240
 ---------------------------------------------------------------------

 SCF Done:  E(RB2PLYPD3) =  -132.523959825     A.U. after   12 cycles
 E2(B2PLYPD3) =    -0.1817418901D+00 E(B2PLYPD3) =    -0.13270570171460D+03

 The electronic state is 1-A.
 Alpha  occ. eigenvalues --  -14.84365 -10.67843 -10.66474  -1.03596  -0.88941
 Alpha  occ. eigenvalues --   -0.58195  -0.56138  -0.52086  -0.44622  -0.38950
 Alpha  occ. eigenvalues --   -0.38548
 Alpha virt. eigenvalues --    0.03347   0.07092   0.08754   0.10155   0.10841
 Alpha virt. eigenvalues --    0.11520   0.15065   0.15350   0.16373   0.20041
 Alpha virt. eigenvalues --    0.20219   0.24969   0.31829   0.33331   0.35198

 Mulliken charges:
               1
     1  C   -0.105375
     2  C   -0.001954
     3  N   -0.211407
     4  H    0.112274
     5  H    0.096648
     6  H    0.109814
 Sum of Mulliken charges =   0.00000

 Dipole moment (field-independent basis, Debye):
    X=              4.1107    Y=              0.0383    Z=              0.0273  Tot=              4.1110
 Quadrupole moment (field-independent basis, Debye-Ang):
   XX=            -21.3799   YY=            -17.6775   ZZ=            -17.7720
   XY=             -0.2604   XZ=             -0.1151   YZ=             -0.1283

 Normal termination of Gaussian 09 at Wed Aug 26 19:47:21 2020.
