 Gaussian 09, Revision D.01,
 Gaussian 09:  ES64L-G09RevD.01 24-Apr-2013

 --------------------
 #p B2PLYPD3/Def2QZVP
 --------------------

 ------------
 cyanomethane
 ------------
 Symbolic Z-matrix:
 Charge =  0 Multiplicity = 1

                         Standard orientation:
 ---------------------------------------------------------------------
 Center     Atomic      Atomic             Coordinates (Angstroms)
 Number     Number       Type             X           Y           Z
 ---------------------------------------------------------------------
      1          6           0        1.177543    0.007381   -0.003717
      2          6           0       -0.272270    0.000154   -0.023975
      3          7           0       -1.433202   -0.002234    0.010845
      4          1           0        1.517213    1.029388   -0.045778
      5          1           0        1.567007   -0.597465   -0.810815
      6          1           0        1.516555   -0.461494    0.946823
 ---------------------------------------------------------------------

 SCF Done:  E(RB2PLYPD3) =  -132.534215181     A.U. after   11 cycles
 E2(B2PLYPD3) =    -0.1810709647D+00 E(B2PLYPD3) =    -0.13271528614589D+03

 The electronic state is 1-A.
 Alpha  occ. eigenvalues --  -14.84305 -10.67131 -10.66353  -1.03818  -0.89417
 Alpha  occ. eigenvalues --   -0.59534  -0.54900  -0.53399  -0.44750  -0.38924
 Alpha  occ. eigenvalues --   -0.38696
 Alpha virt. eigenvalues --    0.03726   0.07639   0.08005   0.10158   0.11245
 Alpha virt. eigenvalues --    0.11566   0.15387   0.16040   0.16271   0.20088
 Alpha virt. eigenvalues --    0.20177   0.25466   0.32722   0.33996   0.35038

 Mulliken charges:
               1
     1  C   -0.088680
     2  C   -0.000796
     3  N   -0.210261
     4  H    0.103123
     5  H    0.099585
     6  H    0.097029
 Sum of Mulliken charges =   0.00000

 Dipole moment (field-independent basis, Debye):
    X=              4.1287    Y=             -0.0076    Z=             -0.0052  Tot=              4.1287
 Quadrupole moment (field-independent basis, Debye-Ang):
   XX=            -21.1249   YY=            -17.6463   ZZ=            -17.8213
   XY=             -0.0667   XZ=              0.0476   YZ=              0.0255

 Normal termination of Gaussian 09 at Wed Aug 26 09:44:25 2020.
