 Gaussian 09, Revision D.01,
 Gaussian 09:  ES64L-G09RevD.01 24-Apr-2013

 --------------------
 #p B2PLYPD3/Def2QZVP
 --------------------

 ------------
 cyanomethane
 ------------
 Symbolic Z-matrix:
 Charge =  0 Multiplicity = 1

                         Standard orientation:
 ---------------------------------------------------------------------
 Center     Atomic      Atomic             Coordinates (Angstroms)
 Number     Number       Type             X           Y           Z
 ---------------------------------------------------------------------
      1          6           0       -1.171305    0.012376    0.007813
      2          6           0        0.265245   -0.018922    0.023718
      3          7           0        1.436284    0.010018   -0.016313
      4          1           0       -1.493343   -0.313501    0.972788
      5          1           0       -1.556421   -0.754639   -0.778536
      6          1           0       -1.567862    1.037288   -0.269248
 ---------------------------------------------------------------------

 SCF Done:  E(RB2PLYPD3) =  -132.527338066     A.U. after   12 cycles
 E2(B2PLYPD3) =    -0.1825048675D+00 E(B2PLYPD3) =    -0.13270984293350D+03

 The electronic state is 1-A.
 Alpha  occ. eigenvalues --  -14.84620 -10.67950 -10.66647  -1.03450  -0.89116
 Alpha  occ. eigenvalues --   -0.59386  -0.54610  -0.52525  -0.44825  -0.38565
 Alpha  occ. eigenvalues --   -0.38287
 Alpha virt. eigenvalues --    0.03455   0.06619   0.07757   0.10064   0.11231
 Alpha virt. eigenvalues --    0.11614   0.15379   0.15591   0.16541   0.20132
 Alpha virt. eigenvalues --    0.20237   0.25695   0.32220   0.33379   0.34524

 Mulliken charges:
               1
     1  C   -0.099115
     2  C    0.003576
     3  N   -0.214250
     4  H    0.106830
     5  H    0.097568
     6  H    0.105392
 Sum of Mulliken charges =   0.00000

 Dipole moment (field-independent basis, Debye):
    X=             -4.1221    Y=             -0.0231    Z=              0.0325  Tot=              4.1223
 Quadrupole moment (field-independent basis, Debye-Ang):
   XX=            -21.2386   YY=            -17.7365   ZZ=            -17.8330
   XY=             -0.0469   XZ=              0.1186   YZ=             -0.0708

 Normal termination of Gaussian 09 at Wed Aug 26 11:45:11 2020.
