 Gaussian 09, Revision D.01,
 Gaussian 09:  ES64L-G09RevD.01 24-Apr-2013

 --------------------
 #p B2PLYPD3/Def2QZVP
 --------------------

 ------------
 cyanomethane
 ------------
 Symbolic Z-matrix:
 Charge =  0 Multiplicity = 1

                         Standard orientation:
 ---------------------------------------------------------------------
 Center     Atomic      Atomic             Coordinates (Angstroms)
 Number     Number       Type             X           Y           Z
 ---------------------------------------------------------------------
      1          6           0        1.181057    0.003970    0.041323
      2          6           0       -0.309804   -0.057898   -0.031337
      3          7           0       -1.437524    0.028420    0.013781
      4          1           0        1.644175   -0.238916    0.966697
      5          1           0        1.574554    1.064881   -0.323467
      6          1           0        1.616422   -0.701339   -0.799613
 ---------------------------------------------------------------------

 SCF Done:  E(RB2PLYPD3) =  -132.520958310     A.U. after   12 cycles
 E2(B2PLYPD3) =    -0.1797039297D+00 E(B2PLYPD3) =    -0.13270066224023D+03

 The electronic state is 1-A.
 Alpha  occ. eigenvalues --  -14.83854 -10.68989 -10.66048  -1.05162  -0.87215
 Alpha  occ. eigenvalues --   -0.59620  -0.53213  -0.50516  -0.44917  -0.40025
 Alpha  occ. eigenvalues --   -0.39337
 Alpha virt. eigenvalues --    0.03261   0.07116   0.07894   0.10083   0.11460
 Alpha virt. eigenvalues --    0.11962   0.15236   0.15882   0.17966   0.19853
 Alpha virt. eigenvalues --    0.20057   0.25089   0.31791   0.32454   0.34679

 Mulliken charges:
               1
     1  C   -0.099099
     2  C    0.004371
     3  N   -0.189858
     4  H    0.107722
     5  H    0.091362
     6  H    0.085502
 Sum of Mulliken charges =   0.00000

 Dipole moment (field-independent basis, Debye):
    X=              4.0709    Y=             -0.0435    Z=             -0.0277  Tot=              4.0712
 Quadrupole moment (field-independent basis, Debye-Ang):
   XX=            -20.8738   YY=            -17.9864   ZZ=            -17.7515
   XY=              0.1549   XZ=              0.0821   YZ=             -0.0900

 Normal termination of Gaussian 09 at Wed Aug 26 23:38:27 2020.
