 Gaussian 09, Revision D.01,
 Gaussian 09:  ES64L-G09RevD.01 24-Apr-2013

 --------------------
 #p B2PLYPD3/Def2QZVP
 --------------------

 ------------
 cyanomethane
 ------------
 Symbolic Z-matrix:
 Charge =  0 Multiplicity = 1

                         Standard orientation:
 ---------------------------------------------------------------------
 Center     Atomic      Atomic             Coordinates (Angstroms)
 Number     Number       Type             X           Y           Z
 ---------------------------------------------------------------------
      1          6           0        1.164098   -0.008982   -0.020762
      2          6           0       -0.276415    0.032539   -0.046236
      3          7           0       -1.417494   -0.016338    0.041953
      4          1           0        1.733637   -0.343787    0.993603
      5          1           0        1.484932    1.064787   -0.169838
      6          1           0        1.377787   -0.747972   -0.715450
 ---------------------------------------------------------------------

 SCF Done:  E(RB2PLYPD3) =  -132.515212358     A.U. after   13 cycles
 E2(B2PLYPD3) =    -0.1806945953D+00 E(B2PLYPD3) =    -0.13269590695380D+03

 The electronic state is 1-A.
 Alpha  occ. eigenvalues --  -14.83909 -10.67937 -10.65863  -1.04559  -0.89165
 Alpha  occ. eigenvalues --   -0.58932  -0.56390  -0.50487  -0.44749  -0.39341
 Alpha  occ. eigenvalues --   -0.38556
 Alpha virt. eigenvalues --    0.03125   0.06264   0.08754   0.10113   0.11441
 Alpha virt. eigenvalues --    0.12028   0.15406   0.15452   0.17191   0.19969
 Alpha virt. eigenvalues --    0.20242   0.25757   0.31786   0.32788   0.35381

 Mulliken charges:
               1
     1  C   -0.105671
     2  C    0.000776
     3  N   -0.201123
     4  H    0.088025
     5  H    0.105267
     6  H    0.112725
 Sum of Mulliken charges =   0.00000

 Dipole moment (field-independent basis, Debye):
    X=              4.0459    Y=              0.0168    Z=             -0.0638  Tot=              4.0465
 Quadrupole moment (field-independent basis, Debye-Ang):
   XX=            -21.2060   YY=            -17.4489   ZZ=            -18.0237
   XY=             -0.1171   XZ=              0.5167   YZ=              0.1721

 Normal termination of Gaussian 09 at Wed Aug 26 23:28:06 2020.
