 Gaussian 09, Revision D.01,
 Gaussian 09:  ES64L-G09RevD.01 24-Apr-2013

 --------------------
 #p B2PLYPD3/Def2QZVP
 --------------------

 ------------
 cyanomethane
 ------------
 Symbolic Z-matrix:
 Charge =  0 Multiplicity = 1

                         Standard orientation:
 ---------------------------------------------------------------------
 Center     Atomic      Atomic             Coordinates (Angstroms)
 Number     Number       Type             X           Y           Z
 ---------------------------------------------------------------------
      1          6           0       -1.190110   -0.003191   -0.023346
      2          6           0        0.276160   -0.027828    0.011296
      3          7           0        1.442126    0.014454   -0.001690
      4          1           0       -1.562987    0.077890    1.020059
      5          1           0       -1.529630   -0.889809   -0.426239
      6          1           0       -1.518564    0.896854   -0.509685
 ---------------------------------------------------------------------

 SCF Done:  E(RB2PLYPD3) =  -132.530857039     A.U. after   12 cycles
 E2(B2PLYPD3) =    -0.1813804409D+00 E(B2PLYPD3) =    -0.13271223747987D+03

 The electronic state is 1-A.
 Alpha  occ. eigenvalues --  -14.84493 -10.66780 -10.66589  -1.03580  -0.89593
 Alpha  occ. eigenvalues --   -0.59538  -0.56061  -0.52949  -0.44759  -0.38993
 Alpha  occ. eigenvalues --   -0.38600
 Alpha virt. eigenvalues --    0.03763   0.07603   0.08355   0.10173   0.10930
 Alpha virt. eigenvalues --    0.11512   0.15232   0.15881   0.16527   0.20060
 Alpha virt. eigenvalues --    0.20225   0.25187   0.32492   0.33932   0.35677

 Mulliken charges:
               1
     1  C   -0.081447
     2  C   -0.000674
     3  N   -0.212776
     4  H    0.089789
     5  H    0.103716
     6  H    0.101392
 Sum of Mulliken charges =   0.00000

 Dipole moment (field-independent basis, Debye):
    X=             -4.1521    Y=             -0.0085    Z=              0.0251  Tot=              4.1522
 Quadrupole moment (field-independent basis, Debye-Ang):
   XX=            -21.0533   YY=            -17.5866   ZZ=            -17.9261
   XY=             -0.0919   XZ=             -0.0867   YZ=              0.0287

 Normal termination of Gaussian 09 at Wed Aug 26 13:30:26 2020.
