 Gaussian 09, Revision D.01,
 Gaussian 09:  ES64L-G09RevD.01 24-Apr-2013

 --------------------
 #p B2PLYPD3/Def2QZVP
 --------------------

 ------------
 cyanomethane
 ------------
 Symbolic Z-matrix:
 Charge =  0 Multiplicity = 1

                         Standard orientation:
 ---------------------------------------------------------------------
 Center     Atomic      Atomic             Coordinates (Angstroms)
 Number     Number       Type             X           Y           Z
 ---------------------------------------------------------------------
      1          6           0       -1.206240    0.001902   -0.007081
      2          6           0        0.291714    0.031967    0.047893
      3          7           0        1.433843   -0.020315   -0.039539
      4          1           0       -1.710800   -0.643974   -0.786322
      5          1           0       -1.495462    1.031664   -0.104000
      6          1           0       -1.343480   -0.448702    0.922227
 ---------------------------------------------------------------------

 SCF Done:  E(RB2PLYPD3) =  -132.521918273     A.U. after   13 cycles
 E2(B2PLYPD3) =    -0.1802522662D+00 E(B2PLYPD3) =    -0.13270217053927D+03

 The electronic state is 1-A.
 Alpha  occ. eigenvalues --  -14.83907 -10.67326 -10.66056  -1.04328  -0.89084
 Alpha  occ. eigenvalues --   -0.58445  -0.55940  -0.52198  -0.44565  -0.39435
 Alpha  occ. eigenvalues --   -0.39089
 Alpha virt. eigenvalues --    0.03475   0.07398   0.09476   0.10138   0.11193
 Alpha virt. eigenvalues --    0.11488   0.14758   0.15179   0.17443   0.20065
 Alpha virt. eigenvalues --    0.20202   0.24840   0.32255   0.34081   0.35311

 Mulliken charges:
               1
     1  C   -0.107560
     2  C   -0.004085
     3  N   -0.201901
     4  H    0.097755
     5  H    0.107175
     6  H    0.108617
 Sum of Mulliken charges =   0.00000

 Dipole moment (field-independent basis, Debye):
    X=             -4.0932    Y=              0.0092    Z=              0.0817  Tot=              4.0940
 Quadrupole moment (field-independent basis, Debye-Ang):
   XX=            -21.1959   YY=            -17.5490   ZZ=            -17.8561
   XY=              0.2167   XZ=              0.4369   YZ=             -0.0965

 Normal termination of Gaussian 09 at Wed Aug 26 21:41:54 2020.
