 Gaussian 09, Revision D.01,
 Gaussian 09:  ES64L-G09RevD.01 24-Apr-2013

 --------------------
 #p B2PLYPD3/Def2QZVP
 --------------------

 ------------
 cyanomethane
 ------------
 Symbolic Z-matrix:
 Charge =  0 Multiplicity = 1

                         Standard orientation:
 ---------------------------------------------------------------------
 Center     Atomic      Atomic             Coordinates (Angstroms)
 Number     Number       Type             X           Y           Z
 ---------------------------------------------------------------------
      1          6           0        1.167991    0.016308    0.005297
      2          6           0       -0.276125   -0.015220   -0.030047
      3          7           0       -1.432390    0.001836    0.010440
      4          1           0        1.508318    1.066023   -0.063830
      5          1           0        1.645665   -0.624429   -0.788212
      6          1           0        1.521553   -0.460972    0.927464
 ---------------------------------------------------------------------

 SCF Done:  E(RB2PLYPD3) =  -132.532540867     A.U. after   12 cycles
 E2(B2PLYPD3) =    -0.1810358772D+00 E(B2PLYPD3) =    -0.13271357674452D+03

 The electronic state is 1-A.
 Alpha  occ. eigenvalues --  -14.84283 -10.67606 -10.66321  -1.04067  -0.89008
 Alpha  occ. eigenvalues --   -0.59889  -0.54439  -0.52418  -0.44843  -0.39036
 Alpha  occ. eigenvalues --   -0.38739
 Alpha virt. eigenvalues --    0.03641   0.07298   0.07684   0.10157   0.11371
 Alpha virt. eigenvalues --    0.11770   0.15356   0.16129   0.16702   0.20020
 Alpha virt. eigenvalues --    0.20167   0.25646   0.32496   0.34080   0.34641

 Mulliken charges:
               1
     1  C   -0.087000
     2  C    0.001759
     3  N   -0.207049
     4  H    0.103873
     5  H    0.091720
     6  H    0.096697
 Sum of Mulliken charges =   0.00000

 Dipole moment (field-independent basis, Debye):
    X=              4.1219    Y=             -0.0318    Z=              0.0085  Tot=              4.1220
 Quadrupole moment (field-independent basis, Debye-Ang):
   XX=            -21.0065   YY=            -17.5751   ZZ=            -18.0075
   XY=             -0.1468   XZ=              0.0328   YZ=             -0.0357

 Normal termination of Gaussian 09 at Wed Aug 26 14:19:47 2020.
