 Gaussian 09, Revision D.01,
 Gaussian 09:  ES64L-G09RevD.01 24-Apr-2013

 --------------------
 #p B2PLYPD3/Def2QZVP
 --------------------

 ------------
 cyanomethane
 ------------
 Symbolic Z-matrix:
 Charge =  0 Multiplicity = 1

                         Standard orientation:
 ---------------------------------------------------------------------
 Center     Atomic      Atomic             Coordinates (Angstroms)
 Number     Number       Type             X           Y           Z
 ---------------------------------------------------------------------
      1          6           0        1.168792   -0.019620    0.013557
      2          6           0       -0.264752   -0.001049   -0.043200
      3          7           0       -1.430971    0.002650    0.017374
      4          1           0        1.544958    1.014311   -0.240075
      5          1           0        1.566539   -0.684986   -0.674095
      6          1           0        1.481062   -0.223858    0.970409
 ---------------------------------------------------------------------

 SCF Done:  E(RB2PLYPD3) =  -132.528695333     A.U. after   11 cycles
 E2(B2PLYPD3) =    -0.1813594891D+00 E(B2PLYPD3) =    -0.13271005482189D+03

 The electronic state is 1-A.
 Alpha  occ. eigenvalues --  -14.84500 -10.66495 -10.66140  -1.03657  -0.90319
 Alpha  occ. eigenvalues --   -0.60541  -0.56008  -0.53406  -0.44837  -0.38850
 Alpha  occ. eigenvalues --   -0.38487
 Alpha virt. eigenvalues --    0.03810   0.07522   0.08146   0.10107   0.11170
 Alpha virt. eigenvalues --    0.11586   0.15602   0.15992   0.16497   0.20113
 Alpha virt. eigenvalues --    0.20221   0.25849   0.32608   0.34180   0.35783

 Mulliken charges:
               1
     1  C   -0.074046
     2  C    0.002184
     3  N   -0.214040
     4  H    0.088923
     5  H    0.097136
     6  H    0.099843
 Sum of Mulliken charges =   0.00000

 Dipole moment (field-independent basis, Debye):
    X=              4.1387    Y=             -0.0050    Z=             -0.0098  Tot=              4.1388
 Quadrupole moment (field-independent basis, Debye-Ang):
   XX=            -20.9689   YY=            -17.7570   ZZ=            -17.7144
   XY=              0.0169   XZ=              0.0516   YZ=              0.0402

 Normal termination of Gaussian 09 at Wed Aug 26 10:37:47 2020.
