 Gaussian 09, Revision D.01,
 Gaussian 09:  ES64L-G09RevD.01 24-Apr-2013

 --------------------
 #p B2PLYPD3/Def2QZVP
 --------------------

 ------------
 cyanomethane
 ------------
 Symbolic Z-matrix:
 Charge =  0 Multiplicity = 1

                         Standard orientation:
 ---------------------------------------------------------------------
 Center     Atomic      Atomic             Coordinates (Angstroms)
 Number     Number       Type             X           Y           Z
 ---------------------------------------------------------------------
      1          6           0       -1.181026    0.000626   -0.001667
      2          6           0        0.288668    0.034400   -0.011068
      3          7           0        1.425604   -0.015767    0.007759
      4          1           0       -1.560479   -0.189595    0.997552
      5          1           0       -1.501293   -0.859191   -0.618286
      6          1           0       -1.563299    0.948993   -0.357167
 ---------------------------------------------------------------------

 SCF Done:  E(RB2PLYPD3) =  -132.535372123     A.U. after   11 cycles
 E2(B2PLYPD3) =    -0.1791171359D+00 E(B2PLYPD3) =    -0.13271448925913D+03

 The electronic state is 1-A.
 Alpha  occ. eigenvalues --  -14.83686 -10.67250 -10.65747  -1.04717  -0.88918
 Alpha  occ. eigenvalues --   -0.59180  -0.54557  -0.53153  -0.44665  -0.39572
 Alpha  occ. eigenvalues --   -0.39371
 Alpha virt. eigenvalues --    0.03734   0.08099   0.08449   0.10219   0.11427
 Alpha virt. eigenvalues --    0.11769   0.15331   0.16288   0.16448   0.19928
 Alpha virt. eigenvalues --    0.20084   0.25185   0.32813   0.34230   0.34989

 Mulliken charges:
               1
     1  C   -0.090762
     2  C   -0.005770
     3  N   -0.197410
     4  H    0.095350
     5  H    0.098446
     6  H    0.100146
 Sum of Mulliken charges =   0.00000

 Dipole moment (field-independent basis, Debye):
    X=             -4.0961    Y=              0.0087    Z=              0.0088  Tot=              4.0962
 Quadrupole moment (field-independent basis, Debye-Ang):
   XX=            -21.0700   YY=            -17.5450   ZZ=            -17.8233
   XY=              0.0866   XZ=             -0.1271   YZ=             -0.0162

 Normal termination of Gaussian 09 at Wed Aug 26 11:03:45 2020.
