 Gaussian 09, Revision D.01,
 Gaussian 09:  ES64L-G09RevD.01 24-Apr-2013

 --------------------
 #p B2PLYPD3/Def2QZVP
 --------------------

 ------------
 cyanomethane
 ------------
 Symbolic Z-matrix:
 Charge =  0 Multiplicity = 1

                         Standard orientation:
 ---------------------------------------------------------------------
 Center     Atomic      Atomic             Coordinates (Angstroms)
 Number     Number       Type             X           Y           Z
 ---------------------------------------------------------------------
      1          6           0       -1.184834    0.013554    0.000187
      2          6           0        0.288856    0.010800   -0.000610
      3          7           0        1.442261   -0.014461    0.001572
      4          1           0       -1.474127    1.020960   -0.057374
      5          1           0       -1.634152   -0.481918    0.855873
      6          1           0       -1.611679   -0.583942   -0.806965
 ---------------------------------------------------------------------

 SCF Done:  E(RB2PLYPD3) =  -132.531816724     A.U. after   12 cycles
 E2(B2PLYPD3) =    -0.1803737674D+00 E(B2PLYPD3) =    -0.13271219049159D+03

 The electronic state is 1-A.
 Alpha  occ. eigenvalues --  -14.84275 -10.66856 -10.66406  -1.04173  -0.89243
 Alpha  occ. eigenvalues --   -0.60254  -0.55313  -0.52241  -0.44850  -0.39367
 Alpha  occ. eigenvalues --   -0.39049
 Alpha virt. eigenvalues --    0.03771   0.07603   0.08454   0.10218   0.11093
 Alpha virt. eigenvalues --    0.11704   0.15222   0.16496   0.16791   0.19944
 Alpha virt. eigenvalues --    0.20207   0.25052   0.32592   0.34445   0.35411

 Mulliken charges:
               1
     1  C   -0.071926
     2  C    0.000082
     3  N   -0.205285
     4  H    0.100593
     5  H    0.088128
     6  H    0.088408
 Sum of Mulliken charges =   0.00000

 Dipole moment (field-independent basis, Debye):
    X=             -4.1528    Y=             -0.0097    Z=              0.0005  Tot=              4.1528
 Quadrupole moment (field-independent basis, Debye-Ang):
   XX=            -20.7790   YY=            -17.5735   ZZ=            -18.0499
   XY=              0.2921   XZ=             -0.0365   YZ=             -0.0102

 Normal termination of Gaussian 09 at Wed Aug 26 22:38:43 2020.
