 Gaussian 09, Revision D.01,
 Gaussian 09:  ES64L-G09RevD.01 24-Apr-2013

 --------------------
 #p B2PLYPD3/Def2QZVP
 --------------------

 ------------
 cyanomethane
 ------------
 Symbolic Z-matrix:
 Charge =  0 Multiplicity = 1

                         Standard orientation:
 ---------------------------------------------------------------------
 Center     Atomic      Atomic             Coordinates (Angstroms)
 Number     Number       Type             X           Y           Z
 ---------------------------------------------------------------------
      1          6           0        1.172642   -0.007196   -0.004087
      2          6           0       -0.271491    0.024030    0.004986
      3          7           0       -1.428482   -0.006726    0.003586
      4          1           0        1.580491   -0.394339    0.902516
      5          1           0        1.587588    0.985749   -0.151390
      6          1           0        1.424392   -0.645328   -0.781623
 ---------------------------------------------------------------------

 SCF Done:  E(RB2PLYPD3) =  -132.532827108     A.U. after   12 cycles
 E2(B2PLYPD3) =    -0.1804034463D+00 E(B2PLYPD3) =    -0.13271323055454D+03

 The electronic state is 1-A.
 Alpha  occ. eigenvalues --  -14.84190 -10.66238 -10.66175  -1.04019  -0.90142
 Alpha  occ. eigenvalues --   -0.60132  -0.55349  -0.53993  -0.44759  -0.38980
 Alpha  occ. eigenvalues --   -0.38935
 Alpha virt. eigenvalues --    0.03896   0.07831   0.08423   0.10200   0.11386
 Alpha virt. eigenvalues --    0.11496   0.15466   0.15998   0.16626   0.20100
 Alpha virt. eigenvalues --    0.20163   0.25603   0.32883   0.34882   0.35233

 Mulliken charges:
               1
     1  C   -0.077167
     2  C   -0.001152
     3  N   -0.209268
     4  H    0.092895
     5  H    0.094159
     6  H    0.100533
 Sum of Mulliken charges =   0.00000

 Dipole moment (field-independent basis, Debye):
    X=              4.1352    Y=             -0.0099    Z=             -0.0066  Tot=              4.1352
 Quadrupole moment (field-independent basis, Debye-Ang):
   XX=            -20.9571   YY=            -17.6554   ZZ=            -17.7638
   XY=              0.0104   XZ=              0.1216   YZ=              0.0409

 Normal termination of Gaussian 09 at Wed Aug 26 12:29:41 2020.
