 Gaussian 09, Revision D.01,
 Gaussian 09:  ES64L-G09RevD.01 24-Apr-2013

 --------------------
 #p B2PLYPD3/Def2QZVP
 --------------------

 ------------
 cyanomethane
 ------------
 Symbolic Z-matrix:
 Charge =  0 Multiplicity = 1

                         Standard orientation:
 ---------------------------------------------------------------------
 Center     Atomic      Atomic             Coordinates (Angstroms)
 Number     Number       Type             X           Y           Z
 ---------------------------------------------------------------------
      1          6           0       -1.178464   -0.000792   -0.019269
      2          6           0        0.265551    0.020905    0.028771
      3          7           0        1.429050   -0.012094   -0.012509
      4          1           0       -1.489416    0.935853   -0.400387
      5          1           0       -1.517633   -0.129769    1.028789
      6          1           0       -1.518823   -0.842103   -0.597848
 ---------------------------------------------------------------------

 SCF Done:  E(RB2PLYPD3) =  -132.532461758     A.U. after   12 cycles
 E2(B2PLYPD3) =    -0.1812646685D+00 E(B2PLYPD3) =    -0.13271372642673D+03

 The electronic state is 1-A.
 Alpha  occ. eigenvalues --  -14.84299 -10.66824 -10.66319  -1.03667  -0.89828
 Alpha  occ. eigenvalues --   -0.59295  -0.55485  -0.53828  -0.44680  -0.38794
 Alpha  occ. eigenvalues --   -0.38550
 Alpha virt. eigenvalues --    0.03772   0.07675   0.08181   0.10098   0.11221
 Alpha virt. eigenvalues --    0.11494   0.15373   0.15569   0.16376   0.20141
 Alpha virt. eigenvalues --    0.20196   0.25606   0.32700   0.34099   0.35156

 Mulliken charges:
               1
     1  C   -0.092495
     2  C   -0.000725
     3  N   -0.213311
     4  H    0.105305
     5  H    0.097138
     6  H    0.104087
 Sum of Mulliken charges =   0.00000

 Dipole moment (field-independent basis, Debye):
    X=             -4.1191    Y=              0.0123    Z=              0.0236  Tot=              4.1192
 Quadrupole moment (field-independent basis, Debye-Ang):
   XX=            -21.2540   YY=            -17.6129   ZZ=            -17.7549
   XY=              0.0958   XZ=              0.0365   YZ=             -0.0090

 Normal termination of Gaussian 09 at Wed Aug 26 14:28:50 2020.
