 Gaussian 09, Revision D.01,
 Gaussian 09:  ES64L-G09RevD.01 24-Apr-2013

 --------------------
 #p B2PLYPD3/Def2QZVP
 --------------------

 ------------
 cyanomethane
 ------------
 Symbolic Z-matrix:
 Charge =  0 Multiplicity = 1

                         Standard orientation:
 ---------------------------------------------------------------------
 Center     Atomic      Atomic             Coordinates (Angstroms)
 Number     Number       Type             X           Y           Z
 ---------------------------------------------------------------------
      1          6           0        1.147577   -0.010054    0.001069
      2          6           0       -0.269752   -0.014928   -0.051759
      3          7           0       -1.430070    0.016950    0.029529
      4          1           0        1.475019   -0.727810   -0.607592
      5          1           0        1.592845   -0.197404    0.974655
      6          1           0        1.675676    0.956459   -0.269625
 ---------------------------------------------------------------------

 SCF Done:  E(RB2PLYPD3) =  -132.522211833     A.U. after   12 cycles
 E2(B2PLYPD3) =    -0.1814340142D+00 E(B2PLYPD3) =    -0.13270364584712D+03

 The electronic state is 1-A.
 Alpha  occ. eigenvalues --  -14.84624 -10.66542 -10.66083  -1.04021  -0.90376
 Alpha  occ. eigenvalues --   -0.61821  -0.55598  -0.52115  -0.45087  -0.38962
 Alpha  occ. eigenvalues --   -0.38595
 Alpha virt. eigenvalues --    0.03611   0.06595   0.08380   0.09959   0.11263
 Alpha virt. eigenvalues --    0.11914   0.15709   0.16325   0.17445   0.19977
 Alpha virt. eigenvalues --    0.20397   0.26215   0.32905   0.34458   0.35299

 Mulliken charges:
               1
     1  C   -0.059693
     2  C    0.007185
     3  N   -0.209828
     4  H    0.095265
     5  H    0.084507
     6  H    0.082565
 Sum of Mulliken charges =   0.00000

 Dipole moment (field-independent basis, Debye):
    X=              4.1428    Y=             -0.0505    Z=             -0.0247  Tot=              4.1432
 Quadrupole moment (field-independent basis, Debye-Ang):
   XX=            -20.5401   YY=            -17.8091   ZZ=            -17.9060
   XY=              0.1677   XZ=              0.2462   YZ=              0.1059

 Normal termination of Gaussian 09 at Wed Aug 26 19:06:14 2020.
