 Gaussian 09, Revision D.01,
 Gaussian 09:  ES64L-G09RevD.01 24-Apr-2013

 --------------------
 #p B2PLYPD3/Def2QZVP
 --------------------

 ------------
 cyanomethane
 ------------
 Symbolic Z-matrix:
 Charge =  0 Multiplicity = 1

                         Standard orientation:
 ---------------------------------------------------------------------
 Center     Atomic      Atomic             Coordinates (Angstroms)
 Number     Number       Type             X           Y           Z
 ---------------------------------------------------------------------
      1          6           0       -1.165484    0.035196   -0.013974
      2          6           0        0.289081    0.020746    0.035950
      3          7           0        1.421234   -0.028679   -0.017953
      4          1           0       -1.712994   -0.839182   -0.624298
      5          1           0       -1.392116    0.903223   -0.368422
      6          1           0       -1.585111   -0.198938    0.986538
 ---------------------------------------------------------------------

 SCF Done:  E(RB2PLYPD3) =  -132.512205810     A.U. after   12 cycles
 E2(B2PLYPD3) =    -0.1792128651D+00 E(B2PLYPD3) =    -0.13269141867487D+03

 The electronic state is 1-A.
 Alpha  occ. eigenvalues --  -14.83721 -10.66942 -10.65701  -1.05030  -0.89628
 Alpha  occ. eigenvalues --   -0.59723  -0.57075  -0.50585  -0.44808  -0.39936
 Alpha  occ. eigenvalues --   -0.39042
 Alpha virt. eigenvalues --    0.03344   0.06911   0.09191   0.10285   0.11273
 Alpha virt. eigenvalues --    0.12141   0.15432   0.16107   0.17376   0.19839
 Alpha virt. eigenvalues --    0.20212   0.25534   0.31949   0.33217   0.36022

 Mulliken charges:
               1
     1  C   -0.090572
     2  C   -0.003194
     3  N   -0.194561
     4  H    0.084570
     5  H    0.113272
     6  H    0.090486
 Sum of Mulliken charges =   0.00000

 Dipole moment (field-independent basis, Debye):
    X=             -4.0806    Y=              0.0383    Z=              0.0675  Tot=              4.0813
 Quadrupole moment (field-independent basis, Debye-Ang):
   XX=            -20.8166   YY=            -17.6023   ZZ=            -17.8961
   XY=              0.4349   XZ=              0.0251   YZ=             -0.2029

 Normal termination of Gaussian 09 at Wed Aug 26 22:22:57 2020.
