 Gaussian 09, Revision D.01,
 Gaussian 09:  ES64L-G09RevD.01 24-Apr-2013

 --------------------
 #p B2PLYPD3/Def2QZVP
 --------------------

 ------------
 cyanomethane
 ------------
 Symbolic Z-matrix:
 Charge =  0 Multiplicity = 1

                         Standard orientation:
 ---------------------------------------------------------------------
 Center     Atomic      Atomic             Coordinates (Angstroms)
 Number     Number       Type             X           Y           Z
 ---------------------------------------------------------------------
      1          6           0       -1.177923   -0.008914   -0.015231
      2          6           0        0.285560    0.036560    0.008732
      3          7           0        1.423018   -0.010366    0.000897
      4          1           0       -1.562541   -0.280563    0.984087
      5          1           0       -1.421240   -0.776732   -0.683939
      6          1           0       -1.623168    0.963978   -0.267437
 ---------------------------------------------------------------------

 SCF Done:  E(RB2PLYPD3) =  -132.533977183     A.U. after   12 cycles
 E2(B2PLYPD3) =    -0.1790548749D+00 E(B2PLYPD3) =    -0.13271303205765D+03

 The electronic state is 1-A.
 Alpha  occ. eigenvalues --  -14.83664 -10.66960 -10.65718  -1.04719  -0.89266
 Alpha  occ. eigenvalues --   -0.59237  -0.55210  -0.53051  -0.44653  -0.39566
 Alpha  occ. eigenvalues --   -0.39328
 Alpha virt. eigenvalues --    0.03797   0.08020   0.08598   0.10268   0.11498
 Alpha virt. eigenvalues --    0.11762   0.15312   0.16159   0.16582   0.19959
 Alpha virt. eigenvalues --    0.20078   0.25312   0.32721   0.34198   0.35456

 Mulliken charges:
               1
     1  C   -0.089541
     2  C   -0.005648
     3  N   -0.198374
     4  H    0.092122
     5  H    0.104599
     6  H    0.096843
 Sum of Mulliken charges =   0.00000

 Dipole moment (field-independent basis, Debye):
    X=             -4.0987    Y=             -0.0019    Z=              0.0117  Tot=              4.0987
 Quadrupole moment (field-independent basis, Debye-Ang):
   XX=            -21.0410   YY=            -17.5769   ZZ=            -17.7756
   XY=             -0.0393   XZ=             -0.1125   YZ=              0.0623

 Normal termination of Gaussian 09 at Wed Aug 26 14:32:24 2020.
