 Gaussian 09, Revision D.01,
 Gaussian 09:  ES64L-G09RevD.01 24-Apr-2013

 --------------------
 #p B2PLYPD3/Def2QZVP
 --------------------

 ------------
 cyanomethane
 ------------
 Symbolic Z-matrix:
 Charge =  0 Multiplicity = 1

                         Standard orientation:
 ---------------------------------------------------------------------
 Center     Atomic      Atomic             Coordinates (Angstroms)
 Number     Number       Type             X           Y           Z
 ---------------------------------------------------------------------
      1          6           0       -1.186717    0.018954   -0.004732
      2          6           0        0.257704    0.013561    0.040966
      3          7           0        1.421500   -0.016917   -0.013547
      4          1           0       -1.337765    1.035603   -0.256927
      5          1           0       -1.577288   -0.364646    0.945532
      6          1           0       -1.461371   -0.747626   -0.811181
 ---------------------------------------------------------------------

 SCF Done:  E(RB2PLYPD3) =  -132.524302229     A.U. after   12 cycles
 E2(B2PLYPD3) =    -0.1817835139D+00 E(B2PLYPD3) =    -0.13270608574284D+03

 The electronic state is 1-A.
 Alpha  occ. eigenvalues --  -14.84093 -10.67496 -10.66176  -1.03548  -0.89806
 Alpha  occ. eigenvalues --   -0.58304  -0.56144  -0.53136  -0.44444  -0.38596
 Alpha  occ. eigenvalues --   -0.38275
 Alpha virt. eigenvalues --    0.03551   0.07354   0.08509   0.10137   0.11172
 Alpha virt. eigenvalues --    0.11603   0.14818   0.15426   0.15796   0.20159
 Alpha virt. eigenvalues --    0.20239   0.25441   0.32463   0.32999   0.35091

 Mulliken charges:
               1
     1  C   -0.114131
     2  C   -0.001340
     3  N   -0.216422
     4  H    0.119488
     5  H    0.106893
     6  H    0.105511
 Sum of Mulliken charges =   0.00000

 Dipole moment (field-independent basis, Debye):
    X=             -4.0823    Y=             -0.0037    Z=              0.0200  Tot=              4.0824
 Quadrupole moment (field-independent basis, Debye-Ang):
   XX=            -21.6888   YY=            -17.4463   ZZ=            -17.7831
   XY=              0.3133   XZ=             -0.0719   YZ=             -0.0782

 Normal termination of Gaussian 09 at Wed Aug 26 23:52:33 2020.
