 Gaussian 09, Revision D.01,
 Gaussian 09:  ES64L-G09RevD.01 24-Apr-2013

 --------------------
 #p B2PLYPD3/Def2QZVP
 --------------------

 ------------
 cyanomethane
 ------------
 Symbolic Z-matrix:
 Charge =  0 Multiplicity = 1

                         Standard orientation:
 ---------------------------------------------------------------------
 Center     Atomic      Atomic             Coordinates (Angstroms)
 Number     Number       Type             X           Y           Z
 ---------------------------------------------------------------------
      1          6           0        1.166891   -0.011959    0.003244
      2          6           0       -0.279610   -0.031675   -0.004568
      3          7           0       -1.435291    0.023940    0.002808
      4          1           0        1.648224    0.958724   -0.337998
      5          1           0        1.503561   -0.728597   -0.619690
      6          1           0        1.571569   -0.135906    0.945979
 ---------------------------------------------------------------------

 SCF Done:  E(RB2PLYPD3) =  -132.525666299     A.U. after   12 cycles
 E2(B2PLYPD3) =    -0.1805095581D+00 E(B2PLYPD3) =    -0.13270617585669D+03

 The electronic state is 1-A.
 Alpha  occ. eigenvalues --  -14.84413 -10.66433 -10.65976  -1.04158  -0.90168
 Alpha  occ. eigenvalues --   -0.61174  -0.55934  -0.52443  -0.44973  -0.39285
 Alpha  occ. eigenvalues --   -0.38909
 Alpha virt. eigenvalues --    0.03683   0.07375   0.08673   0.10126   0.11175
 Alpha virt. eigenvalues --    0.11721   0.15616   0.16353   0.17148   0.19996
 Alpha virt. eigenvalues --    0.20249   0.25607   0.32780   0.34323   0.35908

 Mulliken charges:
               1
     1  C   -0.059860
     2  C    0.003257
     3  N   -0.207043
     4  H    0.080756
     5  H    0.093925
     6  H    0.088965
 Sum of Mulliken charges =   0.00000

 Dipole moment (field-independent basis, Debye):
    X=              4.1456    Y=             -0.0506    Z=              0.0091  Tot=              4.1459
 Quadrupole moment (field-independent basis, Debye-Ang):
   XX=            -20.6154   YY=            -17.8201   ZZ=            -17.7971
   XY=              0.2059   XZ=              0.0564   YZ=              0.0939

 Normal termination of Gaussian 09 at Wed Aug 26 15:07:27 2020.
