 Gaussian 09, Revision D.01,
 Gaussian 09:  ES64L-G09RevD.01 24-Apr-2013

 --------------------
 #p B2PLYPD3/Def2QZVP
 --------------------

 ------------
 cyanomethane
 ------------
 Symbolic Z-matrix:
 Charge =  0 Multiplicity = 1

                         Standard orientation:
 ---------------------------------------------------------------------
 Center     Atomic      Atomic             Coordinates (Angstroms)
 Number     Number       Type             X           Y           Z
 ---------------------------------------------------------------------
      1          6           0        1.198886   -0.018394    0.023120
      2          6           0       -0.272024   -0.022941   -0.042020
      3          7           0       -1.443432    0.014185    0.016820
      4          1           0        1.544806    0.838790   -0.483420
      5          1           0        1.526262   -0.769654   -0.426810
      6          1           0        1.471784    0.079578    0.905888
 ---------------------------------------------------------------------

 SCF Done:  E(RB2PLYPD3) =  -132.492312851     A.U. after   12 cycles
 E2(B2PLYPD3) =    -0.1810231866D+00 E(B2PLYPD3) =    -0.13267333603800D+03

 The electronic state is 1-A.
 Alpha  occ. eigenvalues --  -14.84705 -10.66773 -10.63665  -1.03402  -0.92211
 Alpha  occ. eigenvalues --   -0.60773  -0.59202  -0.54703  -0.44802  -0.39074
 Alpha  occ. eigenvalues --   -0.38682
 Alpha virt. eigenvalues --    0.04036   0.08354   0.09024   0.10274   0.10825
 Alpha virt. eigenvalues --    0.11318   0.15521   0.15997   0.16504   0.20104
 Alpha virt. eigenvalues --    0.20282   0.25108   0.32719   0.35006   0.36955

 Mulliken charges:
               1
     1  C   -0.069208
     2  C    0.004730
     3  N   -0.217373
     4  H    0.079560
     5  H    0.100022
     6  H    0.102269
 Sum of Mulliken charges =   0.00000

 Dipole moment (field-independent basis, Debye):
    X=              4.1822    Y=              0.0037    Z=             -0.0239  Tot=              4.1823
 Quadrupole moment (field-independent basis, Debye-Ang):
   XX=            -20.6821   YY=            -17.6763   ZZ=            -17.6604
   XY=              0.1307   XZ=              0.0231   YZ=              0.0956

 Normal termination of Gaussian 09 at Wed Aug 26 23:53:47 2020.
