 Gaussian 09, Revision D.01,
 Gaussian 09:  ES64L-G09RevD.01 24-Apr-2013

 --------------------
 #p B2PLYPD3/Def2QZVP
 --------------------

 ------------
 cyanomethane
 ------------
 Symbolic Z-matrix:
 Charge =  0 Multiplicity = 1

                         Standard orientation:
 ---------------------------------------------------------------------
 Center     Atomic      Atomic             Coordinates (Angstroms)
 Number     Number       Type             X           Y           Z
 ---------------------------------------------------------------------
      1          6           0        1.168300    0.034222    0.008120
      2          6           0       -0.267353   -0.008579   -0.074996
      3          7           0       -1.435704   -0.007523    0.032041
      4          1           0        1.441691    1.045474    0.057891
      5          1           0        1.678267   -0.575662   -0.780503
      6          1           0        1.524288   -0.571010    0.899582
 ---------------------------------------------------------------------

 SCF Done:  E(RB2PLYPD3) =  -132.525046985     A.U. after   12 cycles
 E2(B2PLYPD3) =    -0.1825740574D+00 E(B2PLYPD3) =    -0.13270762104212D+03

 The electronic state is 1-A.
 Alpha  occ. eigenvalues --  -14.84720 -10.67352 -10.66732  -1.03472  -0.89416
 Alpha  occ. eigenvalues --   -0.60088  -0.56197  -0.51366  -0.44899  -0.38789
 Alpha  occ. eigenvalues --   -0.38089
 Alpha virt. eigenvalues --    0.03475   0.06717   0.07754   0.10111   0.10921
 Alpha virt. eigenvalues --    0.11817   0.15257   0.15997   0.16743   0.19995
 Alpha virt. eigenvalues --    0.20260   0.25968   0.32363   0.33331   0.35577

 Mulliken charges:
               1
     1  C   -0.082436
     2  C    0.005714
     3  N   -0.214998
     4  H    0.110113
     5  H    0.089572
     6  H    0.092033
 Sum of Mulliken charges =   0.00000

 Dipole moment (field-independent basis, Debye):
    X=              4.1355    Y=             -0.0403    Z=             -0.0174  Tot=              4.1358
 Quadrupole moment (field-independent basis, Debye-Ang):
   XX=            -21.0078   YY=            -17.4732   ZZ=            -18.1935
   XY=             -0.3301   XZ=              0.1269   YZ=              0.0123

 Normal termination of Gaussian 09 at Wed Aug 26 21:44:04 2020.
