 Gaussian 09, Revision D.01,
 Gaussian 09:  ES64L-G09RevD.01 24-Apr-2013

 --------------------
 #p B2PLYPD3/Def2QZVP
 --------------------

 ------------
 cyanomethane
 ------------
 Symbolic Z-matrix:
 Charge =  0 Multiplicity = 1

                         Standard orientation:
 ---------------------------------------------------------------------
 Center     Atomic      Atomic             Coordinates (Angstroms)
 Number     Number       Type             X           Y           Z
 ---------------------------------------------------------------------
      1          6           0       -1.171169    0.000410    0.005975
      2          6           0        0.275361    0.017752   -0.006349
      3          7           0        1.432727   -0.010255    0.004465
      4          1           0       -1.533070    0.958406   -0.265919
      5          1           0       -1.578598   -0.275357    0.958615
      6          1           0       -1.542574   -0.720239   -0.721708
 ---------------------------------------------------------------------

 SCF Done:  E(RB2PLYPD3) =  -132.534731636     A.U. after   11 cycles
 E2(B2PLYPD3) =    -0.1805649315D+00 E(B2PLYPD3) =    -0.13271529656732D+03

 The electronic state is 1-A.
 Alpha  occ. eigenvalues --  -14.84292 -10.66524 -10.66318  -1.04032  -0.89754
 Alpha  occ. eigenvalues --   -0.60344  -0.54622  -0.53796  -0.44841  -0.39041
 Alpha  occ. eigenvalues --   -0.38930
 Alpha virt. eigenvalues --    0.03826   0.07754   0.08157   0.10149   0.11366
 Alpha virt. eigenvalues --    0.11535   0.15541   0.16139   0.16723   0.20086
 Alpha virt. eigenvalues --    0.20150   0.25565   0.32948   0.34619   0.35136

 Mulliken charges:
               1
     1  C   -0.073453
     2  C   -0.000042
     3  N   -0.208133
     4  H    0.094937
     5  H    0.094281
     6  H    0.092409
 Sum of Mulliken charges =   0.00000

 Dipole moment (field-independent basis, Debye):
    X=             -4.1385    Y=              0.0142    Z=             -0.0118  Tot=              4.1385
 Quadrupole moment (field-independent basis, Debye-Ang):
   XX=            -20.8834   YY=            -17.7442   ZZ=            -17.7681
   XY=              0.0741   XZ=             -0.0404   YZ=             -0.0234

 Normal termination of Gaussian 09 at Wed Aug 26 23:55:53 2020.
