 Gaussian 09, Revision D.01,
 Gaussian 09:  ES64L-G09RevD.01 24-Apr-2013

 --------------------
 #p B2PLYPD3/Def2QZVP
 --------------------

 ------------
 cyanomethane
 ------------
 Symbolic Z-matrix:
 Charge =  0 Multiplicity = 1

                         Standard orientation:
 ---------------------------------------------------------------------
 Center     Atomic      Atomic             Coordinates (Angstroms)
 Number     Number       Type             X           Y           Z
 ---------------------------------------------------------------------
      1          6           0       -1.159835   -0.019872   -0.027766
      2          6           0        0.281078    0.070759    0.008289
      3          7           0        1.417997   -0.024104    0.002071
      4          1           0       -1.577997   -0.203048    0.950149
      5          1           0       -1.404728   -0.856228   -0.544538
      6          1           0       -1.670712    0.922684   -0.303249
 ---------------------------------------------------------------------

 SCF Done:  E(RB2PLYPD3) =  -132.527671694     A.U. after   12 cycles
 E2(B2PLYPD3) =    -0.1792896864D+00 E(B2PLYPD3) =    -0.13270696138087D+03

 The electronic state is 1-A.
 Alpha  occ. eigenvalues --  -14.83829 -10.66170 -10.65805  -1.04769  -0.89987
 Alpha  occ. eigenvalues --   -0.60588  -0.56149  -0.52216  -0.44813  -0.39632
 Alpha  occ. eigenvalues --   -0.39092
 Alpha virt. eigenvalues --    0.03834   0.07818   0.08386   0.10206   0.11445
 Alpha virt. eigenvalues --    0.11993   0.15460   0.16342   0.17208   0.19845
 Alpha virt. eigenvalues --    0.20152   0.25959   0.32917   0.33947   0.36243

 Mulliken charges:
               1
     1  C   -0.070083
     2  C    0.001536
     3  N   -0.200256
     4  H    0.078220
     5  H    0.099714
     6  H    0.090869
 Sum of Mulliken charges =   0.00000

 Dipole moment (field-independent basis, Debye):
    X=             -4.1050    Y=              0.0029    Z=              0.0660  Tot=              4.1055
 Quadrupole moment (field-independent basis, Debye-Ang):
   XX=            -20.7477   YY=            -17.4315   ZZ=            -18.0204
   XY=              0.0246   XZ=             -0.2431   YZ=              0.0847

 Normal termination of Gaussian 09 at Wed Aug 26 22:21:47 2020.
