 Gaussian 09, Revision D.01,
 Gaussian 09:  ES64L-G09RevD.01 24-Apr-2013

 --------------------
 #p B2PLYPD3/Def2QZVP
 --------------------

 ------------
 cyanomethane
 ------------
 Symbolic Z-matrix:
 Charge =  0 Multiplicity = 1

                         Standard orientation:
 ---------------------------------------------------------------------
 Center     Atomic      Atomic             Coordinates (Angstroms)
 Number     Number       Type             X           Y           Z
 ---------------------------------------------------------------------
      1          6           0       -1.182313   -0.045565    0.024564
      2          6           0        0.294809    0.015722   -0.073161
      3          7           0        1.440221   -0.000036    0.032568
      4          1           0       -1.521913   -0.377709    0.937988
      5          1           0       -1.602231   -0.539215   -0.811054
      6          1           0       -1.632381    1.096232   -0.063327
 ---------------------------------------------------------------------

 SCF Done:  E(RB2PLYPD3) =  -132.520435792     A.U. after   12 cycles
 E2(B2PLYPD3) =    -0.1806884614D+00 E(B2PLYPD3) =    -0.13270112425380D+03

 The electronic state is 1-A.
 Alpha  occ. eigenvalues --  -14.84322 -10.67770 -10.66423  -1.04403  -0.88535
 Alpha  occ. eigenvalues --   -0.60000  -0.55715  -0.50501  -0.44951  -0.39663
 Alpha  occ. eigenvalues --   -0.38845
 Alpha virt. eigenvalues --    0.03352   0.06845   0.08303   0.10073   0.11107
 Alpha virt. eigenvalues --    0.11891   0.15318   0.15975   0.17351   0.19904
 Alpha virt. eigenvalues --    0.20110   0.25406   0.30813   0.33408   0.36048

 Mulliken charges:
               1
     1  C   -0.085650
     2  C    0.005346
     3  N   -0.201822
     4  H    0.106126
     5  H    0.099339
     6  H    0.076661
 Sum of Mulliken charges =   0.00000

 Dipole moment (field-independent basis, Debye):
    X=             -4.0877    Y=             -0.0276    Z=             -0.0414  Tot=              4.0880
 Quadrupole moment (field-independent basis, Debye-Ang):
   XX=            -20.8926   YY=            -18.0009   ZZ=            -17.6921
   XY=             -0.0213   XZ=             -0.1264   YZ=              0.0148

 Normal termination of Gaussian 09 at Wed Aug 26 21:22:27 2020.
