 Gaussian 09, Revision D.01,
 Gaussian 09:  ES64L-G09RevD.01 24-Apr-2013

 --------------------
 #p B2PLYPD3/Def2QZVP
 --------------------

 ------------
 cyanomethane
 ------------
 Symbolic Z-matrix:
 Charge =  0 Multiplicity = 1

                         Standard orientation:
 ---------------------------------------------------------------------
 Center     Atomic      Atomic             Coordinates (Angstroms)
 Number     Number       Type             X           Y           Z
 ---------------------------------------------------------------------
      1          6           0       -1.189440   -0.012288   -0.015701
      2          6           0        0.270856    0.028960   -0.004534
      3          7           0        1.445185   -0.018438    0.003930
      4          1           0       -1.479138    0.897729   -0.444896
      5          1           0       -1.536622   -0.014425    1.023771
      6          1           0       -1.589034   -0.854272   -0.484977
 ---------------------------------------------------------------------

 SCF Done:  E(RB2PLYPD3) =  -132.529254343     A.U. after   12 cycles
 E2(B2PLYPD3) =    -0.1820506343D+00 E(B2PLYPD3) =    -0.13271130497685D+03

 The electronic state is 1-A.
 Alpha  occ. eigenvalues --  -14.84735 -10.66845 -10.66429  -1.03277  -0.89953
 Alpha  occ. eigenvalues --   -0.60066  -0.55650  -0.53663  -0.44808  -0.38732
 Alpha  occ. eigenvalues --   -0.38459
 Alpha virt. eigenvalues --    0.03810   0.07522   0.08230   0.10064   0.11029
 Alpha virt. eigenvalues --    0.11349   0.15301   0.15590   0.16827   0.20142
 Alpha virt. eigenvalues --    0.20273   0.25309   0.32587   0.34251   0.35585

 Mulliken charges:
               1
     1  C   -0.077541
     2  C    0.001634
     3  N   -0.216844
     4  H    0.100095
     5  H    0.092147
     6  H    0.100509
 Sum of Mulliken charges =   0.00000

 Dipole moment (field-independent basis, Debye):
    X=             -4.1656    Y=              0.0322    Z=              0.0117  Tot=              4.1657
 Quadrupole moment (field-independent basis, Debye-Ang):
   XX=            -21.0058   YY=            -17.6733   ZZ=            -17.8787
   XY=              0.1539   XZ=             -0.0677   YZ=              0.0078

 Normal termination of Gaussian 09 at Wed Aug 26 10:47:26 2020.
