 Gaussian 09, Revision D.01,
 Gaussian 09:  ES64L-G09RevD.01 24-Apr-2013

 --------------------
 #p B2PLYPD3/Def2QZVP
 --------------------

 ------------
 cyanomethane
 ------------
 Symbolic Z-matrix:
 Charge =  0 Multiplicity = 1

                         Standard orientation:
 ---------------------------------------------------------------------
 Center     Atomic      Atomic             Coordinates (Angstroms)
 Number     Number       Type             X           Y           Z
 ---------------------------------------------------------------------
      1          6           0       -1.151263    0.016051   -0.004688
      2          6           0        0.289536   -0.002470   -0.049751
      3          7           0        1.413347    0.004856    0.015686
      4          1           0       -1.642495    1.067925    0.083669
      5          1           0       -1.410188   -0.597837    0.994295
      6          1           0       -1.670377   -0.585569   -0.861137
 ---------------------------------------------------------------------

 SCF Done:  E(RB2PLYPD3) =  -132.518919772     A.U. after   12 cycles
 E2(B2PLYPD3) =    -0.1795307322D+00 E(B2PLYPD3) =    -0.13269845050419D+03

 The electronic state is 1-A.
 Alpha  occ. eigenvalues --  -14.83438 -10.69405 -10.65498  -1.05398  -0.87606
 Alpha  occ. eigenvalues --   -0.59103  -0.52421  -0.51395  -0.44781  -0.39664
 Alpha  occ. eigenvalues --   -0.39100
 Alpha virt. eigenvalues --    0.03204   0.06987   0.07074   0.10204   0.11945
 Alpha virt. eigenvalues --    0.12516   0.15275   0.15885   0.17545   0.19964
 Alpha virt. eigenvalues --    0.20020   0.25699   0.31993   0.32237   0.34077

 Mulliken charges:
               1
     1  C   -0.118074
     2  C    0.003573
     3  N   -0.187529
     4  H    0.104859
     5  H    0.098472
     6  H    0.098698
 Sum of Mulliken charges =   0.00000

 Dipole moment (field-independent basis, Debye):
    X=             -4.0352    Y=             -0.0267    Z=             -0.0053  Tot=              4.0352
 Quadrupole moment (field-independent basis, Debye-Ang):
   XX=            -21.1114   YY=            -17.6651   ZZ=            -17.8920
   XY=             -0.0704   XZ=              0.0331   YZ=              0.0351

 Normal termination of Gaussian 09 at Wed Aug 26 21:25:28 2020.
