 Gaussian 09, Revision D.01,
 Gaussian 09:  ES64L-G09RevD.01 24-Apr-2013

 --------------------
 #p B2PLYPD3/Def2QZVP
 --------------------

 ------------
 cyanomethane
 ------------
 Symbolic Z-matrix:
 Charge =  0 Multiplicity = 1

                         Standard orientation:
 ---------------------------------------------------------------------
 Center     Atomic      Atomic             Coordinates (Angstroms)
 Number     Number       Type             X           Y           Z
 ---------------------------------------------------------------------
      1          6           0        1.157660   -0.013276    0.004707
      2          6           0       -0.280423   -0.020321    0.000088
      3          7           0       -1.425971    0.015187   -0.006595
      4          1           0        1.638872    0.999483   -0.343953
      5          1           0        1.596667   -0.769748   -0.619317
      6          1           0        1.482838   -0.134457    0.980663
 ---------------------------------------------------------------------

 SCF Done:  E(RB2PLYPD3) =  -132.528888589     A.U. after   12 cycles
 E2(B2PLYPD3) =    -0.1799617607D+00 E(B2PLYPD3) =    -0.13270885035002D+03

 The electronic state is 1-A.
 Alpha  occ. eigenvalues --  -14.84060 -10.66957 -10.66046  -1.04589  -0.89493
 Alpha  occ. eigenvalues --   -0.60603  -0.54983  -0.52076  -0.44906  -0.39402
 Alpha  occ. eigenvalues --   -0.39019
 Alpha virt. eigenvalues --    0.03572   0.07156   0.08435   0.10160   0.11482
 Alpha virt. eigenvalues --    0.11906   0.15624   0.16248   0.17149   0.19996
 Alpha virt. eigenvalues --    0.20145   0.25727   0.32397   0.34004   0.35441

 Mulliken charges:
               1
     1  C   -0.075956
     2  C    0.000788
     3  N   -0.201132
     4  H    0.084807
     5  H    0.094408
     6  H    0.097084
 Sum of Mulliken charges =   0.00000

 Dipole moment (field-independent basis, Debye):
    X=              4.1095    Y=             -0.0428    Z=              0.0427  Tot=              4.1099
 Quadrupole moment (field-independent basis, Debye-Ang):
   XX=            -20.7816   YY=            -17.7863   ZZ=            -17.7849
   XY=              0.1026   XZ=             -0.0682   YZ=              0.0571

 Normal termination of Gaussian 09 at Wed Aug 26 10:27:33 2020.
