 Gaussian 09, Revision D.01,
 Gaussian 09:  ES64L-G09RevD.01 24-Apr-2013

 --------------------
 #p B2PLYPD3/Def2QZVP
 --------------------

 ------------
 cyanomethane
 ------------
 Symbolic Z-matrix:
 Charge =  0 Multiplicity = 1

                         Standard orientation:
 ---------------------------------------------------------------------
 Center     Atomic      Atomic             Coordinates (Angstroms)
 Number     Number       Type             X           Y           Z
 ---------------------------------------------------------------------
      1          6           0        1.176133   -0.001811    0.019559
      2          6           0       -0.263853   -0.004175   -0.066923
      3          7           0       -1.450273   -0.002251    0.030293
      4          1           0        1.499137    1.059994   -0.025180
      5          1           0        1.622203   -0.549910   -0.768445
      6          1           0        1.556888   -0.458410    0.865757
 ---------------------------------------------------------------------

 SCF Done:  E(RB2PLYPD3) =  -132.525016016     A.U. after   12 cycles
 E2(B2PLYPD3) =    -0.1836015022D+00 E(B2PLYPD3) =    -0.13270861751775D+03

 The electronic state is 1-A.
 Alpha  occ. eigenvalues --  -14.85280 -10.67341 -10.66406  -1.02841  -0.90021
 Alpha  occ. eigenvalues --   -0.61347  -0.54297  -0.53954  -0.45031  -0.38260
 Alpha  occ. eigenvalues --   -0.38224
 Alpha virt. eigenvalues --    0.03692   0.06945   0.07384   0.10028   0.10991
 Alpha virt. eigenvalues --    0.11410   0.15374   0.16087   0.16729   0.20190
 Alpha virt. eigenvalues --    0.20295   0.25881   0.32540   0.34279   0.35232

 Mulliken charges:
               1
     1  C   -0.066191
     2  C    0.009398
     3  N   -0.221508
     4  H    0.096135
     5  H    0.088119
     6  H    0.094048
 Sum of Mulliken charges =   0.00000

 Dipole moment (field-independent basis, Debye):
    X=              4.1767    Y=             -0.0284    Z=             -0.0260  Tot=              4.1769
 Quadrupole moment (field-independent basis, Debye-Ang):
   XX=            -20.8188   YY=            -17.6987   ZZ=            -18.0580
   XY=             -0.1735   XZ=              0.1238   YZ=             -0.0244

 Normal termination of Gaussian 09 at Wed Aug 26 20:58:49 2020.
