 Gaussian 09, Revision D.01,
 Gaussian 09:  ES64L-G09RevD.01 24-Apr-2013

 --------------------
 #p B2PLYPD3/Def2QZVP
 --------------------

 ------------
 cyanomethane
 ------------
 Symbolic Z-matrix:
 Charge =  0 Multiplicity = 1

                         Standard orientation:
 ---------------------------------------------------------------------
 Center     Atomic      Atomic             Coordinates (Angstroms)
 Number     Number       Type             X           Y           Z
 ---------------------------------------------------------------------
      1          6           0        1.179364   -0.019874    0.018520
      2          6           0       -0.267952    0.001510   -0.074912
      3          7           0       -1.459384   -0.002146    0.038859
      4          1           0        1.533455    1.083534    0.032963
      5          1           0        1.581963   -0.469363   -0.812178
      6          1           0        1.631795   -0.488971    0.845555
 ---------------------------------------------------------------------

 SCF Done:  E(RB2PLYPD3) =  -132.518975541     A.U. after   13 cycles
 E2(B2PLYPD3) =    -0.1845172401D+00 E(B2PLYPD3) =    -0.13270349278084D+03

 The electronic state is 1-A.
 Alpha  occ. eigenvalues --  -14.85596 -10.67699 -10.66828  -1.02642  -0.89657
 Alpha  occ. eigenvalues --   -0.61555  -0.54611  -0.52583  -0.45158  -0.38296
 Alpha  occ. eigenvalues --   -0.38009
 Alpha virt. eigenvalues --    0.03439   0.06182   0.07477   0.09894   0.10933
 Alpha virt. eigenvalues --    0.11467   0.15406   0.15802   0.17260   0.20191
 Alpha virt. eigenvalues --    0.20441   0.25828   0.32119   0.33551   0.35335

 Mulliken charges:
               1
     1  C   -0.067969
     2  C    0.013592
     3  N   -0.221869
     4  H    0.088478
     5  H    0.093376
     6  H    0.094392
 Sum of Mulliken charges =   0.00000

 Dipole moment (field-independent basis, Debye):
    X=              4.1766    Y=             -0.0229    Z=             -0.0499  Tot=              4.1769
 Quadrupole moment (field-independent basis, Debye-Ang):
   XX=            -20.7349   YY=            -17.8793   ZZ=            -18.0471
   XY=             -0.1228   XZ=              0.1958   YZ=              0.0140

 Normal termination of Gaussian 09 at Wed Aug 26 20:44:39 2020.
