 Gaussian 09, Revision D.01,
 Gaussian 09:  ES64L-G09RevD.01 24-Apr-2013

 --------------------
 #p B2PLYPD3/Def2QZVP
 --------------------

 ------------
 cyanomethane
 ------------
 Symbolic Z-matrix:
 Charge =  0 Multiplicity = 1

                         Standard orientation:
 ---------------------------------------------------------------------
 Center     Atomic      Atomic             Coordinates (Angstroms)
 Number     Number       Type             X           Y           Z
 ---------------------------------------------------------------------
      1          6           0        1.166345   -0.024914    0.012848
      2          6           0       -0.298388    0.026682   -0.047031
      3          7           0       -1.431803   -0.019164    0.029860
      4          1           0        1.723517   -0.404682    0.960611
      5          1           0        1.493906    1.123033   -0.099845
      6          1           0        1.597453   -0.594810   -0.864692
 ---------------------------------------------------------------------

 SCF Done:  E(RB2PLYPD3) =  -132.518949331     A.U. after   12 cycles
 E2(B2PLYPD3) =    -0.1804856129D+00 E(B2PLYPD3) =    -0.13269943494371D+03

 The electronic state is 1-A.
 Alpha  occ. eigenvalues --  -14.83961 -10.69317 -10.66097  -1.05001  -0.87324
 Alpha  occ. eigenvalues --   -0.59548  -0.52368  -0.50955  -0.44957  -0.39575
 Alpha  occ. eigenvalues --   -0.39104
 Alpha virt. eigenvalues --    0.03189   0.06451   0.07591   0.10019   0.11723
 Alpha virt. eigenvalues --    0.12024   0.15308   0.15643   0.17951   0.19943
 Alpha virt. eigenvalues --    0.20375   0.25561   0.31741   0.32609   0.34048

 Mulliken charges:
               1
     1  C   -0.107514
     2  C    0.008190
     3  N   -0.192860
     4  H    0.101555
     5  H    0.090537
     6  H    0.100091
 Sum of Mulliken charges =   0.00000

 Dipole moment (field-independent basis, Debye):
    X=              4.0628    Y=              0.0291    Z=             -0.0507  Tot=              4.0633
 Quadrupole moment (field-independent basis, Debye-Ang):
   XX=            -20.9228   YY=            -17.8833   ZZ=            -17.8936
   XY=             -0.2390   XZ=              0.2720   YZ=              0.0474

 Normal termination of Gaussian 09 at Wed Aug 26 23:25:43 2020.
