 Gaussian 09, Revision D.01,
 Gaussian 09:  ES64L-G09RevD.01 24-Apr-2013

 --------------------
 #p B2PLYPD3/Def2QZVP
 --------------------

 ------------
 cyanomethane
 ------------
 Symbolic Z-matrix:
 Charge =  0 Multiplicity = 1

                         Standard orientation:
 ---------------------------------------------------------------------
 Center     Atomic      Atomic             Coordinates (Angstroms)
 Number     Number       Type             X           Y           Z
 ---------------------------------------------------------------------
      1          6           0       -1.184998   -0.002322   -0.002899
      2          6           0        0.282090    0.007706   -0.002317
      3          7           0        1.433772   -0.001380    0.003479
      4          1           0       -1.566357   -0.023147    1.004673
      5          1           0       -1.497352   -0.883775   -0.512219
      6          1           0       -1.555248    0.884280   -0.485515
 ---------------------------------------------------------------------

 SCF Done:  E(RB2PLYPD3) =  -132.535563522     A.U. after   11 cycles
 E2(B2PLYPD3) =    -0.1799889978D+00 E(B2PLYPD3) =    -0.13271555251953D+03

 The electronic state is 1-A.
 Alpha  occ. eigenvalues --  -14.84068 -10.66710 -10.66147  -1.04176  -0.89470
 Alpha  occ. eigenvalues --   -0.59516  -0.54774  -0.53953  -0.44714  -0.39214
 Alpha  occ. eigenvalues --   -0.39152
 Alpha virt. eigenvalues --    0.03843   0.08133   0.08397   0.10224   0.11338
 Alpha virt. eigenvalues --    0.11455   0.15341   0.16176   0.16403   0.20059
 Alpha virt. eigenvalues --    0.20106   0.25151   0.32770   0.34789   0.35039

 Mulliken charges:
               1
     1  C   -0.082013
     2  C   -0.003889
     3  N   -0.205373
     4  H    0.094857
     5  H    0.099318
     6  H    0.097100
 Sum of Mulliken charges =   0.00000

 Dipole moment (field-independent basis, Debye):
    X=             -4.1317    Y=             -0.0016    Z=              0.0011  Tot=              4.1317
 Quadrupole moment (field-independent basis, Debye-Ang):
   XX=            -21.0095   YY=            -17.6559   ZZ=            -17.7673
   XY=             -0.0281   XZ=             -0.0707   YZ=              0.0111

 Normal termination of Gaussian 09 at Wed Aug 26 23:57:20 2020.
