 Gaussian 09, Revision D.01,
 Gaussian 09:  ES64L-G09RevD.01 24-Apr-2013

 --------------------
 #p B2PLYPD3/Def2QZVP
 --------------------

 ------------
 cyanomethane
 ------------
 Symbolic Z-matrix:
 Charge =  0 Multiplicity = 1

                         Standard orientation:
 ---------------------------------------------------------------------
 Center     Atomic      Atomic             Coordinates (Angstroms)
 Number     Number       Type             X           Y           Z
 ---------------------------------------------------------------------
      1          6           0        1.174265    0.001998   -0.005007
      2          6           0       -0.269611    0.020085    0.003438
      3          7           0       -1.431165   -0.012793    0.000127
      4          1           0        1.556460   -0.291990    0.973834
      5          1           0        1.497331    0.969495   -0.243471
      6          1           0        1.536444   -0.720454   -0.721837
 ---------------------------------------------------------------------

 SCF Done:  E(RB2PLYPD3) =  -132.533708648     A.U. after   11 cycles
 E2(B2PLYPD3) =    -0.1809001218D+00 E(B2PLYPD3) =    -0.13271460876933D+03

 The electronic state is 1-A.
 Alpha  occ. eigenvalues --  -14.84316 -10.66518 -10.66329  -1.03820  -0.89927
 Alpha  occ. eigenvalues --   -0.59895  -0.55263  -0.53844  -0.44766  -0.38885
 Alpha  occ. eigenvalues --   -0.38754
 Alpha virt. eigenvalues --    0.03821   0.07670   0.08284   0.10144   0.11261
 Alpha virt. eigenvalues --    0.11511   0.15491   0.15993   0.16406   0.20108
 Alpha virt. eigenvalues --    0.20187   0.25581   0.32900   0.34525   0.35104

 Mulliken charges:
               1
     1  C   -0.080707
     2  C   -0.001104
     3  N   -0.211073
     4  H    0.095044
     5  H    0.100387
     6  H    0.097453
 Sum of Mulliken charges =   0.00000

 Dipole moment (field-independent basis, Debye):
    X=              4.1348    Y=              0.0151    Z=              0.0006  Tot=              4.1348
 Quadrupole moment (field-independent basis, Debye-Ang):
   XX=            -21.0408   YY=            -17.6660   ZZ=            -17.7707
   XY=             -0.1128   XZ=              0.0289   YZ=             -0.0089

 Normal termination of Gaussian 09 at Thu Aug 27 00:08:40 2020.
