 Gaussian 09, Revision D.01,
 Gaussian 09:  ES64L-G09RevD.01 24-Apr-2013

 --------------------
 #p B2PLYPD3/Def2QZVP
 --------------------

 ------------
 cyanomethane
 ------------
 Symbolic Z-matrix:
 Charge =  0 Multiplicity = 1

                         Standard orientation:
 ---------------------------------------------------------------------
 Center     Atomic      Atomic             Coordinates (Angstroms)
 Number     Number       Type             X           Y           Z
 ---------------------------------------------------------------------
      1          6           0        1.170324    0.005244   -0.008519
      2          6           0       -0.274084   -0.072028    0.033596
      3          7           0       -1.456529    0.043131   -0.011199
      4          1           0        1.489819   -0.580270   -0.776232
      5          1           0        1.649918   -0.320008    0.861031
      6          1           0        1.678525    0.999066   -0.156866
 ---------------------------------------------------------------------

 SCF Done:  E(RB2PLYPD3) =  -132.518830494     A.U. after   13 cycles
 E2(B2PLYPD3) =    -0.1837190667D+00 E(B2PLYPD3) =    -0.13270254956113D+03

 The electronic state is 1-A.
 Alpha  occ. eigenvalues --  -14.85500 -10.67560 -10.66177  -1.03045  -0.90038
 Alpha  occ. eigenvalues --   -0.61962  -0.55248  -0.52164  -0.45266  -0.38567
 Alpha  occ. eigenvalues --   -0.38292
 Alpha virt. eigenvalues --    0.03279   0.06524   0.07794   0.09917   0.10981
 Alpha virt. eigenvalues --    0.11573   0.15546   0.16180   0.17461   0.20118
 Alpha virt. eigenvalues --    0.20541   0.25948   0.32687   0.34045   0.35625

 Mulliken charges:
               1
     1  C   -0.051683
     2  C    0.013952
     3  N   -0.218150
     4  H    0.091242
     5  H    0.082708
     6  H    0.081930
 Sum of Mulliken charges =   0.00000

 Dipole moment (field-independent basis, Debye):
    X=              4.1847    Y=             -0.0758    Z=              0.0140  Tot=              4.1854
 Quadrupole moment (field-independent basis, Debye-Ang):
   XX=            -20.4059   YY=            -18.0191   ZZ=            -17.9782
   XY=              0.2727   XZ=              0.0406   YZ=              0.0866

 Normal termination of Gaussian 09 at Wed Aug 26 22:53:27 2020.
