 Gaussian 09, Revision D.01,
 Gaussian 09:  ES64L-G09RevD.01 24-Apr-2013

 --------------------
 #p B2PLYPD3/Def2QZVP
 --------------------

 ------------
 cyanomethane
 ------------
 Symbolic Z-matrix:
 Charge =  0 Multiplicity = 1

                         Standard orientation:
 ---------------------------------------------------------------------
 Center     Atomic      Atomic             Coordinates (Angstroms)
 Number     Number       Type             X           Y           Z
 ---------------------------------------------------------------------
      1          6           0        1.179552    0.014410    0.005899
      2          6           0       -0.290081   -0.038215   -0.005500
      3          7           0       -1.438582    0.019515   -0.000813
      4          1           0        1.596379    1.055370   -0.175191
      5          1           0        1.603267   -0.685874   -0.768967
      6          1           0        1.533599   -0.363269    0.947460
 ---------------------------------------------------------------------

 SCF Done:  E(RB2PLYPD3) =  -132.532129735     A.U. after   12 cycles
 E2(B2PLYPD3) =    -0.1804894050D+00 E(B2PLYPD3) =    -0.13271261914033D+03

 The electronic state is 1-A.
 Alpha  occ. eigenvalues --  -14.84190 -10.67905 -10.66291  -1.04341  -0.88428
 Alpha  occ. eigenvalues --   -0.59523  -0.53560  -0.52622  -0.44856  -0.39298
 Alpha  occ. eigenvalues --   -0.39143
 Alpha virt. eigenvalues --    0.03536   0.07336   0.08069   0.10161   0.11453
 Alpha virt. eigenvalues --    0.11585   0.15310   0.15944   0.17101   0.20041
 Alpha virt. eigenvalues --    0.20058   0.25271   0.32372   0.34041   0.34516

 Mulliken charges:
               1
     1  C   -0.087953
     2  C    0.000463
     3  N   -0.202079
     4  H    0.099387
     5  H    0.092035
     6  H    0.098147
 Sum of Mulliken charges =   0.00000

 Dipole moment (field-independent basis, Debye):
    X=              4.1167    Y=             -0.0534    Z=              0.0211  Tot=              4.1171
 Quadrupole moment (field-independent basis, Debye-Ang):
   XX=            -20.9421   YY=            -17.6907   ZZ=            -17.9313
   XY=              0.0624   XZ=             -0.0127   YZ=             -0.0415

 Normal termination of Gaussian 09 at Wed Aug 26 16:12:55 2020.
