 Gaussian 09, Revision D.01,
 Gaussian 09:  ES64L-G09RevD.01 24-Apr-2013

 --------------------
 #p B2PLYPD3/Def2QZVP
 --------------------

 ------------
 cyanomethane
 ------------
 Symbolic Z-matrix:
 Charge =  0 Multiplicity = 1

                         Standard orientation:
 ---------------------------------------------------------------------
 Center     Atomic      Atomic             Coordinates (Angstroms)
 Number     Number       Type             X           Y           Z
 ---------------------------------------------------------------------
      1          6           0        1.176845   -0.002285    0.002997
      2          6           0       -0.281094   -0.008488   -0.007025
      3          7           0       -1.439903    0.004915   -0.000623
      4          1           0        1.582748    1.020375   -0.198676
      5          1           0        1.608682   -0.683811   -0.720656
      6          1           0        1.513383   -0.306336    0.947859
 ---------------------------------------------------------------------

 SCF Done:  E(RB2PLYPD3) =  -132.533479578     A.U. after   12 cycles
 E2(B2PLYPD3) =    -0.1808119056D+00 E(B2PLYPD3) =    -0.13271429148398D+03

 The electronic state is 1-A.
 Alpha  occ. eigenvalues --  -14.84399 -10.66936 -10.66484  -1.03992  -0.89345
 Alpha  occ. eigenvalues --   -0.60258  -0.54227  -0.53376  -0.44884  -0.39051
 Alpha  occ. eigenvalues --   -0.38992
 Alpha virt. eigenvalues --    0.03749   0.07531   0.08108   0.10184   0.11398
 Alpha virt. eigenvalues --    0.11438   0.15432   0.16222   0.16794   0.20104
 Alpha virt. eigenvalues --    0.20111   0.25342   0.32591   0.34463   0.35058

 Mulliken charges:
               1
     1  C   -0.074924
     2  C    0.000967
     3  N   -0.207793
     4  H    0.092871
     5  H    0.092747
     6  H    0.096131
 Sum of Mulliken charges =   0.00000

 Dipole moment (field-independent basis, Debye):
    X=              4.1457    Y=             -0.0237    Z=              0.0219  Tot=              4.1458
 Quadrupole moment (field-independent basis, Debye-Ang):
   XX=            -20.8446   YY=            -17.7467   ZZ=            -17.8625
   XY=             -0.0075   XZ=             -0.0242   YZ=             -0.0095

 Normal termination of Gaussian 09 at Thu Aug 27 00:13:24 2020.
