 Gaussian 09, Revision D.01,
 Gaussian 09:  ES64L-G09RevD.01 24-Apr-2013

 --------------------
 #p B2PLYPD3/Def2QZVP
 --------------------

 ------------
 cyanomethane
 ------------
 Symbolic Z-matrix:
 Charge =  0 Multiplicity = 1

                         Standard orientation:
 ---------------------------------------------------------------------
 Center     Atomic      Atomic             Coordinates (Angstroms)
 Number     Number       Type             X           Y           Z
 ---------------------------------------------------------------------
      1          6           0        1.163882   -0.024418   -0.001199
      2          6           0       -0.280811    0.007207   -0.012424
      3          7           0       -1.427213    0.004251    0.005232
      4          1           0        1.518944   -0.809464   -0.589025
      5          1           0        1.536085   -0.091176    1.027231
      6          1           0        1.637035    0.974148   -0.393092
 ---------------------------------------------------------------------

 SCF Done:  E(RB2PLYPD3) =  -132.530282870     A.U. after   11 cycles
 E2(B2PLYPD3) =    -0.1800524105D+00 E(B2PLYPD3) =    -0.13271033528006D+03

 The electronic state is 1-A.
 Alpha  occ. eigenvalues --  -14.84023 -10.67346 -10.66033  -1.04515  -0.89162
 Alpha  occ. eigenvalues --   -0.60069  -0.55089  -0.51905  -0.44843  -0.39413
 Alpha  occ. eigenvalues --   -0.38942
 Alpha virt. eigenvalues --    0.03628   0.07150   0.08299   0.10163   0.11408
 Alpha virt. eigenvalues --    0.11944   0.15497   0.16436   0.16663   0.19977
 Alpha virt. eigenvalues --    0.20122   0.25591   0.32197   0.33883   0.35335

 Mulliken charges:
               1
     1  C   -0.083647
     2  C   -0.000475
     3  N   -0.201379
     4  H    0.102887
     5  H    0.096133
     6  H    0.086481
 Sum of Mulliken charges =   0.00000

 Dipole moment (field-independent basis, Debye):
    X=              4.1033    Y=             -0.0175    Z=              0.0114  Tot=              4.1034
 Quadrupole moment (field-independent basis, Debye-Ang):
   XX=            -20.9324   YY=            -17.7626   ZZ=            -17.7715
   XY=              0.0998   XZ=              0.0508   YZ=              0.1144

 Normal termination of Gaussian 09 at Wed Aug 26 14:28:57 2020.
