 Gaussian 09, Revision D.01,
 Gaussian 09:  ES64L-G09RevD.01 24-Apr-2013

 --------------------
 #p B2PLYPD3/Def2QZVP
 --------------------

 ------------
 cyanomethane
 ------------
 Symbolic Z-matrix:
 Charge =  0 Multiplicity = 1

                         Standard orientation:
 ---------------------------------------------------------------------
 Center     Atomic      Atomic             Coordinates (Angstroms)
 Number     Number       Type             X           Y           Z
 ---------------------------------------------------------------------
      1          6           0       -1.166042    0.000980    0.001402
      2          6           0        0.282956    0.002391   -0.032097
      3          7           0        1.437366    0.001944    0.017951
      4          1           0       -1.580475   -0.482270    0.925115
      5          1           0       -1.550126   -0.570168   -0.836548
      6          1           0       -1.632439    1.018605   -0.030051
 ---------------------------------------------------------------------

 SCF Done:  E(RB2PLYPD3) =  -132.532835404     A.U. after   12 cycles
 E2(B2PLYPD3) =    -0.1809386464D+00 E(B2PLYPD3) =    -0.13271377405068D+03

 The electronic state is 1-A.
 Alpha  occ. eigenvalues --  -14.84391 -10.67573 -10.66445  -1.04207  -0.88834
 Alpha  occ. eigenvalues --   -0.60390  -0.53601  -0.52554  -0.44973  -0.39099
 Alpha  occ. eigenvalues --   -0.38977
 Alpha virt. eigenvalues --    0.03605   0.07117   0.07780   0.10114   0.11454
 Alpha virt. eigenvalues --    0.11696   0.15504   0.16305   0.17037   0.20021
 Alpha virt. eigenvalues --    0.20152   0.25578   0.32666   0.34161   0.34615

 Mulliken charges:
               1
     1  C   -0.077399
     2  C    0.002907
     3  N   -0.204706
     4  H    0.091992
     5  H    0.094628
     6  H    0.092578
 Sum of Mulliken charges =   0.00000

 Dipole moment (field-independent basis, Debye):
    X=             -4.1272    Y=             -0.0171    Z=             -0.0262  Tot=              4.1273
 Quadrupole moment (field-independent basis, Debye-Ang):
   XX=            -20.7956   YY=            -17.8361   ZZ=            -17.8738
   XY=             -0.0327   XZ=             -0.1246   YZ=              0.0338

 Normal termination of Gaussian 09 at Wed Aug 26 11:26:21 2020.
