 Gaussian 09, Revision D.01,
 Gaussian 09:  ES64L-G09RevD.01 24-Apr-2013

 --------------------
 #p B2PLYPD3/Def2QZVP
 --------------------

 ------------
 cyanomethane
 ------------
 Symbolic Z-matrix:
 Charge =  0 Multiplicity = 1

                         Standard orientation:
 ---------------------------------------------------------------------
 Center     Atomic      Atomic             Coordinates (Angstroms)
 Number     Number       Type             X           Y           Z
 ---------------------------------------------------------------------
      1          6           0        1.188419    0.003374   -0.003522
      2          6           0       -0.275819   -0.035124    0.028266
      3          7           0       -1.438827    0.021562   -0.012831
      4          1           0        1.535794   -0.330412    0.927554
      5          1           0        1.575899    1.019625   -0.195442
      6          1           0        1.484491   -0.649650   -0.790761
 ---------------------------------------------------------------------

 SCF Done:  E(RB2PLYPD3) =  -132.532147945     A.U. after   12 cycles
 E2(B2PLYPD3) =    -0.1812317011D+00 E(B2PLYPD3) =    -0.13271337964610D+03

 The electronic state is 1-A.
 Alpha  occ. eigenvalues --  -14.84444 -10.66737 -10.66511  -1.03658  -0.89603
 Alpha  occ. eigenvalues --   -0.59433  -0.55197  -0.53814  -0.44753  -0.38882
 Alpha  occ. eigenvalues --   -0.38790
 Alpha virt. eigenvalues --    0.03711   0.07618   0.08480   0.10142   0.11112
 Alpha virt. eigenvalues --    0.11355   0.15339   0.15666   0.16603   0.20110
 Alpha virt. eigenvalues --    0.20173   0.25308   0.32704   0.34505   0.35068

 Mulliken charges:
               1
     1  C   -0.084712
     2  C   -0.001076
     3  N   -0.211880
     4  H    0.099387
     5  H    0.097366
     6  H    0.100913
 Sum of Mulliken charges =   0.00000

 Dipole moment (field-independent basis, Debye):
    X=              4.1374    Y=             -0.0370    Z=              0.0183  Tot=              4.1376
 Quadrupole moment (field-independent basis, Debye-Ang):
   XX=            -21.0729   YY=            -17.7440   ZZ=            -17.7308
   XY=              0.1593   XZ=             -0.0339   YZ=              0.0174

 Normal termination of Gaussian 09 at Wed Aug 26 12:19:55 2020.
