 Gaussian 09, Revision D.01,
 Gaussian 09:  ES64L-G09RevD.01 24-Apr-2013

 --------------------
 #p B2PLYPD3/Def2QZVP
 --------------------

 ------------
 cyanomethane
 ------------
 Symbolic Z-matrix:
 Charge =  0 Multiplicity = 1

                         Standard orientation:
 ---------------------------------------------------------------------
 Center     Atomic      Atomic             Coordinates (Angstroms)
 Number     Number       Type             X           Y           Z
 ---------------------------------------------------------------------
      1          6           0       -1.184830   -0.008782   -0.020912
      2          6           0        0.271033    0.002053    0.022532
      3          7           0        1.439596   -0.001883   -0.009320
      4          1           0       -1.508761    1.053485   -0.163011
      5          1           0       -1.542915   -0.341515    0.991221
      6          1           0       -1.542715   -0.658409   -0.772688
 ---------------------------------------------------------------------

 SCF Done:  E(RB2PLYPD3) =  -132.531099428     A.U. after   12 cycles
 E2(B2PLYPD3) =    -0.1818968739D+00 E(B2PLYPD3) =    -0.13271299630141D+03

 The electronic state is 1-A.
 Alpha  occ. eigenvalues --  -14.84509 -10.67535 -10.66602  -1.03493  -0.89176
 Alpha  occ. eigenvalues --   -0.59374  -0.54800  -0.53121  -0.44745  -0.38766
 Alpha  occ. eigenvalues --   -0.38465
 Alpha virt. eigenvalues --    0.03666   0.07492   0.07723   0.10098   0.11194
 Alpha virt. eigenvalues --    0.11446   0.15255   0.15608   0.16478   0.20131
 Alpha virt. eigenvalues --    0.20202   0.25360   0.32353   0.33542   0.34999

 Mulliken charges:
               1
     1  C   -0.095602
     2  C    0.001360
     3  N   -0.213731
     4  H    0.102098
     5  H    0.097978
     6  H    0.107898
 Sum of Mulliken charges =   0.00000

 Dipole moment (field-independent basis, Debye):
    X=             -4.1335    Y=              0.0027    Z=              0.0200  Tot=              4.1335
 Quadrupole moment (field-independent basis, Debye-Ang):
   XX=            -21.2316   YY=            -17.7186   ZZ=            -17.7952
   XY=              0.0401   XZ=              0.0193   YZ=              0.0701

 Normal termination of Gaussian 09 at Wed Aug 26 12:20:51 2020.
