 Gaussian 09, Revision D.01,
 Gaussian 09:  ES64L-G09RevD.01 24-Apr-2013

 --------------------
 #p B2PLYPD3/Def2QZVP
 --------------------

 ------------
 cyanomethane
 ------------
 Symbolic Z-matrix:
 Charge =  0 Multiplicity = 1

                         Standard orientation:
 ---------------------------------------------------------------------
 Center     Atomic      Atomic             Coordinates (Angstroms)
 Number     Number       Type             X           Y           Z
 ---------------------------------------------------------------------
      1          6           0       -1.171873    0.005217    0.003036
      2          6           0        0.281146   -0.006915   -0.014633
      3          7           0        1.437679    0.004930    0.007452
      4          1           0       -1.567115   -0.283431    0.974030
      5          1           0       -1.554285   -0.718236   -0.713646
      6          1           0       -1.597987    0.977343   -0.242960
 ---------------------------------------------------------------------

 SCF Done:  E(RB2PLYPD3) =  -132.535082014     A.U. after   11 cycles
 E2(B2PLYPD3) =    -0.1807031675D+00 E(B2PLYPD3) =    -0.13271578518129D+03

 The electronic state is 1-A.
 Alpha  occ. eigenvalues --  -14.84359 -10.67021 -10.66424  -1.04100  -0.89244
 Alpha  occ. eigenvalues --   -0.60387  -0.53737  -0.53545  -0.44908  -0.39084
 Alpha  occ. eigenvalues --   -0.39014
 Alpha virt. eigenvalues --    0.03757   0.07641   0.07853   0.10152   0.11444
 Alpha virt. eigenvalues --    0.11522   0.15490   0.16279   0.16871   0.20076
 Alpha virt. eigenvalues --    0.20122   0.25457   0.32769   0.34581   0.34853

 Mulliken charges:
               1
     1  C   -0.073643
     2  C    0.001278
     3  N   -0.206495
     4  H    0.092844
     5  H    0.092337
     6  H    0.093679
 Sum of Mulliken charges =   0.00000

 Dipole moment (field-independent basis, Debye):
    X=             -4.1402    Y=             -0.0169    Z=             -0.0076  Tot=              4.1403
 Quadrupole moment (field-independent basis, Debye-Ang):
   XX=            -20.8170   YY=            -17.7853   ZZ=            -17.8397
   XY=             -0.0346   XZ=             -0.0502   YZ=             -0.0030

 Normal termination of Gaussian 09 at Thu Aug 27 00:05:07 2020.
