 Gaussian 09, Revision D.01,
 Gaussian 09:  ES64L-G09RevD.01 24-Apr-2013

 --------------------
 #p B2PLYPD3/Def2QZVP
 --------------------

 ------------
 cyanomethane
 ------------
 Symbolic Z-matrix:
 Charge =  0 Multiplicity = 1

                         Standard orientation:
 ---------------------------------------------------------------------
 Center     Atomic      Atomic             Coordinates (Angstroms)
 Number     Number       Type             X           Y           Z
 ---------------------------------------------------------------------
      1          6           0       -1.183916    0.033462    0.002281
      2          6           0        0.287390   -0.033759   -0.020861
      3          7           0        1.414106    0.014384    0.011499
      4          1           0       -1.501540    1.029279   -0.271817
      5          1           0       -1.516056   -0.320726    1.065148
      6          1           0       -1.501994   -0.807454   -0.762341
 ---------------------------------------------------------------------

 SCF Done:  E(RB2PLYPD3) =  -132.524150760     A.U. after   12 cycles
 E2(B2PLYPD3) =    -0.1791284796D+00 E(B2PLYPD3) =    -0.13270327923930D+03

 The electronic state is 1-A.
 Alpha  occ. eigenvalues --  -14.83226 -10.68832 -10.65292  -1.05015  -0.87967
 Alpha  occ. eigenvalues --   -0.57770  -0.54316  -0.51946  -0.44450  -0.39704
 Alpha  occ. eigenvalues --   -0.39177
 Alpha virt. eigenvalues --    0.03386   0.07594   0.08212   0.10149   0.11648
 Alpha virt. eigenvalues --    0.12123   0.15052   0.15330   0.16623   0.19926
 Alpha virt. eigenvalues --    0.20052   0.25155   0.31788   0.32518   0.34781

 Mulliken charges:
               1
     1  C   -0.127747
     2  C   -0.004467
     3  N   -0.192014
     4  H    0.117331
     5  H    0.105631
     6  H    0.101266
 Sum of Mulliken charges =   0.00000

 Dipole moment (field-independent basis, Debye):
    X=             -4.0222    Y=             -0.0279    Z=             -0.0147  Tot=              4.0223
 Quadrupole moment (field-independent basis, Debye-Ang):
   XX=            -21.6117   YY=            -17.4834   ZZ=            -17.7004
   XY=             -0.0708   XZ=             -0.0915   YZ=             -0.0792

 Normal termination of Gaussian 09 at Wed Aug 26 18:34:36 2020.
