 Gaussian 09, Revision D.01,
 Gaussian 09:  ES64L-G09RevD.01 24-Apr-2013

 --------------------
 #p B2PLYPD3/Def2QZVP
 --------------------

 ------------
 cyanomethane
 ------------
 Symbolic Z-matrix:
 Charge =  0 Multiplicity = 1

                         Standard orientation:
 ---------------------------------------------------------------------
 Center     Atomic      Atomic             Coordinates (Angstroms)
 Number     Number       Type             X           Y           Z
 ---------------------------------------------------------------------
      1          6           0        1.173651   -0.003021   -0.017965
      2          6           0       -0.280822    0.008541    0.011679
      3          7           0       -1.436678   -0.001734    0.000069
      4          1           0        1.596006    1.018367   -0.049675
      5          1           0        1.498772   -0.574851   -0.815880
      6          1           0        1.604993   -0.464497    0.902794
 ---------------------------------------------------------------------

 SCF Done:  E(RB2PLYPD3) =  -132.532480150     A.U. after   11 cycles
 E2(B2PLYPD3) =    -0.1805997375D+00 E(B2PLYPD3) =    -0.13271307988706D+03

 The electronic state is 1-A.
 Alpha  occ. eigenvalues --  -14.84308 -10.66951 -10.66370  -1.04117  -0.89366
 Alpha  occ. eigenvalues --   -0.60228  -0.54967  -0.52649  -0.44873  -0.39207
 Alpha  occ. eigenvalues --   -0.38918
 Alpha virt. eigenvalues --    0.03754   0.07447   0.08174   0.10184   0.11307
 Alpha virt. eigenvalues --    0.11641   0.15439   0.16385   0.16675   0.20040
 Alpha virt. eigenvalues --    0.20140   0.25419   0.32587   0.34104   0.35388

 Mulliken charges:
               1
     1  C   -0.075774
     2  C    0.000434
     3  N   -0.206429
     4  H    0.093788
     5  H    0.100191
     6  H    0.087789
 Sum of Mulliken charges =   0.00000

 Dipole moment (field-independent basis, Debye):
    X=              4.1369    Y=             -0.0132    Z=              0.0019  Tot=              4.1369
 Quadrupole moment (field-independent basis, Debye-Ang):
   XX=            -20.8555   YY=            -17.7312   ZZ=            -17.8575
   XY=             -0.0042   XZ=              0.0867   YZ=              0.0823

 Normal termination of Gaussian 09 at Wed Aug 26 14:36:39 2020.
