 Gaussian 09, Revision D.01,
 Gaussian 09:  ES64L-G09RevD.01 24-Apr-2013

 --------------------
 #p B2PLYPD3/Def2QZVP
 --------------------

 ------------
 cyanomethane
 ------------
 Symbolic Z-matrix:
 Charge =  0 Multiplicity = 1

                         Standard orientation:
 ---------------------------------------------------------------------
 Center     Atomic      Atomic             Coordinates (Angstroms)
 Number     Number       Type             X           Y           Z
 ---------------------------------------------------------------------
      1          6           0        1.184932   -0.000306   -0.005753
      2          6           0       -0.271639   -0.000673    0.029661
      3          7           0       -1.433926    0.006143   -0.013842
      4          1           0        1.525139   -0.121015    1.005954
      5          1           0        1.582044    0.955228   -0.435050
      6          1           0        1.450543   -0.871339   -0.617454
 ---------------------------------------------------------------------

 SCF Done:  E(RB2PLYPD3) =  -132.532573302     A.U. after   12 cycles
 E2(B2PLYPD3) =    -0.1813300654D+00 E(B2PLYPD3) =    -0.13271390336733D+03

 The electronic state is 1-A.
 Alpha  occ. eigenvalues --  -14.84291 -10.67433 -10.66367  -1.03699  -0.89259
 Alpha  occ. eigenvalues --   -0.58927  -0.54511  -0.53843  -0.44671  -0.38759
 Alpha  occ. eigenvalues --   -0.38720
 Alpha virt. eigenvalues --    0.03654   0.07520   0.08168   0.10158   0.11308
 Alpha virt. eigenvalues --    0.11400   0.15200   0.15580   0.16400   0.20139
 Alpha virt. eigenvalues --    0.20158   0.25348   0.32537   0.34278   0.34391

 Mulliken charges:
               1
     1  C   -0.098992
     2  C   -0.001079
     3  N   -0.211592
     4  H    0.102897
     5  H    0.102694
     6  H    0.106073
 Sum of Mulliken charges =   0.00000

 Dipole moment (field-independent basis, Debye):
    X=              4.1210    Y=             -0.0190    Z=              0.0295  Tot=              4.1211
 Quadrupole moment (field-independent basis, Debye-Ang):
   XX=            -21.2805   YY=            -17.6603   ZZ=            -17.7645
   XY=              0.1144   XZ=             -0.0242   YZ=              0.0148

 Normal termination of Gaussian 09 at Wed Aug 26 12:43:07 2020.
