 Gaussian 09, Revision D.01,
 Gaussian 09:  ES64L-G09RevD.01 24-Apr-2013

 --------------------
 #p B2PLYPD3/Def2QZVP
 --------------------

 ------------
 cyanomethane
 ------------
 Symbolic Z-matrix:
 Charge =  0 Multiplicity = 1

                         Standard orientation:
 ---------------------------------------------------------------------
 Center     Atomic      Atomic             Coordinates (Angstroms)
 Number     Number       Type             X           Y           Z
 ---------------------------------------------------------------------
      1          6           0        1.147427    0.002743   -0.025184
      2          6           0       -0.274738   -0.050870    0.008833
      3          7           0       -1.419725    0.019713    0.006100
      4          1           0        1.681595    0.072359    0.944655
      5          1           0        1.426783    0.920143   -0.462345
      6          1           0        1.593562   -0.841732   -0.426903
 ---------------------------------------------------------------------

 SCF Done:  E(RB2PLYPD3) =  -132.527533164     A.U. after   11 cycles
 E2(B2PLYPD3) =    -0.1798765151D+00 E(B2PLYPD3) =    -0.13270740967858D+03

 The electronic state is 1-A.
 Alpha  occ. eigenvalues --  -14.84047 -10.66023 -10.65951  -1.04590  -0.90278
 Alpha  occ. eigenvalues --   -0.61654  -0.56212  -0.51844  -0.44918  -0.39440
 Alpha  occ. eigenvalues --   -0.38815
 Alpha virt. eigenvalues --    0.03794   0.07355   0.08407   0.10198   0.11365
 Alpha virt. eigenvalues --    0.12141   0.15547   0.16813   0.17044   0.19901
 Alpha virt. eigenvalues --    0.20223   0.26141   0.33006   0.34435   0.35848

 Mulliken charges:
               1
     1  C   -0.059822
     2  C    0.005529
     3  N   -0.203639
     4  H    0.072745
     5  H    0.094056
     6  H    0.091130
 Sum of Mulliken charges =   0.00000

 Dipole moment (field-independent basis, Debye):
    X=              4.1349    Y=             -0.0105    Z=              0.0238  Tot=              4.1350
 Quadrupole moment (field-independent basis, Debye-Ang):
   XX=            -20.5755   YY=            -17.4849   ZZ=            -18.0953
   XY=              0.0354   XZ=              0.2471   YZ=              0.0017

 Normal termination of Gaussian 09 at Wed Aug 26 21:19:45 2020.
