 Gaussian 09, Revision D.01,
 Gaussian 09:  ES64L-G09RevD.01 24-Apr-2013

 --------------------
 #p B2PLYPD3/Def2QZVP
 --------------------

 ------------
 cyanomethane
 ------------
 Symbolic Z-matrix:
 Charge =  0 Multiplicity = 1

                         Standard orientation:
 ---------------------------------------------------------------------
 Center     Atomic      Atomic             Coordinates (Angstroms)
 Number     Number       Type             X           Y           Z
 ---------------------------------------------------------------------
      1          6           0        1.209929   -0.006000    0.000921
      2          6           0       -0.283517    0.003670   -0.017548
      3          7           0       -1.442789   -0.004319    0.001008
      4          1           0        1.520211    0.954427   -0.343956
      5          1           0        1.614375   -0.791478   -0.565716
      6          1           0        1.406468   -0.118740    1.002373
 ---------------------------------------------------------------------

 SCF Done:  E(RB2PLYPD3) =  -132.529354965     A.U. after   12 cycles
 E2(B2PLYPD3) =    -0.1804567852D+00 E(B2PLYPD3) =    -0.13270981175021D+03

 The electronic state is 1-A.
 Alpha  occ. eigenvalues --  -14.84196 -10.66378 -10.66299  -1.03759  -0.89871
 Alpha  occ. eigenvalues --   -0.58889  -0.55390  -0.54945  -0.44569  -0.39134
 Alpha  occ. eigenvalues --   -0.38998
 Alpha virt. eigenvalues --    0.03914   0.08363   0.08923   0.10271   0.11050
 Alpha virt. eigenvalues --    0.11213   0.15039   0.15426   0.16605   0.20099
 Alpha virt. eigenvalues --    0.20169   0.24580   0.32383   0.35028   0.35539

 Mulliken charges:
               1
     1  C   -0.087392
     2  C   -0.005854
     3  N   -0.210423
     4  H    0.099856
     5  H    0.099780
     6  H    0.104032
 Sum of Mulliken charges =   0.00000

 Dipole moment (field-independent basis, Debye):
    X=              4.1585    Y=              0.0074    Z=              0.0234  Tot=              4.1586
 Quadrupole moment (field-independent basis, Debye-Ang):
   XX=            -21.1107   YY=            -17.6339   ZZ=            -17.7371
   XY=             -0.0729   XZ=             -0.0843   YZ=              0.0068

 Normal termination of Gaussian 09 at Thu Aug 27 00:53:50 2020.
