 Gaussian 09, Revision D.01,
 Gaussian 09:  ES64L-G09RevD.01 24-Apr-2013

 --------------------
 #p B2PLYPD3/Def2QZVP
 --------------------

 ------------
 cyanomethane
 ------------
 Symbolic Z-matrix:
 Charge =  0 Multiplicity = 1

                         Standard orientation:
 ---------------------------------------------------------------------
 Center     Atomic      Atomic             Coordinates (Angstroms)
 Number     Number       Type             X           Y           Z
 ---------------------------------------------------------------------
      1          6           0        1.167280   -0.003206   -0.020232
      2          6           0       -0.273565    0.025181    0.012664
      3          7           0       -1.431634   -0.014235   -0.005814
      4          1           0        1.536008    1.022551   -0.044712
      5          1           0        1.580124   -0.593467   -0.780630
      6          1           0        1.543018   -0.461286    0.911453
 ---------------------------------------------------------------------

 SCF Done:  E(RB2PLYPD3) =  -132.532728364     A.U. after   12 cycles
 E2(B2PLYPD3) =    -0.1808254767D+00 E(B2PLYPD3) =    -0.13271355384067D+03

 The electronic state is 1-A.
 Alpha  occ. eigenvalues --  -14.84332 -10.66687 -10.66351  -1.04012  -0.89701
 Alpha  occ. eigenvalues --   -0.60625  -0.54814  -0.53124  -0.44867  -0.39056
 Alpha  occ. eigenvalues --   -0.38750
 Alpha virt. eigenvalues --    0.03793   0.07644   0.07907   0.10078   0.11323
 Alpha virt. eigenvalues --    0.11696   0.15522   0.15977   0.17015   0.20059
 Alpha virt. eigenvalues --    0.20204   0.25702   0.32889   0.34041   0.35372

 Mulliken charges:
               1
     1  C   -0.074773
     2  C    0.002104
     3  N   -0.208663
     4  H    0.096038
     5  H    0.096979
     6  H    0.088315
 Sum of Mulliken charges =   0.00000

 Dipole moment (field-independent basis, Debye):
    X=              4.1336    Y=             -0.0028    Z=              0.0260  Tot=              4.1336
 Quadrupole moment (field-independent basis, Debye-Ang):
   XX=            -20.8952   YY=            -17.6342   ZZ=            -17.9074
   XY=             -0.1585   XZ=             -0.0053   YZ=              0.0528

 Normal termination of Gaussian 09 at Wed Aug 26 14:58:55 2020.
