 Gaussian 09, Revision D.01,
 Gaussian 09:  ES64L-G09RevD.01 24-Apr-2013

 --------------------
 #p B2PLYPD3/Def2QZVP
 --------------------

 ------------
 cyanomethane
 ------------
 Symbolic Z-matrix:
 Charge =  0 Multiplicity = 1

                         Standard orientation:
 ---------------------------------------------------------------------
 Center     Atomic      Atomic             Coordinates (Angstroms)
 Number     Number       Type             X           Y           Z
 ---------------------------------------------------------------------
      1          6           0        1.173381   -0.012358    0.007141
      2          6           0       -0.277027    0.037463   -0.009805
      3          7           0       -1.444750   -0.018160    0.004496
      4          1           0        1.580330   -0.111879    1.036887
      5          1           0        1.579066    0.953053   -0.434971
      6          1           0        1.575735   -0.864682   -0.617408
 ---------------------------------------------------------------------

 SCF Done:  E(RB2PLYPD3) =  -132.530099967     A.U. after   12 cycles
 E2(B2PLYPD3) =    -0.1823478305D+00 E(B2PLYPD3) =    -0.13271244779781D+03

 The electronic state is 1-A.
 Alpha  occ. eigenvalues --  -14.84731 -10.68206 -10.66808  -1.03625  -0.88505
 Alpha  occ. eigenvalues --   -0.59852  -0.53160  -0.52709  -0.44963  -0.38717
 Alpha  occ. eigenvalues --   -0.38591
 Alpha virt. eigenvalues --    0.03502   0.06942   0.07147   0.10066   0.11405
 Alpha virt. eigenvalues --    0.11466   0.15383   0.15978   0.16809   0.20093
 Alpha virt. eigenvalues --    0.20176   0.25558   0.32262   0.33762   0.34307

 Mulliken charges:
               1
     1  C   -0.089820
     2  C    0.005025
     3  N   -0.210716
     4  H    0.100648
     5  H    0.095365
     6  H    0.099497
 Sum of Mulliken charges =   0.00000

 Dipole moment (field-independent basis, Debye):
    X=              4.1317    Y=              0.0228    Z=             -0.0030  Tot=              4.1318
 Quadrupole moment (field-independent basis, Debye-Ang):
   XX=            -21.0027   YY=            -17.8816   ZZ=            -17.8656
   XY=             -0.0951   XZ=              0.0306   YZ=              0.0107

 Normal termination of Gaussian 09 at Wed Aug 26 15:10:15 2020.
