 Gaussian 09, Revision D.01,
 Gaussian 09:  ES64L-G09RevD.01 24-Apr-2013

 --------------------
 #p B2PLYPD3/Def2QZVP
 --------------------

 ------------
 cyanomethane
 ------------
 Symbolic Z-matrix:
 Charge =  0 Multiplicity = 1

                         Standard orientation:
 ---------------------------------------------------------------------
 Center     Atomic      Atomic             Coordinates (Angstroms)
 Number     Number       Type             X           Y           Z
 ---------------------------------------------------------------------
      1          6           0       -1.144667   -0.015279   -0.024068
      2          6           0        0.252402    0.042370    0.040572
      3          7           0        1.435038   -0.024306   -0.018725
      4          1           0       -1.508293    1.031186   -0.056572
      5          1           0       -1.581169   -0.457613    0.856230
      6          1           0       -1.602219   -0.565982   -0.767607
 ---------------------------------------------------------------------

 SCF Done:  E(RB2PLYPD3) =  -132.522167548     A.U. after   12 cycles
 E2(B2PLYPD3) =    -0.1834367813D+00 E(B2PLYPD3) =    -0.13270560432947D+03

 The electronic state is 1-A.
 Alpha  occ. eigenvalues --  -14.85130 -10.67046 -10.66066  -1.03167  -0.90622
 Alpha  occ. eigenvalues --   -0.62647  -0.54373  -0.53499  -0.45116  -0.38196
 Alpha  occ. eigenvalues --   -0.38020
 Alpha virt. eigenvalues --    0.03766   0.06633   0.07147   0.09782   0.11362
 Alpha virt. eigenvalues --    0.11685   0.15520   0.16122   0.17382   0.20194
 Alpha virt. eigenvalues --    0.20472   0.26583   0.32908   0.34135   0.35397

 Mulliken charges:
               1
     1  C   -0.058008
     2  C    0.012395
     3  N   -0.220274
     4  H    0.089599
     5  H    0.084002
     6  H    0.092286
 Sum of Mulliken charges =   0.00000

 Dipole moment (field-independent basis, Debye):
    X=             -4.1745    Y=             -0.0007    Z=              0.0399  Tot=              4.1747
 Quadrupole moment (field-independent basis, Debye-Ang):
   XX=            -20.6770   YY=            -17.7011   ZZ=            -18.0586
   XY=              0.2609   XZ=              0.0483   YZ=              0.0288

 Normal termination of Gaussian 09 at Wed Aug 26 20:29:35 2020.
