 Gaussian 09, Revision D.01,
 Gaussian 09:  ES64L-G09RevD.01 24-Apr-2013

 --------------------
 #p B2PLYPD3/Def2QZVP
 --------------------

 ------------
 cyanomethane
 ------------
 Symbolic Z-matrix:
 Charge =  0 Multiplicity = 1

                         Standard orientation:
 ---------------------------------------------------------------------
 Center     Atomic      Atomic             Coordinates (Angstroms)
 Number     Number       Type             X           Y           Z
 ---------------------------------------------------------------------
      1          6           0        1.180845   -0.041136   -0.019512
      2          6           0       -0.287059    0.042678    0.040005
      3          7           0       -1.449314   -0.019977   -0.014401
      4          1           0        1.563459    1.053205   -0.023934
      5          1           0        1.552270   -0.466670   -0.834243
      6          1           0        1.666749   -0.455948    0.836023
 ---------------------------------------------------------------------

 SCF Done:  E(RB2PLYPD3) =  -132.521338721     A.U. after   12 cycles
 E2(B2PLYPD3) =    -0.1815661742D+00 E(B2PLYPD3) =    -0.13270290489521D+03

 The electronic state is 1-A.
 Alpha  occ. eigenvalues --  -14.84773 -10.66931 -10.66730  -1.03852  -0.89406
 Alpha  occ. eigenvalues --   -0.61367  -0.55197  -0.51762  -0.45070  -0.39294
 Alpha  occ. eigenvalues --   -0.38676
 Alpha virt. eigenvalues --    0.03715   0.07289   0.07699   0.10022   0.11202
 Alpha virt. eigenvalues --    0.11591   0.15415   0.15909   0.17791   0.20089
 Alpha virt. eigenvalues --    0.20247   0.25451   0.31946   0.33450   0.36129

 Mulliken charges:
               1
     1  C   -0.066448
     2  C    0.011376
     3  N   -0.210012
     4  H    0.078070
     5  H    0.098207
     6  H    0.088806
 Sum of Mulliken charges =   0.00000

 Dipole moment (field-independent basis, Debye):
    X=              4.1433    Y=              0.0248    Z=              0.0163  Tot=              4.1434
 Quadrupole moment (field-independent basis, Debye-Ang):
   XX=            -20.6413   YY=            -17.9297   ZZ=            -17.8717
   XY=             -0.1279   XZ=             -0.0010   YZ=              0.0525

 Normal termination of Gaussian 09 at Wed Aug 26 22:09:07 2020.
