 Gaussian 09, Revision D.01,
 Gaussian 09:  ES64L-G09RevD.01 24-Apr-2013

 --------------------
 #p B2PLYPD3/Def2QZVP
 --------------------

 ------------
 cyanomethane
 ------------
 Symbolic Z-matrix:
 Charge =  0 Multiplicity = 1

                         Standard orientation:
 ---------------------------------------------------------------------
 Center     Atomic      Atomic             Coordinates (Angstroms)
 Number     Number       Type             X           Y           Z
 ---------------------------------------------------------------------
      1          6           0       -1.175914    0.010539    0.000014
      2          6           0        0.276720    0.026546   -0.006306
      3          7           0        1.423478   -0.009850    0.005930
      4          1           0       -1.538818   -0.339582    1.002287
      5          1           0       -1.452438   -0.801671   -0.746320
      6          1           0       -1.577922    0.987692   -0.259729
 ---------------------------------------------------------------------

 SCF Done:  E(RB2PLYPD3) =  -132.532445027     A.U. after   12 cycles
 E2(B2PLYPD3) =    -0.1802196915D+00 E(B2PLYPD3) =    -0.13271266471883D+03

 The electronic state is 1-A.
 Alpha  occ. eigenvalues --  -14.83842 -10.67880 -10.65900  -1.04332  -0.88844
 Alpha  occ. eigenvalues --   -0.58874  -0.54518  -0.52822  -0.44633  -0.39222
 Alpha  occ. eigenvalues --   -0.38852
 Alpha virt. eigenvalues --    0.03593   0.07618   0.08042   0.10181   0.11412
 Alpha virt. eigenvalues --    0.11887   0.15284   0.15730   0.16481   0.20001
 Alpha virt. eigenvalues --    0.20154   0.25394   0.32604   0.33309   0.34783

 Mulliken charges:
               1
     1  C   -0.105729
     2  C   -0.001826
     3  N   -0.203303
     4  H    0.101356
     5  H    0.102177
     6  H    0.107325
 Sum of Mulliken charges =   0.00000

 Dipole moment (field-independent basis, Debye):
    X=             -4.0885    Y=             -0.0054    Z=             -0.0026  Tot=              4.0885
 Quadrupole moment (field-independent basis, Debye-Ang):
   XX=            -21.3064   YY=            -17.5655   ZZ=            -17.7989
   XY=              0.0107   XZ=             -0.0965   YZ=             -0.0324

 Normal termination of Gaussian 09 at Wed Aug 26 13:36:48 2020.
