 Gaussian 09, Revision D.01,
 Gaussian 09:  ES64L-G09RevD.01 24-Apr-2013

 --------------------
 #p B2PLYPD3/Def2QZVP
 --------------------

 ------------
 cyanomethane
 ------------
 Symbolic Z-matrix:
 Charge =  0 Multiplicity = 1

                         Standard orientation:
 ---------------------------------------------------------------------
 Center     Atomic      Atomic             Coordinates (Angstroms)
 Number     Number       Type             X           Y           Z
 ---------------------------------------------------------------------
      1          6           0       -1.174613   -0.007877    0.003154
      2          6           0        0.281892    0.040916   -0.003471
      3          7           0        1.422472   -0.019634   -0.002930
      4          1           0       -1.469560   -0.301274    0.947566
      5          1           0       -1.568396   -0.729397   -0.696391
      6          1           0       -1.563023    0.969873   -0.228761
 ---------------------------------------------------------------------

 SCF Done:  E(RB2PLYPD3) =  -132.533873331     A.U. after   12 cycles
 E2(B2PLYPD3) =    -0.1791087108D+00 E(B2PLYPD3) =    -0.13271298204169D+03

 The electronic state is 1-A.
 Alpha  occ. eigenvalues --  -14.83791 -10.66231 -10.65797  -1.04601  -0.89839
 Alpha  occ. eigenvalues --   -0.59805  -0.55037  -0.54041  -0.44708  -0.39427
 Alpha  occ. eigenvalues --   -0.39368
 Alpha virt. eigenvalues --    0.03875   0.08180   0.08753   0.10190   0.11464
 Alpha virt. eigenvalues --    0.11612   0.15537   0.16020   0.16772   0.19988
 Alpha virt. eigenvalues --    0.20098   0.25471   0.33034   0.34913   0.35288

 Mulliken charges:
               1
     1  C   -0.078663
     2  C   -0.004466
     3  N   -0.200734
     4  H    0.096990
     5  H    0.092934
     6  H    0.093939
 Sum of Mulliken charges =   0.00000

 Dipole moment (field-independent basis, Debye):
    X=             -4.1051    Y=              0.0149    Z=              0.0234  Tot=              4.1052
 Quadrupole moment (field-independent basis, Debye-Ang):
   XX=            -20.9459   YY=            -17.5978   ZZ=            -17.7304
   XY=              0.1297   XZ=              0.0498   YZ=             -0.0266

 Normal termination of Gaussian 09 at Wed Aug 26 13:18:16 2020.
