 Gaussian 09, Revision D.01,
 Gaussian 09:  ES64L-G09RevD.01 24-Apr-2013

 --------------------
 #p B2PLYPD3/Def2QZVP
 --------------------

 ------------
 cyanomethane
 ------------
 Symbolic Z-matrix:
 Charge =  0 Multiplicity = 1

                         Standard orientation:
 ---------------------------------------------------------------------
 Center     Atomic      Atomic             Coordinates (Angstroms)
 Number     Number       Type             X           Y           Z
 ---------------------------------------------------------------------
      1          6           0        1.165393   -0.006563    0.034437
      2          6           0       -0.282173   -0.009990   -0.045494
      3          7           0       -1.452994    0.007086    0.011727
      4          1           0        1.689015    0.934853   -0.460319
      5          1           0        1.675782   -0.853432   -0.538465
      6          1           0        1.506840   -0.031702    0.983041
 ---------------------------------------------------------------------

 SCF Done:  E(RB2PLYPD3) =  -132.519436847     A.U. after   12 cycles
 E2(B2PLYPD3) =    -0.1827131688D+00 E(B2PLYPD3) =    -0.13270215001562D+03

 The electronic state is 1-A.
 Alpha  occ. eigenvalues --  -14.85067 -10.67680 -10.67162  -1.03681  -0.88934
 Alpha  occ. eigenvalues --   -0.61371  -0.54359  -0.50916  -0.45217  -0.38978
 Alpha  occ. eigenvalues --   -0.38464
 Alpha virt. eigenvalues --    0.03474   0.06215   0.07272   0.10099   0.11312
 Alpha virt. eigenvalues --    0.11656   0.15473   0.16728   0.17080   0.20067
 Alpha virt. eigenvalues --    0.20219   0.25653   0.31653   0.33158   0.35421

 Mulliken charges:
               1
     1  C   -0.068505
     2  C    0.010845
     3  N   -0.211167
     4  H    0.080894
     5  H    0.085378
     6  H    0.102555
 Sum of Mulliken charges =   0.00000

 Dipole moment (field-independent basis, Debye):
    X=              4.1469    Y=             -0.0196    Z=              0.0126  Tot=              4.1469
 Quadrupole moment (field-independent basis, Debye-Ang):
   XX=            -20.5826   YY=            -18.0786   ZZ=            -17.9333
   XY=              0.0405   XZ=             -0.0335   YZ=              0.0221

 Normal termination of Gaussian 09 at Wed Aug 26 23:47:27 2020.
