 Gaussian 09, Revision D.01,
 Gaussian 09:  ES64L-G09RevD.01 24-Apr-2013

 --------------------
 #p B2PLYPD3/Def2QZVP
 --------------------

 ------------
 cyanomethane
 ------------
 Symbolic Z-matrix:
 Charge =  0 Multiplicity = 1

                         Standard orientation:
 ---------------------------------------------------------------------
 Center     Atomic      Atomic             Coordinates (Angstroms)
 Number     Number       Type             X           Y           Z
 ---------------------------------------------------------------------
      1          6           0        1.185187    0.015739    0.008962
      2          6           0       -0.274620   -0.019875   -0.020350
      3          7           0       -1.431122    0.006335    0.005939
      4          1           0        1.495135    1.028944   -0.179080
      5          1           0        1.577866   -0.688160   -0.777476
      6          1           0        1.481453   -0.360313    0.983316
 ---------------------------------------------------------------------

 SCF Done:  E(RB2PLYPD3) =  -132.533474307     A.U. after   12 cycles
 E2(B2PLYPD3) =    -0.1807701489D+00 E(B2PLYPD3) =    -0.13271424445628D+03

 The electronic state is 1-A.
 Alpha  occ. eigenvalues --  -14.84116 -10.67416 -10.66182  -1.03923  -0.89191
 Alpha  occ. eigenvalues --   -0.58774  -0.55059  -0.53386  -0.44638  -0.39000
 Alpha  occ. eigenvalues --   -0.38798
 Alpha virt. eigenvalues --    0.03711   0.07744   0.08169   0.10170   0.11301
 Alpha virt. eigenvalues --    0.11519   0.15219   0.15805   0.16175   0.20089
 Alpha virt. eigenvalues --    0.20141   0.25295   0.32424   0.34048   0.34898

 Mulliken charges:
               1
     1  C   -0.099109
     2  C   -0.002588
     3  N   -0.208726
     4  H    0.107817
     5  H    0.097786
     6  H    0.104820
 Sum of Mulliken charges =   0.00000

 Dipole moment (field-independent basis, Debye):
    X=              4.1110    Y=             -0.0149    Z=              0.0008  Tot=              4.1110
 Quadrupole moment (field-independent basis, Debye-Ang):
   XX=            -21.2910   YY=            -17.6231   ZZ=            -17.7564
   XY=             -0.0291   XZ=             -0.0165   YZ=             -0.0544

 Normal termination of Gaussian 09 at Wed Aug 26 11:05:09 2020.
