 Gaussian 09, Revision D.01,
 Gaussian 09:  ES64L-G09RevD.01 24-Apr-2013

 --------------------
 #p B2PLYPD3/Def2QZVP
 --------------------

 ------------
 cyanomethane
 ------------
 Symbolic Z-matrix:
 Charge =  0 Multiplicity = 1

                         Standard orientation:
 ---------------------------------------------------------------------
 Center     Atomic      Atomic             Coordinates (Angstroms)
 Number     Number       Type             X           Y           Z
 ---------------------------------------------------------------------
      1          6           0       -1.158431    0.013314    0.007045
      2          6           0        0.282891   -0.018762    0.019281
      3          7           0        1.423297    0.000847   -0.013268
      4          1           0       -1.667201   -0.833455   -0.650320
      5          1           0       -1.489599    0.982863   -0.423828
      6          1           0       -1.553034   -0.122649    1.009066
 ---------------------------------------------------------------------

 SCF Done:  E(RB2PLYPD3) =  -132.529440734     A.U. after   12 cycles
 E2(B2PLYPD3) =    -0.1799351983D+00 E(B2PLYPD3) =    -0.13270937593267D+03

 The electronic state is 1-A.
 Alpha  occ. eigenvalues --  -14.83883 -10.68000 -10.65880  -1.04758  -0.88663
 Alpha  occ. eigenvalues --   -0.59737  -0.54167  -0.51761  -0.44841  -0.39397
 Alpha  occ. eigenvalues --   -0.39073
 Alpha virt. eigenvalues --    0.03490   0.06925   0.08061   0.10170   0.11651
 Alpha virt. eigenvalues --    0.12016   0.15468   0.16305   0.16833   0.19964
 Alpha virt. eigenvalues --    0.20087   0.25679   0.32152   0.33843   0.34620

 Mulliken charges:
               1
     1  C   -0.093033
     2  C   -0.000059
     3  N   -0.197568
     4  H    0.089296
     5  H    0.101278
     6  H    0.100086
 Sum of Mulliken charges =   0.00000

 Dipole moment (field-independent basis, Debye):
    X=             -4.0817    Y=              0.0155    Z=              0.0363  Tot=              4.0819
 Quadrupole moment (field-independent basis, Debye-Ang):
   XX=            -20.9807   YY=            -17.7729   ZZ=            -17.7784
   XY=              0.0922   XZ=              0.0827   YZ=             -0.0845

 Normal termination of Gaussian 09 at Wed Aug 26 10:51:38 2020.
