 Gaussian 09, Revision D.01,
 Gaussian 09:  ES64L-G09RevD.01 24-Apr-2013

 --------------------
 #p B2PLYPD3/Def2QZVP
 --------------------

 ------------
 cyanomethane
 ------------
 Symbolic Z-matrix:
 Charge =  0 Multiplicity = 1

                         Standard orientation:
 ---------------------------------------------------------------------
 Center     Atomic      Atomic             Coordinates (Angstroms)
 Number     Number       Type             X           Y           Z
 ---------------------------------------------------------------------
      1          6           0        1.186325   -0.021558   -0.007134
      2          6           0       -0.281354    0.026199   -0.020666
      3          7           0       -1.442351   -0.009526    0.013882
      4          1           0        1.585777   -0.058216    1.009512
      5          1           0        1.565361    0.937045   -0.409376
      6          1           0        1.515494   -0.839994   -0.530509
 ---------------------------------------------------------------------

 SCF Done:  E(RB2PLYPD3) =  -132.531192771     A.U. after   11 cycles
 E2(B2PLYPD3) =    -0.1810224891D+00 E(B2PLYPD3) =    -0.13271221525974D+03

 The electronic state is 1-A.
 Alpha  occ. eigenvalues --  -14.84452 -10.66827 -10.66548  -1.03818  -0.89414
 Alpha  occ. eigenvalues --   -0.59928  -0.55532  -0.52741  -0.44831  -0.39141
 Alpha  occ. eigenvalues --   -0.38786
 Alpha virt. eigenvalues --    0.03766   0.07584   0.08261   0.10147   0.11083
 Alpha virt. eigenvalues --    0.11521   0.15348   0.16048   0.16710   0.20035
 Alpha virt. eigenvalues --    0.20181   0.25214   0.32516   0.34067   0.35555

 Mulliken charges:
               1
     1  C   -0.077178
     2  C    0.000316
     3  N   -0.209647
     4  H    0.091166
     5  H    0.092556
     6  H    0.102788
 Sum of Mulliken charges =   0.00000

 Dipole moment (field-independent basis, Debye):
    X=              4.1460    Y=              0.0168    Z=              0.0012  Tot=              4.1461
 Quadrupole moment (field-independent basis, Debye-Ang):
   XX=            -20.9305   YY=            -17.6663   ZZ=            -17.9020
   XY=             -0.0028   XZ=              0.1693   YZ=              0.0833

 Normal termination of Gaussian 09 at Wed Aug 26 11:52:57 2020.
