 Gaussian 09, Revision D.01,
 Gaussian 09:  ES64L-G09RevD.01 24-Apr-2013

 --------------------
 #p B2PLYPD3/Def2QZVP
 --------------------

 ------------
 cyanomethane
 ------------
 Symbolic Z-matrix:
 Charge =  0 Multiplicity = 1

                         Standard orientation:
 ---------------------------------------------------------------------
 Center     Atomic      Atomic             Coordinates (Angstroms)
 Number     Number       Type             X           Y           Z
 ---------------------------------------------------------------------
      1          6           0        1.169531   -0.009014    0.004430
      2          6           0       -0.282453    0.021928   -0.007705
      3          7           0       -1.427283   -0.007097    0.003698
      4          1           0        1.528721   -0.569827   -0.843897
      5          1           0        1.536268   -0.468050    0.896766
      6          1           0        1.603529    1.010069   -0.059111
 ---------------------------------------------------------------------

 SCF Done:  E(RB2PLYPD3) =  -132.535731351     A.U. after   11 cycles
 E2(B2PLYPD3) =    -0.1796315829D+00 E(B2PLYPD3) =    -0.13271536293393D+03

 The electronic state is 1-A.
 Alpha  occ. eigenvalues --  -14.83953 -10.66885 -10.65980  -1.04523  -0.89332
 Alpha  occ. eigenvalues --   -0.60025  -0.54264  -0.53470  -0.44796  -0.39335
 Alpha  occ. eigenvalues --   -0.39248
 Alpha virt. eigenvalues --    0.03799   0.07898   0.08201   0.10188   0.11573
 Alpha virt. eigenvalues --    0.11629   0.15507   0.16400   0.16620   0.20042
 Alpha virt. eigenvalues --    0.20052   0.25494   0.32845   0.34609   0.34988

 Mulliken charges:
               1
     1  C   -0.079201
     2  C   -0.002174
     3  N   -0.201293
     4  H    0.095074
     5  H    0.096354
     6  H    0.091239
 Sum of Mulliken charges =   0.00000

 Dipole moment (field-independent basis, Debye):
    X=              4.1133    Y=             -0.0022    Z=             -0.0058  Tot=              4.1134
 Quadrupole moment (field-independent basis, Debye-Ang):
   XX=            -20.9045   YY=            -17.7373   ZZ=            -17.7316
   XY=             -0.0096   XZ=              0.0218   YZ=             -0.0037

 Normal termination of Gaussian 09 at Thu Aug 27 00:03:18 2020.
