 Gaussian 09, Revision D.01,
 Gaussian 09:  ES64L-G09RevD.01 24-Apr-2013

 --------------------
 #p B2PLYPD3/Def2QZVP
 --------------------

 ------------
 cyanomethane
 ------------
 Symbolic Z-matrix:
 Charge =  0 Multiplicity = 1

                         Standard orientation:
 ---------------------------------------------------------------------
 Center     Atomic      Atomic             Coordinates (Angstroms)
 Number     Number       Type             X           Y           Z
 ---------------------------------------------------------------------
      1          6           0        1.179281   -0.000284   -0.005675
      2          6           0       -0.280132   -0.001047    0.023422
      3          7           0       -1.428578    0.000328   -0.012526
      4          1           0        1.532639    1.031626   -0.091877
      5          1           0        1.546032   -0.588221   -0.843427
      6          1           0        1.526489   -0.437720    0.916506
 ---------------------------------------------------------------------

 SCF Done:  E(RB2PLYPD3) =  -132.535888771     A.U. after   11 cycles
 E2(B2PLYPD3) =    -0.1799347583D+00 E(B2PLYPD3) =    -0.13271582352977D+03

 The electronic state is 1-A.
 Alpha  occ. eigenvalues --  -14.83967 -10.67047 -10.66011  -1.04292  -0.89275
 Alpha  occ. eigenvalues --   -0.59332  -0.54259  -0.54007  -0.44699  -0.39175
 Alpha  occ. eigenvalues --   -0.39165
 Alpha virt. eigenvalues --    0.03771   0.07977   0.08297   0.10185   0.11468
 Alpha virt. eigenvalues --    0.11522   0.15391   0.15965   0.16515   0.20060
 Alpha virt. eigenvalues --    0.20087   0.25332   0.32830   0.34605   0.34693

 Mulliken charges:
               1
     1  C   -0.089043
     2  C   -0.003692
     3  N   -0.203899
     4  H    0.099055
     5  H    0.099093
     6  H    0.098485
 Sum of Mulliken charges =   0.00000

 Dipole moment (field-independent basis, Debye):
    X=              4.1114    Y=             -0.0055    Z=              0.0214  Tot=              4.1115
 Quadrupole moment (field-independent basis, Debye-Ang):
   XX=            -21.0960   YY=            -17.6736   ZZ=            -17.7187
   XY=             -0.0151   XZ=             -0.0770   YZ=             -0.0030

 Normal termination of Gaussian 09 at Wed Aug 26 12:47:25 2020.
