 Gaussian 09, Revision D.01,
 Gaussian 09:  ES64L-G09RevD.01 24-Apr-2013

 --------------------
 #p B2PLYPD3/Def2QZVP
 --------------------

 ------------
 cyanomethane
 ------------
 Symbolic Z-matrix:
 Charge =  0 Multiplicity = 1

                         Standard orientation:
 ---------------------------------------------------------------------
 Center     Atomic      Atomic             Coordinates (Angstroms)
 Number     Number       Type             X           Y           Z
 ---------------------------------------------------------------------
      1          6           0        1.150802   -0.009518   -0.007770
      2          6           0       -0.258439   -0.014607   -0.050246
      3          7           0       -1.431754    0.014136    0.019655
      4          1           0        1.652221    1.036192   -0.160944
      5          1           0        1.585224   -0.713961   -0.600324
      6          1           0        1.430660   -0.276432    0.971780
 ---------------------------------------------------------------------

 SCF Done:  E(RB2PLYPD3) =  -132.521522315     A.U. after   12 cycles
 E2(B2PLYPD3) =    -0.1824578261D+00 E(B2PLYPD3) =    -0.13270398014127D+03

 The electronic state is 1-A.
 Alpha  occ. eigenvalues --  -14.84799 -10.66765 -10.66332  -1.03495  -0.90509
 Alpha  occ. eigenvalues --   -0.61605  -0.55188  -0.52887  -0.45005  -0.38572
 Alpha  occ. eigenvalues --   -0.38174
 Alpha virt. eigenvalues --    0.03543   0.06624   0.07927   0.10078   0.11203
 Alpha virt. eigenvalues --    0.11806   0.15698   0.15784   0.17346   0.20152
 Alpha virt. eigenvalues --    0.20326   0.26252   0.32237   0.34271   0.35220

 Mulliken charges:
               1
     1  C   -0.068093
     2  C    0.007782
     3  N   -0.216658
     4  H    0.090148
     5  H    0.094325
     6  H    0.092495
 Sum of Mulliken charges =   0.00000

 Dipole moment (field-independent basis, Debye):
    X=              4.1601    Y=             -0.0703    Z=              0.0472  Tot=              4.1610
 Quadrupole moment (field-independent basis, Debye-Ang):
   XX=            -20.7753   YY=            -17.6635   ZZ=            -17.9961
   XY=              0.0480   XZ=              0.1455   YZ=              0.0583

 Normal termination of Gaussian 09 at Wed Aug 26 19:11:48 2020.
