 Gaussian 09, Revision D.01,
 Gaussian 09:  ES64L-G09RevD.01 24-Apr-2013

 --------------------
 #p B2PLYPD3/Def2QZVP
 --------------------

 ------------
 cyanomethane
 ------------
 Symbolic Z-matrix:
 Charge =  0 Multiplicity = 1

                         Standard orientation:
 ---------------------------------------------------------------------
 Center     Atomic      Atomic             Coordinates (Angstroms)
 Number     Number       Type             X           Y           Z
 ---------------------------------------------------------------------
      1          6           0       -1.176420   -0.001134   -0.001967
      2          6           0        0.295289   -0.013162   -0.027810
      3          7           0        1.434551    0.006965    0.011139
      4          1           0       -1.586449    1.077234   -0.044625
      5          1           0       -1.537716   -0.452205    0.962882
      6          1           0       -1.630901   -0.588008   -0.817571
 ---------------------------------------------------------------------

 SCF Done:  E(RB2PLYPD3) =  -132.531752958     A.U. after   12 cycles
 E2(B2PLYPD3) =    -0.1798260017D+00 E(B2PLYPD3) =    -0.13271157895982D+03

 The electronic state is 1-A.
 Alpha  occ. eigenvalues --  -14.83923 -10.68330 -10.66043  -1.04747  -0.87995
 Alpha  occ. eigenvalues --   -0.59419  -0.52994  -0.52375  -0.44832  -0.39515
 Alpha  occ. eigenvalues --   -0.39357
 Alpha virt. eigenvalues --    0.03503   0.07460   0.07875   0.10218   0.11572
 Alpha virt. eigenvalues --    0.11796   0.15282   0.16415   0.16821   0.19956
 Alpha virt. eigenvalues --    0.20025   0.25144   0.32329   0.33748   0.34407

 Mulliken charges:
               1
     1  C   -0.093362
     2  C   -0.000619
     3  N   -0.196185
     4  H    0.095799
     5  H    0.096622
     6  H    0.097744
 Sum of Mulliken charges =   0.00000

 Dipole moment (field-independent basis, Debye):
    X=             -4.0997    Y=             -0.0274    Z=             -0.0052  Tot=              4.0998
 Quadrupole moment (field-independent basis, Debye-Ang):
   XX=            -20.9502   YY=            -17.7524   ZZ=            -17.8606
   XY=             -0.0011   XZ=             -0.0326   YZ=              0.0199

 Normal termination of Gaussian 09 at Wed Aug 26 12:10:08 2020.
