 Gaussian 09, Revision D.01,
 Gaussian 09:  ES64L-G09RevD.01 24-Apr-2013

 --------------------
 #p B2PLYPD3/Def2QZVP
 --------------------

 ------------
 cyanomethane
 ------------
 Symbolic Z-matrix:
 Charge =  0 Multiplicity = 1

                         Standard orientation:
 ---------------------------------------------------------------------
 Center     Atomic      Atomic             Coordinates (Angstroms)
 Number     Number       Type             X           Y           Z
 ---------------------------------------------------------------------
      1          6           0       -1.178092    0.000821    0.007311
      2          6           0        0.291804   -0.016320   -0.016030
      3          7           0        1.436349    0.006141    0.001412
      4          1           0       -1.589417    0.935135   -0.460585
      5          1           0       -1.494037   -0.027676    1.036850
      6          1           0       -1.653266   -0.857453   -0.533836
 ---------------------------------------------------------------------

 SCF Done:  E(RB2PLYPD3) =  -132.533802656     A.U. after   12 cycles
 E2(B2PLYPD3) =    -0.1799354439D+00 E(B2PLYPD3) =    -0.13271373809995D+03

 The electronic state is 1-A.
 Alpha  occ. eigenvalues --  -14.84036 -10.67724 -10.66153  -1.04544  -0.88520
 Alpha  occ. eigenvalues --   -0.59651  -0.53762  -0.52594  -0.44834  -0.39404
 Alpha  occ. eigenvalues --   -0.39317
 Alpha virt. eigenvalues --    0.03652   0.07541   0.08102   0.10236   0.11539
 Alpha virt. eigenvalues --    0.11633   0.15307   0.16346   0.16859   0.20004
 Alpha virt. eigenvalues --    0.20047   0.25154   0.32406   0.34220   0.34782

 Mulliken charges:
               1
     1  C   -0.085602
     2  C   -0.001019
     3  N   -0.199739
     4  H    0.093806
     5  H    0.099420
     6  H    0.093135
 Sum of Mulliken charges =   0.00000

 Dipole moment (field-independent basis, Debye):
    X=             -4.1185    Y=             -0.0041    Z=              0.0141  Tot=              4.1185
 Quadrupole moment (field-independent basis, Debye-Ang):
   XX=            -20.8885   YY=            -17.8213   ZZ=            -17.7827
   XY=             -0.0090   XZ=              0.0652   YZ=             -0.0031

 Normal termination of Gaussian 09 at Wed Aug 26 15:01:51 2020.
