 Gaussian 09, Revision D.01,
 Gaussian 09:  ES64L-G09RevD.01 24-Apr-2013

 --------------------
 #p B2PLYPD3/Def2QZVP
 --------------------

 ------------
 cyanomethane
 ------------
 Symbolic Z-matrix:
 Charge =  0 Multiplicity = 1

                         Standard orientation:
 ---------------------------------------------------------------------
 Center     Atomic      Atomic             Coordinates (Angstroms)
 Number     Number       Type             X           Y           Z
 ---------------------------------------------------------------------
      1          6           0        1.177728    0.007619    0.001082
      2          6           0       -0.286783   -0.023038    0.001959
      3          7           0       -1.434397    0.012538   -0.002464
      4          1           0        1.585527    0.992318   -0.276031
      5          1           0        1.566041   -0.736838   -0.706234
      6          1           0        1.543544   -0.250729    0.981265
 ---------------------------------------------------------------------

 SCF Done:  E(RB2PLYPD3) =  -132.535524992     A.U. after   12 cycles
 E2(B2PLYPD3) =    -0.1799887937D+00 E(B2PLYPD3) =    -0.13271551378541D+03

 The electronic state is 1-A.
 Alpha  occ. eigenvalues --  -14.84078 -10.67241 -10.66156  -1.04391  -0.88955
 Alpha  occ. eigenvalues --   -0.59772  -0.53809  -0.53451  -0.44813  -0.39297
 Alpha  occ. eigenvalues --   -0.39246
 Alpha virt. eigenvalues --    0.03725   0.07778   0.08180   0.10186   0.11498
 Alpha virt. eigenvalues --    0.11533   0.15403   0.16147   0.16858   0.20043
 Alpha virt. eigenvalues --    0.20062   0.25273   0.32723   0.34539   0.34752

 Mulliken charges:
               1
     1  C   -0.081817
     2  C   -0.001666
     3  N   -0.202149
     4  H    0.096058
     5  H    0.093861
     6  H    0.095713
 Sum of Mulliken charges =   0.00000

 Dipole moment (field-independent basis, Debye):
    X=              4.1220    Y=             -0.0270    Z=              0.0117  Tot=              4.1221
 Quadrupole moment (field-independent basis, Debye-Ang):
   XX=            -20.9153   YY=            -17.7416   ZZ=            -17.7930
   XY=              0.0710   XZ=             -0.0183   YZ=             -0.0104

 Normal termination of Gaussian 09 at Wed Aug 26 10:00:06 2020.
