 Gaussian 09, Revision D.01,
 Gaussian 09:  ES64L-G09RevD.01 24-Apr-2013

 --------------------
 #p B2PLYPD3/Def2QZVP
 --------------------

 ------------
 cyanomethane
 ------------
 Symbolic Z-matrix:
 Charge =  0 Multiplicity = 1

                         Standard orientation:
 ---------------------------------------------------------------------
 Center     Atomic      Atomic             Coordinates (Angstroms)
 Number     Number       Type             X           Y           Z
 ---------------------------------------------------------------------
      1          6           0        1.173280    0.004519   -0.009754
      2          6           0       -0.291206   -0.011170    0.000517
      3          7           0       -1.439913    0.002643    0.003940
      4          1           0        1.643963   -0.094748    0.975892
      5          1           0        1.541374    0.912569   -0.387567
      6          1           0        1.601606   -0.796412   -0.560478
 ---------------------------------------------------------------------

 SCF Done:  E(RB2PLYPD3) =  -132.533032552     A.U. after   11 cycles
 E2(B2PLYPD3) =    -0.1798767682D+00 E(B2PLYPD3) =    -0.13271290932029D+03

 The electronic state is 1-A.
 Alpha  occ. eigenvalues --  -14.84243 -10.66509 -10.66351  -1.04465  -0.89415
 Alpha  occ. eigenvalues --   -0.60958  -0.54563  -0.52704  -0.44965  -0.39502
 Alpha  occ. eigenvalues --   -0.39282
 Alpha virt. eigenvalues --    0.03820   0.07780   0.08295   0.10213   0.11358
 Alpha virt. eigenvalues --    0.11659   0.15474   0.16859   0.16960   0.19996
 Alpha virt. eigenvalues --    0.20119   0.25234   0.32772   0.34753   0.35497

 Mulliken charges:
               1
     1  C   -0.058805
     2  C    0.002670
     3  N   -0.202490
     4  H    0.081068
     5  H    0.090223
     6  H    0.087333
 Sum of Mulliken charges =   0.00000

 Dipole moment (field-independent basis, Debye):
    X=              4.1506    Y=             -0.0022    Z=             -0.0017  Tot=              4.1506
 Quadrupole moment (field-independent basis, Debye-Ang):
   XX=            -20.5586   YY=            -17.7441   ZZ=            -17.9383
   XY=             -0.0291   XZ=              0.0895   YZ=             -0.0037

 Normal termination of Gaussian 09 at Wed Aug 26 11:08:35 2020.
