 Gaussian 09, Revision D.01,
 Gaussian 09:  ES64L-G09RevD.01 24-Apr-2013

 --------------------
 #p B2PLYPD3/Def2QZVP
 --------------------

 ------------
 cyanomethane
 ------------
 Symbolic Z-matrix:
 Charge =  0 Multiplicity = 1

                         Standard orientation:
 ---------------------------------------------------------------------
 Center     Atomic      Atomic             Coordinates (Angstroms)
 Number     Number       Type             X           Y           Z
 ---------------------------------------------------------------------
      1          6           0       -1.187591    0.007223    0.011100
      2          6           0        0.286738    0.022362   -0.004842
      3          7           0        1.437174   -0.007406    0.002904
      4          1           0       -1.564092   -0.172337    1.001148
      5          1           0       -1.486217   -0.903657   -0.636077
      6          1           0       -1.604793    0.950329   -0.422949
 ---------------------------------------------------------------------

 SCF Done:  E(RB2PLYPD3) =  -132.531400437     A.U. after   12 cycles
 E2(B2PLYPD3) =    -0.1805532756D+00 E(B2PLYPD3) =    -0.13271195371274D+03

 The electronic state is 1-A.
 Alpha  occ. eigenvalues --  -14.84079 -10.68132 -10.66221  -1.04208  -0.88374
 Alpha  occ. eigenvalues --   -0.59072  -0.53986  -0.52548  -0.44718  -0.39286
 Alpha  occ. eigenvalues --   -0.38950
 Alpha virt. eigenvalues --    0.03552   0.07617   0.07930   0.10201   0.11314
 Alpha virt. eigenvalues --    0.11690   0.15152   0.15862   0.16669   0.20010
 Alpha virt. eigenvalues --    0.20113   0.25022   0.32183   0.33249   0.34921

 Mulliken charges:
               1
     1  C   -0.100928
     2  C   -0.000533
     3  N   -0.203608
     4  H    0.103867
     5  H    0.098173
     6  H    0.103029
 Sum of Mulliken charges =   0.00000

 Dipole moment (field-independent basis, Debye):
    X=             -4.1132    Y=             -0.0054    Z=              0.0117  Tot=              4.1132
 Quadrupole moment (field-independent basis, Debye-Ang):
   XX=            -21.1688   YY=            -17.6822   ZZ=            -17.8359
   XY=             -0.0065   XZ=             -0.0779   YZ=             -0.0568

 Normal termination of Gaussian 09 at Wed Aug 26 11:59:57 2020.
