 Gaussian 09, Revision D.01,
 Gaussian 09:  ES64L-G09RevD.01 24-Apr-2013

 --------------------
 #p B2PLYPD3/Def2QZVP
 --------------------

 ------------
 cyanomethane
 ------------
 Symbolic Z-matrix:
 Charge =  0 Multiplicity = 1

                         Standard orientation:
 ---------------------------------------------------------------------
 Center     Atomic      Atomic             Coordinates (Angstroms)
 Number     Number       Type             X           Y           Z
 ---------------------------------------------------------------------
      1          6           0        1.178407    0.008867   -0.007180
      2          6           0       -0.284883   -0.014088    0.004712
      3          7           0       -1.433686    0.006856   -0.003777
      4          1           0        1.574428    0.946792   -0.416134
      5          1           0        1.570250   -0.858273   -0.588321
      6          1           0        1.529980   -0.105180    1.045701
 ---------------------------------------------------------------------

 SCF Done:  E(RB2PLYPD3) =  -132.534559464     A.U. after   12 cycles
 E2(B2PLYPD3) =    -0.1802713294D+00 E(B2PLYPD3) =    -0.13271483079301D+03

 The electronic state is 1-A.
 Alpha  occ. eigenvalues --  -14.84058 -10.67772 -10.66143  -1.04329  -0.88640
 Alpha  occ. eigenvalues --   -0.59368  -0.53706  -0.53098  -0.44772  -0.39252
 Alpha  occ. eigenvalues --   -0.39092
 Alpha virt. eigenvalues --    0.03652   0.07748   0.07836   0.10178   0.11485
 Alpha virt. eigenvalues --    0.11625   0.15333   0.15996   0.16753   0.20044
 Alpha virt. eigenvalues --    0.20073   0.25260   0.32554   0.33960   0.34683

 Mulliken charges:
               1
     1  C   -0.092402
     2  C   -0.001394
     3  N   -0.202514
     4  H    0.101376
     5  H    0.097931
     6  H    0.097004
 Sum of Mulliken charges =   0.00000

 Dipole moment (field-independent basis, Debye):
    X=              4.1123    Y=             -0.0126    Z=              0.0153  Tot=              4.1123
 Quadrupole moment (field-independent basis, Debye-Ang):
   XX=            -21.0596   YY=            -17.7168   ZZ=            -17.8030
   XY=              0.0370   XZ=             -0.0322   YZ=             -0.0150

 Normal termination of Gaussian 09 at Thu Aug 27 00:12:20 2020.
