 Gaussian 09, Revision D.01,
 Gaussian 09:  ES64L-G09RevD.01 24-Apr-2013

 --------------------
 #p B2PLYPD3/Def2QZVP
 --------------------

 ------------
 cyanomethane
 ------------
 Symbolic Z-matrix:
 Charge =  0 Multiplicity = 1

                         Standard orientation:
 ---------------------------------------------------------------------
 Center     Atomic      Atomic             Coordinates (Angstroms)
 Number     Number       Type             X           Y           Z
 ---------------------------------------------------------------------
      1          6           0        1.186873    0.009659    0.003728
      2          6           0       -0.254948    0.066663    0.011198
      3          7           0       -1.425729   -0.042205   -0.014700
      4          1           0        1.378923    0.991108   -0.095926
      5          1           0        1.613561   -0.662893   -0.811094
      6          1           0        1.396073   -0.490711    0.920366
 ---------------------------------------------------------------------

 SCF Done:  E(RB2PLYPD3) =  -132.515436967     A.U. after   13 cycles
 E2(B2PLYPD3) =    -0.1825897758D+00 E(B2PLYPD3) =    -0.13269802674322D+03

 The electronic state is 1-A.
 Alpha  occ. eigenvalues --  -14.84509 -10.66547 -10.66485  -1.03257  -0.90637
 Alpha  occ. eigenvalues --   -0.58914  -0.57566  -0.52893  -0.44581  -0.38472
 Alpha  occ. eigenvalues --   -0.38097
 Alpha virt. eigenvalues --    0.03481   0.06990   0.09094   0.09909   0.10783
 Alpha virt. eigenvalues --    0.11573   0.14742   0.15420   0.16476   0.20108
 Alpha virt. eigenvalues --    0.20365   0.25630   0.32599   0.33633   0.35709

 Mulliken charges:
               1
     1  C   -0.102494
     2  C    0.000033
     3  N   -0.220000
     4  H    0.115586
     5  H    0.097805
     6  H    0.109070
 Sum of Mulliken charges =   0.00000

 Dipole moment (field-independent basis, Debye):
    X=              4.0882    Y=              0.0157    Z=              0.0345  Tot=              4.0884
 Quadrupole moment (field-independent basis, Debye-Ang):
   XX=            -21.4893   YY=            -17.4462   ZZ=            -17.8513
   XY=             -0.4137   XZ=             -0.1975   YZ=             -0.0966

 Normal termination of Gaussian 09 at Wed Aug 26 22:05:22 2020.
