 Gaussian 09, Revision D.01,
 Gaussian 09:  ES64L-G09RevD.01 24-Apr-2013

 --------------------
 #p B2PLYPD3/Def2QZVP
 --------------------

 ------------
 cyanomethane
 ------------
 Symbolic Z-matrix:
 Charge =  0 Multiplicity = 1

                         Standard orientation:
 ---------------------------------------------------------------------
 Center     Atomic      Atomic             Coordinates (Angstroms)
 Number     Number       Type             X           Y           Z
 ---------------------------------------------------------------------
      1          6           0       -1.172871   -0.006460   -0.010435
      2          6           0        0.278482    0.021422    0.007524
      3          7           0        1.428605   -0.010200   -0.003339
      4          1           0       -1.537119   -0.120053    1.003968
      5          1           0       -1.544781   -0.829372   -0.576930
      6          1           0       -1.551997    0.931052   -0.386198
 ---------------------------------------------------------------------

 SCF Done:  E(RB2PLYPD3) =  -132.535633224     A.U. after   11 cycles
 E2(B2PLYPD3) =    -0.1799653267D+00 E(B2PLYPD3) =    -0.13271559855114D+03

 The electronic state is 1-A.
 Alpha  occ. eigenvalues --  -14.84058 -10.66633 -10.66083  -1.04282  -0.89602
 Alpha  occ. eigenvalues --   -0.59979  -0.54679  -0.53746  -0.44773  -0.39236
 Alpha  occ. eigenvalues --   -0.39068
 Alpha virt. eigenvalues --    0.03833   0.08056   0.08174   0.10168   0.11410
 Alpha virt. eigenvalues --    0.11606   0.15500   0.16073   0.16723   0.20047
 Alpha virt. eigenvalues --    0.20117   0.25497   0.32961   0.34501   0.35207

 Mulliken charges:
               1
     1  C   -0.078328
     2  C   -0.002059
     3  N   -0.204765
     4  H    0.092056
     5  H    0.097587
     6  H    0.095510
 Sum of Mulliken charges =   0.00000

 Dipole moment (field-independent basis, Debye):
    X=             -4.1229    Y=              0.0110    Z=              0.0217  Tot=              4.1230
 Quadrupole moment (field-independent basis, Debye-Ang):
   XX=            -20.9494   YY=            -17.6416   ZZ=            -17.7972
   XY=              0.0590   XZ=             -0.0159   YZ=              0.0145

 Normal termination of Gaussian 09 at Thu Aug 27 00:06:32 2020.
