 Gaussian 09, Revision D.01,
 Gaussian 09:  ES64L-G09RevD.01 24-Apr-2013

 --------------------
 #p B2PLYPD3/Def2QZVP
 --------------------

 ------------
 cyanomethane
 ------------
 Symbolic Z-matrix:
 Charge =  0 Multiplicity = 1

                         Standard orientation:
 ---------------------------------------------------------------------
 Center     Atomic      Atomic             Coordinates (Angstroms)
 Number     Number       Type             X           Y           Z
 ---------------------------------------------------------------------
      1          6           0        1.160521    0.022688   -0.021487
      2          6           0       -0.280829   -0.049461   -0.002414
      3          7           0       -1.414996    0.029854   -0.008539
      4          1           0        1.683901    0.965746   -0.325851
      5          1           0        1.578470   -0.879160   -0.524117
      6          1           0        1.364454   -0.134929    1.053150
 ---------------------------------------------------------------------

 SCF Done:  E(RB2PLYPD3) =  -132.527377424     A.U. after   12 cycles
 E2(B2PLYPD3) =    -0.1796837056D+00 E(B2PLYPD3) =    -0.13270706112950D+03

 The electronic state is 1-A.
 Alpha  occ. eigenvalues --  -14.83636 -10.67614 -10.65719  -1.04880  -0.89087
 Alpha  occ. eigenvalues --   -0.59703  -0.53669  -0.52891  -0.44738  -0.39495
 Alpha  occ. eigenvalues --   -0.38942
 Alpha virt. eigenvalues --    0.03556   0.07257   0.08386   0.10066   0.11625
 Alpha virt. eigenvalues --    0.12208   0.14919   0.15592   0.18146   0.20129
 Alpha virt. eigenvalues --    0.20360   0.25917   0.32669   0.33421   0.34949

 Mulliken charges:
               1
     1  C   -0.100714
     2  C    0.002923
     3  N   -0.198042
     4  H    0.104038
     5  H    0.096405
     6  H    0.095391
 Sum of Mulliken charges =   0.00000

 Dipole moment (field-independent basis, Debye):
    X=              4.0833    Y=             -0.0641    Z=              0.0855  Tot=              4.0847
 Quadrupole moment (field-independent basis, Debye-Ang):
   XX=            -21.0153   YY=            -17.5425   ZZ=            -17.9169
   XY=              0.2332   XZ=             -0.0895   YZ=             -0.0067

 Normal termination of Gaussian 09 at Wed Aug 26 23:02:05 2020.
