 Gaussian 09, Revision D.01,
 Gaussian 09:  ES64L-G09RevD.01 24-Apr-2013

 --------------------
 #p B2PLYPD3/Def2QZVP
 --------------------

 ------------
 cyanomethane
 ------------
 Symbolic Z-matrix:
 Charge =  0 Multiplicity = 1

                         Standard orientation:
 ---------------------------------------------------------------------
 Center     Atomic      Atomic             Coordinates (Angstroms)
 Number     Number       Type             X           Y           Z
 ---------------------------------------------------------------------
      1          6           0        1.201406   -0.005848    0.003452
      2          6           0       -0.282758    0.020274   -0.040992
      3          7           0       -1.435028   -0.002750    0.033801
      4          1           0        1.658243   -0.302577    0.948866
      5          1           0        1.554215    1.028058   -0.257240
      6          1           0        1.320842   -0.792787   -0.702990
 ---------------------------------------------------------------------

 SCF Done:  E(RB2PLYPD3) =  -132.524530286     A.U. after   13 cycles
 E2(B2PLYPD3) =    -0.1809616574D+00 E(B2PLYPD3) =    -0.13270549194360D+03

 The electronic state is 1-A.
 Alpha  occ. eigenvalues --  -14.84083 -10.67585 -10.66259  -1.03995  -0.89039
 Alpha  occ. eigenvalues --   -0.59014  -0.55301  -0.52303  -0.44573  -0.39089
 Alpha  occ. eigenvalues --   -0.38850
 Alpha virt. eigenvalues --    0.03622   0.07224   0.08877   0.10139   0.11199
 Alpha virt. eigenvalues --    0.11551   0.14815   0.15276   0.17015   0.20072
 Alpha virt. eigenvalues --    0.20186   0.24949   0.32257   0.33852   0.34771

 Mulliken charges:
               1
     1  C   -0.106800
     2  C   -0.001324
     3  N   -0.207333
     4  H    0.099554
     5  H    0.105323
     6  H    0.110580
 Sum of Mulliken charges =   0.00000

 Dipole moment (field-independent basis, Debye):
    X=              4.1004    Y=             -0.0237    Z=             -0.0274  Tot=              4.1005
 Quadrupole moment (field-independent basis, Debye-Ang):
   XX=            -21.3031   YY=            -17.4845   ZZ=            -17.9483
   XY=              0.0621   XZ=              0.4683   YZ=              0.0567

 Normal termination of Gaussian 09 at Wed Aug 26 23:52:21 2020.
