 Gaussian 09, Revision D.01,
 Gaussian 09:  ES64L-G09RevD.01 24-Apr-2013

 --------------------
 #p B2PLYPD3/Def2QZVP
 --------------------

 ------------
 cyanomethane
 ------------
 Symbolic Z-matrix:
 Charge =  0 Multiplicity = 1

                         Standard orientation:
 ---------------------------------------------------------------------
 Center     Atomic      Atomic             Coordinates (Angstroms)
 Number     Number       Type             X           Y           Z
 ---------------------------------------------------------------------
      1          6           0       -1.173343    0.007830   -0.001174
      2          6           0        0.280329    0.012925   -0.005326
      3          7           0        1.436698   -0.009226    0.004039
      4          1           0       -1.545559    1.019802    0.002738
      5          1           0       -1.589622   -0.538613    0.892789
      6          1           0       -1.563619   -0.541140   -0.884806
 ---------------------------------------------------------------------

 SCF Done:  E(RB2PLYPD3) =  -132.533737113     A.U. after   11 cycles
 E2(B2PLYPD3) =    -0.1808961546D+00 E(B2PLYPD3) =    -0.13271463326759D+03

 The electronic state is 1-A.
 Alpha  occ. eigenvalues --  -14.84314 -10.67566 -10.66378  -1.04078  -0.88907
 Alpha  occ. eigenvalues --   -0.59851  -0.54236  -0.52640  -0.44861  -0.39092
 Alpha  occ. eigenvalues --   -0.38875
 Alpha virt. eigenvalues --    0.03647   0.07313   0.07899   0.10156   0.11346
 Alpha virt. eigenvalues --    0.11665   0.15410   0.16352   0.16524   0.20038
 Alpha virt. eigenvalues --    0.20143   0.25417   0.32591   0.33958   0.34813

 Mulliken charges:
               1
     1  C   -0.084633
     2  C    0.000403
     3  N   -0.206094
     4  H    0.100535
     5  H    0.093919
     6  H    0.095870
 Sum of Mulliken charges =   0.00000

 Dipole moment (field-independent basis, Debye):
    X=             -4.1271    Y=              0.0064    Z=             -0.0081  Tot=              4.1271
 Quadrupole moment (field-independent basis, Debye-Ang):
   XX=            -20.9666   YY=            -17.7214   ZZ=            -17.8799
   XY=              0.0997   XZ=             -0.0381   YZ=              0.0161

 Normal termination of Gaussian 09 at Wed Aug 26 09:57:34 2020.
