 Gaussian 09, Revision D.01,
 Gaussian 09:  ES64L-G09RevD.01 24-Apr-2013

 --------------------
 #p B2PLYPD3/Def2QZVP
 --------------------

 ------------
 cyanomethane
 ------------
 Symbolic Z-matrix:
 Charge =  0 Multiplicity = 1

                         Standard orientation:
 ---------------------------------------------------------------------
 Center     Atomic      Atomic             Coordinates (Angstroms)
 Number     Number       Type             X           Y           Z
 ---------------------------------------------------------------------
      1          6           0        1.170356    0.010222    0.004078
      2          6           0       -0.281268   -0.028817    0.002094
      3          7           0       -1.431141    0.014110   -0.004015
      4          1           0        1.568766    1.016822   -0.211492
      5          1           0        1.585951   -0.687117   -0.755670
      6          1           0        1.528748   -0.316909    0.958241
 ---------------------------------------------------------------------

 SCF Done:  E(RB2PLYPD3) =  -132.534831267     A.U. after   12 cycles
 E2(B2PLYPD3) =    -0.1802550635D+00 E(B2PLYPD3) =    -0.13271508633100D+03

 The electronic state is 1-A.
 Alpha  occ. eigenvalues --  -14.84133 -10.67205 -10.66167  -1.04318  -0.89132
 Alpha  occ. eigenvalues --   -0.59951  -0.54087  -0.53201  -0.44836  -0.39195
 Alpha  occ. eigenvalues --   -0.39085
 Alpha virt. eigenvalues --    0.03707   0.07561   0.08103   0.10153   0.11499
 Alpha virt. eigenvalues --    0.11618   0.15479   0.16110   0.16847   0.20058
 Alpha virt. eigenvalues --    0.20083   0.25527   0.32776   0.34375   0.34779

 Mulliken charges:
               1
     1  C   -0.081892
     2  C   -0.000512
     3  N   -0.203665
     4  H    0.097083
     5  H    0.092173
     6  H    0.096813
 Sum of Mulliken charges =   0.00000

 Dipole moment (field-independent basis, Debye):
    X=              4.1172    Y=             -0.0297    Z=              0.0161  Tot=              4.1173
 Quadrupole moment (field-independent basis, Debye-Ang):
   XX=            -20.9293   YY=            -17.7290   ZZ=            -17.8043
   XY=              0.0566   XZ=             -0.0431   YZ=             -0.0314

 Normal termination of Gaussian 09 at Wed Aug 26 20:20:54 2020.
