 Gaussian 09, Revision D.01,
 Gaussian 09:  ES64L-G09RevD.01 24-Apr-2013

 --------------------
 #p B2PLYPD3/Def2QZVP
 --------------------

 ------------
 cyanomethane
 ------------
 Symbolic Z-matrix:
 Charge =  0 Multiplicity = 1

                         Standard orientation:
 ---------------------------------------------------------------------
 Center     Atomic      Atomic             Coordinates (Angstroms)
 Number     Number       Type             X           Y           Z
 ---------------------------------------------------------------------
      1          6           0       -1.166120    0.000627    0.014412
      2          6           0        0.286040    0.025949    0.006769
      3          7           0        1.426962   -0.009645   -0.004530
      4          1           0       -1.566850   -0.265771    0.984821
      5          1           0       -1.522181   -0.811376   -0.737257
      6          1           0       -1.619229    0.985215   -0.342940
 ---------------------------------------------------------------------

 SCF Done:  E(RB2PLYPD3) =  -132.530814538     A.U. after   12 cycles
 E2(B2PLYPD3) =    -0.1799557304D+00 E(B2PLYPD3) =    -0.13271077026827D+03

 The electronic state is 1-A.
 Alpha  occ. eigenvalues --  -14.83892 -10.68176 -10.65943  -1.04699  -0.88393
 Alpha  occ. eigenvalues --   -0.59601  -0.53658  -0.52086  -0.44817  -0.39443
 Alpha  occ. eigenvalues --   -0.39089
 Alpha virt. eigenvalues --    0.03512   0.07264   0.07845   0.10170   0.11588
 Alpha virt. eigenvalues --    0.11960   0.15410   0.16242   0.16818   0.19977
 Alpha virt. eigenvalues --    0.20059   0.25467   0.32447   0.33197   0.34802

 Mulliken charges:
               1
     1  C   -0.096179
     2  C    0.000229
     3  N   -0.197705
     4  H    0.102545
     5  H    0.094386
     6  H    0.096725
 Sum of Mulliken charges =   0.00000

 Dipole moment (field-independent basis, Debye):
    X=             -4.0871    Y=             -0.0001    Z=              0.0105  Tot=              4.0871
 Quadrupole moment (field-independent basis, Debye-Ang):
   XX=            -21.0264   YY=            -17.7756   ZZ=            -17.7731
   XY=              0.0257   XZ=              0.0150   YZ=             -0.0569

 Normal termination of Gaussian 09 at Wed Aug 26 15:07:54 2020.
