 Gaussian 09, Revision D.01,
 Gaussian 09:  ES64L-G09RevD.01 24-Apr-2013

 --------------------
 #p B2PLYPD3/Def2QZVP
 --------------------

 ------------
 cyanomethane
 ------------
 Symbolic Z-matrix:
 Charge =  0 Multiplicity = 1

                         Standard orientation:
 ---------------------------------------------------------------------
 Center     Atomic      Atomic             Coordinates (Angstroms)
 Number     Number       Type             X           Y           Z
 ---------------------------------------------------------------------
      1          6           0        1.187495    0.006816   -0.030561
      2          6           0       -0.313976   -0.000737    0.077456
      3          7           0       -1.437295   -0.000504   -0.037867
      4          1           0        1.604757    1.000021   -0.079682
      5          1           0        1.602158   -0.587948   -0.765031
      6          1           0        1.613033   -0.445017    0.828410
 ---------------------------------------------------------------------

 SCF Done:  E(RB2PLYPD3) =  -132.527273773     A.U. after   12 cycles
 E2(B2PLYPD3) =    -0.1783301068D+00 E(B2PLYPD3) =    -0.13270560387979D+03

 The electronic state is 1-A.
 Alpha  occ. eigenvalues --  -14.83783 -10.66404 -10.65939  -1.05250  -0.89003
 Alpha  occ. eigenvalues --   -0.60436  -0.54275  -0.52636  -0.44916  -0.40250
 Alpha  occ. eigenvalues --   -0.39899
 Alpha virt. eigenvalues --    0.03729   0.08375   0.08760   0.10193   0.11325
 Alpha virt. eigenvalues --    0.11685   0.15348   0.16133   0.18145   0.19845
 Alpha virt. eigenvalues --    0.20117   0.25041   0.32837   0.34742   0.35724

 Mulliken charges:
               1
     1  C   -0.059741
     2  C    0.001920
     3  N   -0.190522
     4  H    0.087772
     5  H    0.085506
     6  H    0.075063
 Sum of Mulliken charges =   0.00000

 Dipole moment (field-independent basis, Debye):
    X=              4.1177    Y=             -0.0455    Z=              0.0907  Tot=              4.1190
 Quadrupole moment (field-independent basis, Debye-Ang):
   XX=            -20.4527   YY=            -17.6034   ZZ=            -18.0049
   XY=             -0.1155   XZ=             -0.1582   YZ=              0.0396

 Normal termination of Gaussian 09 at Wed Aug 26 21:06:35 2020.
