 Gaussian 09, Revision D.01,
 Gaussian 09:  ES64L-G09RevD.01 24-Apr-2013

 --------------------
 #p B2PLYPD3/Def2QZVP
 --------------------

 ------------
 cyanomethane
 ------------
 Symbolic Z-matrix:
 Charge =  0 Multiplicity = 1

                         Standard orientation:
 ---------------------------------------------------------------------
 Center     Atomic      Atomic             Coordinates (Angstroms)
 Number     Number       Type             X           Y           Z
 ---------------------------------------------------------------------
      1          6           0       -1.190663    0.011762    0.006988
      2          6           0        0.284969    0.016771    0.003690
      3          7           0        1.438070   -0.005214   -0.000536
      4          1           0       -1.553416   -0.340834    0.951050
      5          1           0       -1.478384   -0.750840   -0.756005
      6          1           0       -1.600519    0.956967   -0.255362
 ---------------------------------------------------------------------

 SCF Done:  E(RB2PLYPD3) =  -132.534027930     A.U. after   12 cycles
 E2(B2PLYPD3) =    -0.1803110521D+00 E(B2PLYPD3) =    -0.13271433898175D+03

 The electronic state is 1-A.
 Alpha  occ. eigenvalues --  -14.84126 -10.67163 -10.66267  -1.04096  -0.89094
 Alpha  occ. eigenvalues --   -0.59401  -0.54875  -0.53200  -0.44711  -0.39309
 Alpha  occ. eigenvalues --   -0.38965
 Alpha virt. eigenvalues --    0.03751   0.08066   0.08240   0.10228   0.11172
 Alpha virt. eigenvalues --    0.11589   0.15224   0.15807   0.16782   0.20036
 Alpha virt. eigenvalues --    0.20137   0.24979   0.32552   0.33814   0.35492

 Mulliken charges:
               1
     1  C   -0.088023
     2  C   -0.002230
     3  N   -0.205884
     4  H    0.099213
     5  H    0.095535
     6  H    0.101389
 Sum of Mulliken charges =   0.00000

 Dipole moment (field-independent basis, Debye):
    X=             -4.1366    Y=             -0.0123    Z=             -0.0021  Tot=              4.1366
 Quadrupole moment (field-independent basis, Debye-Ang):
   XX=            -21.0483   YY=            -17.6847   ZZ=            -17.7957
   XY=             -0.0060   XZ=             -0.0255   YZ=             -0.0561

 Normal termination of Gaussian 09 at Wed Aug 26 14:22:48 2020.
