 Gaussian 09, Revision D.01,
 Gaussian 09:  ES64L-G09RevD.01 24-Apr-2013

 --------------------
 #p B2PLYPD3/Def2QZVP
 --------------------

 ------------
 cyanomethane
 ------------
 Symbolic Z-matrix:
 Charge =  0 Multiplicity = 1

                         Standard orientation:
 ---------------------------------------------------------------------
 Center     Atomic      Atomic             Coordinates (Angstroms)
 Number     Number       Type             X           Y           Z
 ---------------------------------------------------------------------
      1          6           0        1.171172   -0.030672   -0.019642
      2          6           0       -0.256646    0.059898    0.020326
      3          7           0       -1.425651   -0.021907   -0.003163
      4          1           0        1.563115   -0.127820    0.992058
      5          1           0        1.538661    0.957917   -0.394783
      6          1           0        1.390625   -0.852104   -0.579236
 ---------------------------------------------------------------------

 SCF Done:  E(RB2PLYPD3) =  -132.526458192     A.U. after   11 cycles
 E2(B2PLYPD3) =    -0.1819525005D+00 E(B2PLYPD3) =    -0.13270841069299D+03

 The electronic state is 1-A.
 Alpha  occ. eigenvalues --  -14.84470 -10.66541 -10.66433  -1.03450  -0.90288
 Alpha  occ. eigenvalues --   -0.59583  -0.56547  -0.53320  -0.44707  -0.38597
 Alpha  occ. eigenvalues --   -0.38250
 Alpha virt. eigenvalues --    0.03778   0.07481   0.07875   0.10042   0.11254
 Alpha virt. eigenvalues --    0.11484   0.15307   0.15665   0.16243   0.20093
 Alpha virt. eigenvalues --    0.20272   0.26050   0.32549   0.33681   0.35696

 Mulliken charges:
               1
     1  C   -0.090864
     2  C    0.002127
     3  N   -0.217929
     4  H    0.095252
     5  H    0.098998
     6  H    0.112415
 Sum of Mulliken charges =   0.00000

 Dipole moment (field-independent basis, Debye):
    X=              4.1146    Y=              0.0236    Z=              0.0319  Tot=              4.1148
 Quadrupole moment (field-independent basis, Debye-Ang):
   XX=            -21.2663   YY=            -17.5230   ZZ=            -17.8504
   XY=             -0.0027   XZ=              0.1573   YZ=              0.0881

 Normal termination of Gaussian 09 at Wed Aug 26 19:11:07 2020.
