 Gaussian 09, Revision D.01,
 Gaussian 09:  ES64L-G09RevD.01 24-Apr-2013

 --------------------
 #p B2PLYPD3/Def2QZVP
 --------------------

 ------------
 cyanomethane
 ------------
 Symbolic Z-matrix:
 Charge =  0 Multiplicity = 1

                         Standard orientation:
 ---------------------------------------------------------------------
 Center     Atomic      Atomic             Coordinates (Angstroms)
 Number     Number       Type             X           Y           Z
 ---------------------------------------------------------------------
      1          6           0       -1.204026   -0.039409    0.005761
      2          6           0        0.291886    0.055743    0.028688
      3          7           0        1.439478   -0.022730   -0.017157
      4          1           0       -1.511041   -0.030999    0.927899
      5          1           0       -1.514227   -0.855497   -0.543031
      6          1           0       -1.578239    0.947603   -0.471464
 ---------------------------------------------------------------------

 SCF Done:  E(RB2PLYPD3) =  -132.518830699     A.U. after   12 cycles
 E2(B2PLYPD3) =    -0.1799551220D+00 E(B2PLYPD3) =    -0.13269878582081D+03

 The electronic state is 1-A.
 Alpha  occ. eigenvalues --  -14.84111 -10.66429 -10.66211  -1.04171  -0.89675
 Alpha  occ. eigenvalues --   -0.59248  -0.56827  -0.52609  -0.44681  -0.39569
 Alpha  occ. eigenvalues --   -0.39091
 Alpha virt. eigenvalues --    0.03697   0.07809   0.09253   0.10139   0.10977
 Alpha virt. eigenvalues --    0.11480   0.15172   0.15607   0.16863   0.19981
 Alpha virt. eigenvalues --    0.20105   0.24918   0.31836   0.33892   0.36104

 Mulliken charges:
               1
     1  C   -0.087956
     2  C   -0.002722
     3  N   -0.205114
     4  H    0.104203
     5  H    0.104729
     6  H    0.086859
 Sum of Mulliken charges =   0.00000

 Dipole moment (field-independent basis, Debye):
    X=             -4.1198    Y=              0.0242    Z=              0.0557  Tot=              4.1203
 Quadrupole moment (field-independent basis, Debye-Ang):
   XX=            -21.0206   YY=            -17.6112   ZZ=            -17.7788
   XY=              0.0846   XZ=              0.0412   YZ=              0.0967

 Normal termination of Gaussian 09 at Wed Aug 26 19:43:32 2020.
