 Gaussian 09, Revision D.01,
 Gaussian 09:  ES64L-G09RevD.01 24-Apr-2013

 --------------------
 #p B2PLYPD3/Def2QZVP
 --------------------

 ------------
 cyanomethane
 ------------
 Symbolic Z-matrix:
 Charge =  0 Multiplicity = 1

                         Standard orientation:
 ---------------------------------------------------------------------
 Center     Atomic      Atomic             Coordinates (Angstroms)
 Number     Number       Type             X           Y           Z
 ---------------------------------------------------------------------
      1          6           0       -1.171683   -0.003462    0.007855
      2          6           0        0.278842    0.005567    0.009127
      3          7           0        1.430658   -0.002525   -0.007360
      4          1           0       -1.531042   -0.336063    0.976711
      5          1           0       -1.569217   -0.698250   -0.803099
      6          1           0       -1.557301    1.039359   -0.223984
 ---------------------------------------------------------------------

 SCF Done:  E(RB2PLYPD3) =  -132.532563584     A.U. after   12 cycles
 E2(B2PLYPD3) =    -0.1806611611D+00 E(B2PLYPD3) =    -0.13271322474476D+03

 The electronic state is 1-A.
 Alpha  occ. eigenvalues --  -14.84111 -10.67966 -10.66154  -1.04229  -0.88703
 Alpha  occ. eigenvalues --   -0.59336  -0.53995  -0.52651  -0.44781  -0.39099
 Alpha  occ. eigenvalues --   -0.38906
 Alpha virt. eigenvalues --    0.03575   0.07267   0.07863   0.10157   0.11486
 Alpha virt. eigenvalues --    0.11726   0.15376   0.16205   0.16370   0.20046
 Alpha virt. eigenvalues --    0.20108   0.25451   0.32489   0.33648   0.34539

 Mulliken charges:
               1
     1  C   -0.096881
     2  C   -0.000247
     3  N   -0.204037
     4  H    0.104040
     5  H    0.098257
     6  H    0.098869
 Sum of Mulliken charges =   0.00000

 Dipole moment (field-independent basis, Debye):
    X=             -4.1031    Y=              0.0008    Z=              0.0134  Tot=              4.1031
 Quadrupole moment (field-independent basis, Debye-Ang):
   XX=            -21.1350   YY=            -17.7725   ZZ=            -17.7391
   XY=              0.0204   XZ=              0.0691   YZ=             -0.0364

 Normal termination of Gaussian 09 at Wed Aug 26 23:00:12 2020.
