 Gaussian 09, Revision D.01,
 Gaussian 09:  ES64L-G09RevD.01 24-Apr-2013

 --------------------
 #p B2PLYPD3/Def2QZVP
 --------------------

 ------------
 cyanomethane
 ------------
 Symbolic Z-matrix:
 Charge =  0 Multiplicity = 1

                         Standard orientation:
 ---------------------------------------------------------------------
 Center     Atomic      Atomic             Coordinates (Angstroms)
 Number     Number       Type             X           Y           Z
 ---------------------------------------------------------------------
      1          6           0        1.181041    0.005487   -0.010917
      2          6           0       -0.282579    0.014906    0.008804
      3          7           0       -1.435071   -0.007677   -0.005757
      4          1           0        1.564541   -0.789509   -0.659363
      5          1           0        1.519004   -0.226887    1.018541
      6          1           0        1.571183    0.947777   -0.306208
 ---------------------------------------------------------------------

 SCF Done:  E(RB2PLYPD3) =  -132.534875895     A.U. after   12 cycles
 E2(B2PLYPD3) =    -0.1803176223D+00 E(B2PLYPD3) =    -0.13271519351721D+03

 The electronic state is 1-A.
 Alpha  occ. eigenvalues --  -14.84148 -10.67156 -10.66234  -1.04170  -0.89134
 Alpha  occ. eigenvalues --   -0.59666  -0.54511  -0.53256  -0.44773  -0.39245
 Alpha  occ. eigenvalues --   -0.39003
 Alpha virt. eigenvalues --    0.03744   0.07817   0.08177   0.10187   0.11311
 Alpha virt. eigenvalues --    0.11591   0.15368   0.15984   0.16745   0.20049
 Alpha virt. eigenvalues --    0.20115   0.25243   0.32684   0.34087   0.35156

 Mulliken charges:
               1
     1  C   -0.084713
     2  C   -0.001559
     3  N   -0.205206
     4  H    0.097142
     5  H    0.094486
     6  H    0.099850
 Sum of Mulliken charges =   0.00000

 Dipole moment (field-independent basis, Debye):
    X=              4.1277    Y=              0.0054    Z=              0.0170  Tot=              4.1277
 Quadrupole moment (field-independent basis, Debye-Ang):
   XX=            -20.9999   YY=            -17.7021   ZZ=            -17.7983
   XY=             -0.0451   XZ=             -0.0490   YZ=             -0.0137

 Normal termination of Gaussian 09 at Thu Aug 27 00:03:48 2020.
