 Gaussian 09, Revision D.01,
 Gaussian 09:  ES64L-G09RevD.01 24-Apr-2013

 --------------------
 #p B2PLYPD3/Def2QZVP
 --------------------

 ------------
 cyanomethane
 ------------
 Symbolic Z-matrix:
 Charge =  0 Multiplicity = 1

                         Standard orientation:
 ---------------------------------------------------------------------
 Center     Atomic      Atomic             Coordinates (Angstroms)
 Number     Number       Type             X           Y           Z
 ---------------------------------------------------------------------
      1          6           0       -1.176435   -0.002633    0.007416
      2          6           0        0.268339    0.001406    0.025000
      3          7           0        1.430723    0.006454   -0.015952
      4          1           0       -1.467007   -0.331044    0.941517
      5          1           0       -1.483858   -0.739055   -0.773272
      6          1           0       -1.615620    1.032285   -0.251074
 ---------------------------------------------------------------------

 SCF Done:  E(RB2PLYPD3) =  -132.528220368     A.U. after   12 cycles
 E2(B2PLYPD3) =    -0.1814052993D+00 E(B2PLYPD3) =    -0.13270962566692D+03

 The electronic state is 1-A.
 Alpha  occ. eigenvalues --  -14.84304 -10.67365 -10.66339  -1.03753  -0.89515
 Alpha  occ. eigenvalues --   -0.59187  -0.55148  -0.53081  -0.44716  -0.38800
 Alpha  occ. eigenvalues --   -0.38582
 Alpha virt. eigenvalues --    0.03574   0.07053   0.08399   0.10140   0.11252
 Alpha virt. eigenvalues --    0.11597   0.15379   0.15494   0.16544   0.20119
 Alpha virt. eigenvalues --    0.20197   0.25534   0.32348   0.33731   0.34777

 Mulliken charges:
               1
     1  C   -0.098355
     2  C   -0.000026
     3  N   -0.211562
     4  H    0.107566
     5  H    0.101852
     6  H    0.100525
 Sum of Mulliken charges =   0.00000

 Dipole moment (field-independent basis, Debye):
    X=             -4.1148    Y=             -0.0360    Z=              0.0294  Tot=              4.1150
 Quadrupole moment (field-independent basis, Debye-Ang):
   XX=            -21.2453   YY=            -17.6720   ZZ=            -17.7592
   XY=             -0.0929   XZ=              0.1045   YZ=             -0.0347

 Normal termination of Gaussian 09 at Wed Aug 26 14:31:45 2020.
