 Gaussian 09, Revision D.01,
 Gaussian 09:  ES64L-G09RevD.01 24-Apr-2013

 --------------------
 #p B2PLYPD3/Def2QZVP
 --------------------

 ------------
 cyanomethane
 ------------
 Symbolic Z-matrix:
 Charge =  0 Multiplicity = 1

                         Standard orientation:
 ---------------------------------------------------------------------
 Center     Atomic      Atomic             Coordinates (Angstroms)
 Number     Number       Type             X           Y           Z
 ---------------------------------------------------------------------
      1          6           0       -1.187576    0.001229   -0.002622
      2          6           0        0.278848   -0.013113    0.018796
      3          7           0        1.438410    0.005568   -0.010878
      4          1           0       -1.527425    1.015829   -0.234295
      5          1           0       -1.526539   -0.292306    0.971265
      6          1           0       -1.562541   -0.691194   -0.757867
 ---------------------------------------------------------------------

 SCF Done:  E(RB2PLYPD3) =  -132.534795354     A.U. after   12 cycles
 E2(B2PLYPD3) =    -0.1808941083D+00 E(B2PLYPD3) =    -0.13271568946263D+03

 The electronic state is 1-A.
 Alpha  occ. eigenvalues --  -14.84301 -10.67163 -10.66392  -1.03838  -0.89211
 Alpha  occ. eigenvalues --   -0.59281  -0.54418  -0.53892  -0.44732  -0.38959
 Alpha  occ. eigenvalues --   -0.38921
 Alpha virt. eigenvalues --    0.03741   0.07784   0.08175   0.10181   0.11263
 Alpha virt. eigenvalues --    0.11381   0.15291   0.15924   0.16401   0.20096
 Alpha virt. eigenvalues --    0.20135   0.25178   0.32596   0.34524   0.34742

 Mulliken charges:
               1
     1  C   -0.088626
     2  C   -0.001964
     3  N   -0.209183
     4  H    0.100024
     5  H    0.100312
     6  H    0.099436
 Sum of Mulliken charges =   0.00000

 Dipole moment (field-independent basis, Debye):
    X=             -4.1346    Y=             -0.0070    Z=              0.0185  Tot=              4.1347
 Quadrupole moment (field-independent basis, Debye-Ang):
   XX=            -21.1054   YY=            -17.7385   ZZ=            -17.7408
   XY=             -0.0104   XZ=              0.0737   YZ=             -0.0055

 Normal termination of Gaussian 09 at Thu Aug 27 00:11:38 2020.
