 Gaussian 09, Revision D.01,
 Gaussian 09:  ES64L-G09RevD.01 24-Apr-2013

 --------------------
 #p B2PLYPD3/Def2QZVP
 --------------------

 ------------
 cyanomethane
 ------------
 Symbolic Z-matrix:
 Charge =  0 Multiplicity = 1

                         Standard orientation:
 ---------------------------------------------------------------------
 Center     Atomic      Atomic             Coordinates (Angstroms)
 Number     Number       Type             X           Y           Z
 ---------------------------------------------------------------------
      1          6           0        1.148818   -0.016381   -0.022317
      2          6           0       -0.261384   -0.034386   -0.010469
      3          7           0       -1.434014    0.029390    0.010695
      4          1           0        1.479824   -0.453743   -0.839314
      5          1           0        1.534399   -0.524266    0.888390
      6          1           0        1.699269    1.076874    0.072772
 ---------------------------------------------------------------------

 SCF Done:  E(RB2PLYPD3) =  -132.511441791     A.U. after   13 cycles
 E2(B2PLYPD3) =    -0.1828278825D+00 E(B2PLYPD3) =    -0.13269426967332D+03

 The electronic state is 1-A.
 Alpha  occ. eigenvalues --  -14.84869 -10.67094 -10.66765  -1.03584  -0.90129
 Alpha  occ. eigenvalues --   -0.61179  -0.55991  -0.51078  -0.45071  -0.38706
 Alpha  occ. eigenvalues --   -0.37999
 Alpha virt. eigenvalues --    0.03016   0.05972   0.08146   0.10005   0.11089
 Alpha virt. eigenvalues --    0.11949   0.15695   0.15926   0.17135   0.20078
 Alpha virt. eigenvalues --    0.20396   0.26160   0.31532   0.33259   0.35251

 Mulliken charges:
               1
     1  C   -0.079774
     2  C    0.006057
     3  N   -0.213916
     4  H    0.107794
     5  H    0.093621
     6  H    0.086218
 Sum of Mulliken charges =   0.00000

 Dipole moment (field-independent basis, Debye):
    X=              4.1306    Y=             -0.0877    Z=              0.0013  Tot=              4.1315
 Quadrupole moment (field-independent basis, Debye-Ang):
   XX=            -20.8293   YY=            -17.9436   ZZ=            -17.7992
   XY=              0.2191   XZ=              0.1441   YZ=              0.0869

 Normal termination of Gaussian 09 at Wed Aug 26 18:41:45 2020.
