 Gaussian 09, Revision D.01,
 Gaussian 09:  ES64L-G09RevD.01 24-Apr-2013

 --------------------
 #p B2PLYPD3/Def2QZVP
 --------------------

 ------------
 cyanomethane
 ------------
 Symbolic Z-matrix:
 Charge =  0 Multiplicity = 1

                         Standard orientation:
 ---------------------------------------------------------------------
 Center     Atomic      Atomic             Coordinates (Angstroms)
 Number     Number       Type             X           Y           Z
 ---------------------------------------------------------------------
      1          6           0        1.173586    0.008714   -0.001041
      2          6           0       -0.284219   -0.027604   -0.005654
      3          7           0       -1.430465    0.012800    0.004103
      4          1           0        1.547364    1.025138   -0.020933
      5          1           0        1.552861   -0.521997   -0.838891
      6          1           0        1.576828   -0.479403    0.871269
 ---------------------------------------------------------------------

 SCF Done:  E(RB2PLYPD3) =  -132.535632426     A.U. after   11 cycles
 E2(B2PLYPD3) =    -0.1796583526D+00 E(B2PLYPD3) =    -0.13271529077863D+03

 The electronic state is 1-A.
 Alpha  occ. eigenvalues --  -14.84026 -10.66605 -10.66068  -1.04450  -0.89473
 Alpha  occ. eigenvalues --   -0.60150  -0.54314  -0.53755  -0.44813  -0.39349
 Alpha  occ. eigenvalues --   -0.39277
 Alpha virt. eigenvalues --    0.03817   0.08011   0.08350   0.10192   0.11476
 Alpha virt. eigenvalues --    0.11562   0.15491   0.16252   0.16840   0.20032
 Alpha virt. eigenvalues --    0.20072   0.25417   0.32975   0.34844   0.35015

 Mulliken charges:
               1
     1  C   -0.073328
     2  C   -0.001927
     3  N   -0.202306
     4  H    0.094862
     5  H    0.092237
     6  H    0.090462
 Sum of Mulliken charges =   0.00000

 Dipole moment (field-independent basis, Debye):
    X=              4.1251    Y=             -0.0327    Z=             -0.0070  Tot=              4.1252
 Quadrupole moment (field-independent basis, Debye-Ang):
   XX=            -20.8386   YY=            -17.6742   ZZ=            -17.8099
   XY=              0.0244   XZ=              0.0395   YZ=              0.0126

 Normal termination of Gaussian 09 at Wed Aug 26 10:07:00 2020.
