 Gaussian 09, Revision D.01,
 Gaussian 09:  ES64L-G09RevD.01 24-Apr-2013

 --------------------
 #p B2PLYPD3/Def2QZVP
 --------------------

 ------------
 cyanomethane
 ------------
 Symbolic Z-matrix:
 Charge =  0 Multiplicity = 1

                         Standard orientation:
 ---------------------------------------------------------------------
 Center     Atomic      Atomic             Coordinates (Angstroms)
 Number     Number       Type             X           Y           Z
 ---------------------------------------------------------------------
      1          6           0       -1.175920    0.001849    0.000243
      2          6           0        0.277262    0.018009   -0.005621
      3          7           0        1.438988   -0.011232    0.001267
      4          1           0       -1.541969    1.034073   -0.102133
      5          1           0       -1.548230   -0.439609    0.952147
      6          1           0       -1.590772   -0.634989   -0.826614
 ---------------------------------------------------------------------

 SCF Done:  E(RB2PLYPD3) =  -132.533129288     A.U. after   12 cycles
 E2(B2PLYPD3) =    -0.1814519209D+00 E(B2PLYPD3) =    -0.13271458120848D+03

 The electronic state is 1-A.
 Alpha  occ. eigenvalues --  -14.84440 -10.67797 -10.66512  -1.03840  -0.88810
 Alpha  occ. eigenvalues --   -0.59623  -0.53921  -0.52893  -0.44849  -0.38877
 Alpha  occ. eigenvalues --   -0.38760
 Alpha virt. eigenvalues --    0.03613   0.07241   0.07676   0.10137   0.11334
 Alpha virt. eigenvalues --    0.11572   0.15358   0.16153   0.16473   0.20071
 Alpha virt. eigenvalues --    0.20163   0.25420   0.32483   0.34035   0.34452

 Mulliken charges:
               1
     1  C   -0.090008
     2  C    0.001283
     3  N   -0.208787
     4  H    0.101225
     5  H    0.098680
     6  H    0.097606
 Sum of Mulliken charges =   0.00000

 Dipole moment (field-independent basis, Debye):
    X=             -4.1291    Y=              0.0077    Z=              0.0054  Tot=              4.1292
 Quadrupole moment (field-independent basis, Debye-Ang):
   XX=            -21.0566   YY=            -17.7338   ZZ=            -17.8746
   XY=              0.1107   XZ=              0.0050   YZ=             -0.0114

 Normal termination of Gaussian 09 at Thu Aug 27 00:00:29 2020.
