 Gaussian 09, Revision D.01,
 Gaussian 09:  ES64L-G09RevD.01 24-Apr-2013

 --------------------
 #p B2PLYPD3/Def2QZVP
 --------------------

 ------------
 cyanomethane
 ------------
 Symbolic Z-matrix:
 Charge =  0 Multiplicity = 1

                         Standard orientation:
 ---------------------------------------------------------------------
 Center     Atomic      Atomic             Coordinates (Angstroms)
 Number     Number       Type             X           Y           Z
 ---------------------------------------------------------------------
      1          6           0       -1.178519    0.001204    0.010741
      2          6           0        0.271731   -0.017320    0.004307
      3          7           0        1.430152    0.006172   -0.004863
      4          1           0       -1.506217   -0.076726    1.014469
      5          1           0       -1.564311   -0.848026   -0.616466
      6          1           0       -1.499806    0.978245   -0.454246
 ---------------------------------------------------------------------

 SCF Done:  E(RB2PLYPD3) =  -132.532396712     A.U. after   12 cycles
 E2(B2PLYPD3) =    -0.1809955960D+00 E(B2PLYPD3) =    -0.13271339230774D+03

 The electronic state is 1-A.
 Alpha  occ. eigenvalues --  -14.84176 -10.67534 -10.66224  -1.03895  -0.89205
 Alpha  occ. eigenvalues --   -0.59081  -0.54745  -0.53252  -0.44685  -0.38920
 Alpha  occ. eigenvalues --   -0.38706
 Alpha virt. eigenvalues --    0.03645   0.07452   0.08103   0.10156   0.11333
 Alpha virt. eigenvalues --    0.11593   0.15320   0.15958   0.16081   0.20105
 Alpha virt. eigenvalues --    0.20150   0.25422   0.32510   0.33679   0.34781

 Mulliken charges:
               1
     1  C   -0.099399
     2  C   -0.001094
     3  N   -0.209193
     4  H    0.106799
     5  H    0.100737
     6  H    0.102150
 Sum of Mulliken charges =   0.00000

 Dipole moment (field-independent basis, Debye):
    X=             -4.1102    Y=             -0.0050    Z=              0.0119  Tot=              4.1102
 Quadrupole moment (field-independent basis, Debye-Ang):
   XX=            -21.2734   YY=            -17.7201   ZZ=            -17.6902
   XY=              0.0082   XZ=              0.0421   YZ=             -0.0074

 Normal termination of Gaussian 09 at Thu Aug 27 00:00:10 2020.
