 Gaussian 09, Revision D.01,
 Gaussian 09:  ES64L-G09RevD.01 24-Apr-2013

 --------------------
 #p B2PLYPD3/Def2QZVP
 --------------------

 ------------
 cyanomethane
 ------------
 Symbolic Z-matrix:
 Charge =  0 Multiplicity = 1

                         Standard orientation:
 ---------------------------------------------------------------------
 Center     Atomic      Atomic             Coordinates (Angstroms)
 Number     Number       Type             X           Y           Z
 ---------------------------------------------------------------------
      1          6           0       -1.170447    0.002684   -0.006308
      2          6           0        0.281958   -0.033411    0.006809
      3          7           0        1.424523    0.018331   -0.005600
      4          1           0       -1.571387   -0.514099   -0.848032
      5          1           0       -1.561459    1.036948   -0.013982
      6          1           0       -1.507879   -0.466805    0.898209
 ---------------------------------------------------------------------

 SCF Done:  E(RB2PLYPD3) =  -132.535264370     A.U. after   11 cycles
 E2(B2PLYPD3) =    -0.1794850842D+00 E(B2PLYPD3) =    -0.13271474945423D+03

 The electronic state is 1-A.
 Alpha  occ. eigenvalues --  -14.83881 -10.66770 -10.65893  -1.04564  -0.89431
 Alpha  occ. eigenvalues --   -0.59886  -0.54487  -0.53556  -0.44762  -0.39382
 Alpha  occ. eigenvalues --   -0.39243
 Alpha virt. eigenvalues --    0.03768   0.07880   0.08481   0.10172   0.11504
 Alpha virt. eigenvalues --    0.11674   0.15524   0.16006   0.16903   0.20020
 Alpha virt. eigenvalues --    0.20077   0.25530   0.33052   0.34443   0.35062

 Mulliken charges:
               1
     1  C   -0.081177
     2  C   -0.002882
     3  N   -0.200844
     4  H    0.095988
     5  H    0.093955
     6  H    0.094960
 Sum of Mulliken charges =   0.00000

 Dipole moment (field-independent basis, Debye):
    X=             -4.1057    Y=             -0.0336    Z=              0.0172  Tot=              4.1058
 Quadrupole moment (field-independent basis, Debye-Ang):
   XX=            -20.9437   YY=            -17.7152   ZZ=            -17.7007
   XY=             -0.1114   XZ=              0.0579   YZ=              0.0121

 Normal termination of Gaussian 09 at Wed Aug 26 14:16:36 2020.
