 Gaussian 09, Revision D.01,
 Gaussian 09:  ES64L-G09RevD.01 24-Apr-2013

 --------------------
 #p B2PLYPD3/Def2QZVP
 --------------------

 ------------
 cyanomethane
 ------------
 Symbolic Z-matrix:
 Charge =  0 Multiplicity = 1

                         Standard orientation:
 ---------------------------------------------------------------------
 Center     Atomic      Atomic             Coordinates (Angstroms)
 Number     Number       Type             X           Y           Z
 ---------------------------------------------------------------------
      1          6           0        1.183437   -0.000961   -0.018061
      2          6           0       -0.283412   -0.035112    0.015873
      3          7           0       -1.437535    0.016531   -0.002791
      4          1           0        1.605004    0.060015    0.999854
      5          1           0        1.503783    0.921618   -0.503988
      6          1           0        1.553807   -0.880915   -0.463202
 ---------------------------------------------------------------------

 SCF Done:  E(RB2PLYPD3) =  -132.533696557     A.U. after   11 cycles
 E2(B2PLYPD3) =    -0.1805188787D+00 E(B2PLYPD3) =    -0.13271421543584D+03

 The electronic state is 1-A.
 Alpha  occ. eigenvalues --  -14.84244 -10.67025 -10.66331  -1.04072  -0.89202
 Alpha  occ. eigenvalues --   -0.59692  -0.55229  -0.52746  -0.44792  -0.39254
 Alpha  occ. eigenvalues --   -0.38934
 Alpha virt. eigenvalues --    0.03729   0.07687   0.08316   0.10206   0.11139
 Alpha virt. eigenvalues --    0.11634   0.15261   0.16245   0.16574   0.19994
 Alpha virt. eigenvalues --    0.20151   0.25251   0.32633   0.34140   0.35349

 Mulliken charges:
               1
     1  C   -0.080449
     2  C   -0.001032
     3  N   -0.206501
     4  H    0.088529
     5  H    0.099037
     6  H    0.100416
 Sum of Mulliken charges =   0.00000

 Dipole moment (field-independent basis, Debye):
    X=              4.1351    Y=             -0.0129    Z=              0.0254  Tot=              4.1352
 Quadrupole moment (field-independent basis, Debye-Ang):
   XX=            -20.9543   YY=            -17.5924   ZZ=            -17.9396
   XY=              0.0793   XZ=              0.1048   YZ=              0.0319

 Normal termination of Gaussian 09 at Wed Aug 26 12:08:32 2020.
