 Gaussian 09, Revision D.01,
 Gaussian 09:  ES64L-G09RevD.01 24-Apr-2013

 --------------------
 #p B2PLYPD3/Def2QZVP
 --------------------

 ------------
 cyanomethane
 ------------
 Symbolic Z-matrix:
 Charge =  0 Multiplicity = 1

                         Standard orientation:
 ---------------------------------------------------------------------
 Center     Atomic      Atomic             Coordinates (Angstroms)
 Number     Number       Type             X           Y           Z
 ---------------------------------------------------------------------
      1          6           0       -1.172782    0.006640   -0.015747
      2          6           0        0.281469    0.015692    0.001973
      3          7           0        1.441044   -0.008433   -0.002522
      4          1           0       -1.586680    1.039592    0.065997
      5          1           0       -1.537018   -0.584901    0.907737
      6          1           0       -1.615732   -0.529658   -0.873430
 ---------------------------------------------------------------------

 SCF Done:  E(RB2PLYPD3) =  -132.530551813     A.U. after   12 cycles
 E2(B2PLYPD3) =    -0.1815175243D+00 E(B2PLYPD3) =    -0.13271206933697D+03

 The electronic state is 1-A.
 Alpha  occ. eigenvalues --  -14.84459 -10.68177 -10.66563  -1.03979  -0.88466
 Alpha  occ. eigenvalues --   -0.59902  -0.53715  -0.52053  -0.44920  -0.39053
 Alpha  occ. eigenvalues --   -0.38686
 Alpha virt. eigenvalues --    0.03529   0.07099   0.07398   0.10121   0.11334
 Alpha virt. eigenvalues --    0.11751   0.15363   0.15972   0.17041   0.20055
 Alpha virt. eigenvalues --    0.20165   0.25407   0.32312   0.33248   0.34823

 Mulliken charges:
               1
     1  C   -0.089763
     2  C    0.003871
     3  N   -0.206819
     4  H    0.100411
     5  H    0.092447
     6  H    0.099853
 Sum of Mulliken charges =   0.00000

 Dipole moment (field-independent basis, Debye):
    X=             -4.1289    Y=             -0.0075    Z=              0.0117  Tot=              4.1289
 Quadrupole moment (field-independent basis, Debye-Ang):
   XX=            -20.9706   YY=            -17.7484   ZZ=            -17.9631
   XY=              0.0886   XZ=              0.0408   YZ=              0.0568

 Normal termination of Gaussian 09 at Wed Aug 26 11:42:21 2020.
