 Gaussian 09, Revision D.01,
 Gaussian 09:  ES64L-G09RevD.01 24-Apr-2013

 --------------------
 #p B2PLYPD3/Def2QZVP
 --------------------

 ------------
 cyanomethane
 ------------
 Symbolic Z-matrix:
 Charge =  0 Multiplicity = 1

                         Standard orientation:
 ---------------------------------------------------------------------
 Center     Atomic      Atomic             Coordinates (Angstroms)
 Number     Number       Type             X           Y           Z
 ---------------------------------------------------------------------
      1          6           0        1.158734   -0.038406   -0.019879
      2          6           0       -0.266670    0.015441   -0.055515
      3          7           0       -1.423972   -0.000356    0.039991
      4          1           0        1.416891   -0.504232   -0.857703
      5          1           0        1.616331   -0.501950    0.978414
      6          1           0        1.582202    1.146461    0.051720
 ---------------------------------------------------------------------

 SCF Done:  E(RB2PLYPD3) =  -132.503555030     A.U. after   12 cycles
 E2(B2PLYPD3) =    -0.1823071523D+00 E(B2PLYPD3) =    -0.13268586218201D+03

 The electronic state is 1-A.
 Alpha  occ. eigenvalues --  -14.84393 -10.68415 -10.66305  -1.03989  -0.89293
 Alpha  occ. eigenvalues --   -0.59374  -0.55932  -0.50211  -0.44867  -0.38985
 Alpha  occ. eigenvalues --   -0.38003
 Alpha virt. eigenvalues --    0.02933   0.05269   0.08510   0.10006   0.11041
 Alpha virt. eigenvalues --    0.12210   0.15304   0.15692   0.16768   0.19965
 Alpha virt. eigenvalues --    0.20292   0.25885   0.30322   0.32492   0.34918

 Mulliken charges:
               1
     1  C   -0.111339
     2  C    0.006722
     3  N   -0.208643
     4  H    0.120123
     5  H    0.102528
     6  H    0.090608
 Sum of Mulliken charges =   0.00000

 Dipole moment (field-independent basis, Debye):
    X=              4.0493    Y=             -0.0187    Z=             -0.0352  Tot=              4.0495
 Quadrupole moment (field-independent basis, Debye-Ang):
   XX=            -21.3199   YY=            -17.8632   ZZ=            -17.6757
   XY=              0.0267   XZ=              0.4200   YZ=              0.1663

 Normal termination of Gaussian 09 at Wed Aug 26 22:31:46 2020.
