 Gaussian 09, Revision D.01,
 Gaussian 09:  ES64L-G09RevD.01 24-Apr-2013

 --------------------
 #p B2PLYPD3/Def2QZVP
 --------------------

 ------------
 cyanomethane
 ------------
 Symbolic Z-matrix:
 Charge =  0 Multiplicity = 1

                         Standard orientation:
 ---------------------------------------------------------------------
 Center     Atomic      Atomic             Coordinates (Angstroms)
 Number     Number       Type             X           Y           Z
 ---------------------------------------------------------------------
      1          6           0       -1.180576    0.006760    0.000302
      2          6           0        0.283963   -0.012374    0.000262
      3          7           0        1.438221    0.002791   -0.000204
      4          1           0       -1.526512    0.912212   -0.469422
      5          1           0       -1.563878   -0.038047    1.010078
      6          1           0       -1.597479   -0.860022   -0.542608
 ---------------------------------------------------------------------

 SCF Done:  E(RB2PLYPD3) =  -132.535440727     A.U. after   11 cycles
 E2(B2PLYPD3) =    -0.1804349798D+00 E(B2PLYPD3) =    -0.13271587570713D+03

 The electronic state is 1-A.
 Alpha  occ. eigenvalues --  -14.84241 -10.67133 -10.66333  -1.04133  -0.89101
 Alpha  occ. eigenvalues --   -0.59828  -0.54192  -0.53397  -0.44821  -0.39165
 Alpha  occ. eigenvalues --   -0.39094
 Alpha virt. eigenvalues --    0.03761   0.07795   0.08060   0.10202   0.11394
 Alpha virt. eigenvalues --    0.11473   0.15364   0.16401   0.16487   0.20065
 Alpha virt. eigenvalues --    0.20092   0.25223   0.32621   0.34571   0.34886

 Mulliken charges:
               1
     1  C   -0.080043
     2  C   -0.001116
     3  N   -0.205549
     4  H    0.098038
     5  H    0.095357
     6  H    0.093313
 Sum of Mulliken charges =   0.00000

 Dipole moment (field-independent basis, Debye):
    X=             -4.1362    Y=             -0.0001    Z=              0.0066  Tot=              4.1362
 Quadrupole moment (field-independent basis, Debye-Ang):
   XX=            -20.9214   YY=            -17.7536   ZZ=            -17.8038
   XY=              0.0304   XZ=             -0.0138   YZ=             -0.0274

 Normal termination of Gaussian 09 at Thu Aug 27 00:09:56 2020.
