 Gaussian 09, Revision D.01,
 Gaussian 09:  ES64L-G09RevD.01 24-Apr-2013

 --------------------
 #p B2PLYPD3/Def2QZVP
 --------------------

 ------------
 cyanomethane
 ------------
 Symbolic Z-matrix:
 Charge =  0 Multiplicity = 1

                         Standard orientation:
 ---------------------------------------------------------------------
 Center     Atomic      Atomic             Coordinates (Angstroms)
 Number     Number       Type             X           Y           Z
 ---------------------------------------------------------------------
      1          6           0        1.179967   -0.002620   -0.001629
      2          6           0       -0.282169   -0.014062   -0.005706
      3          7           0       -1.428357    0.010718    0.004004
      4          1           0        1.546190   -0.055736    1.008115
      5          1           0        1.568831    0.931023   -0.442473
      6          1           0        1.496692   -0.850229   -0.549657
 ---------------------------------------------------------------------

 SCF Done:  E(RB2PLYPD3) =  -132.535226966     A.U. after   11 cycles
 E2(B2PLYPD3) =    -0.1796342857D+00 E(B2PLYPD3) =    -0.13271486125122D+03

 The electronic state is 1-A.
 Alpha  occ. eigenvalues --  -14.83907 -10.66820 -10.65956  -1.04394  -0.89411
 Alpha  occ. eigenvalues --   -0.59446  -0.54890  -0.53596  -0.44697  -0.39321
 Alpha  occ. eigenvalues --   -0.39213
 Alpha virt. eigenvalues --    0.03802   0.07974   0.08568   0.10210   0.11393
 Alpha virt. eigenvalues --    0.11598   0.15390   0.16058   0.16561   0.20024
 Alpha virt. eigenvalues --    0.20102   0.25264   0.32847   0.34547   0.35053

 Mulliken charges:
               1
     1  C   -0.085215
     2  C   -0.004589
     3  N   -0.202633
     4  H    0.096052
     5  H    0.096034
     6  H    0.100351
 Sum of Mulliken charges =   0.00000

 Dipole moment (field-independent basis, Debye):
    X=              4.1147    Y=             -0.0204    Z=              0.0059  Tot=              4.1148
 Quadrupole moment (field-independent basis, Debye-Ang):
   XX=            -21.0377   YY=            -17.6354   ZZ=            -17.7482
   XY=              0.1055   XZ=              0.0670   YZ=              0.0377

 Normal termination of Gaussian 09 at Wed Aug 26 10:17:31 2020.
