 Gaussian 09, Revision D.01,
 Gaussian 09:  ES64L-G09RevD.01 24-Apr-2013

 --------------------
 #p B2PLYPD3/Def2QZVP
 --------------------

 ------------
 cyanomethane
 ------------
 Symbolic Z-matrix:
 Charge =  0 Multiplicity = 1

                         Standard orientation:
 ---------------------------------------------------------------------
 Center     Atomic      Atomic             Coordinates (Angstroms)
 Number     Number       Type             X           Y           Z
 ---------------------------------------------------------------------
      1          6           0       -1.184573    0.001282    0.009988
      2          6           0        0.273243    0.009783   -0.021309
      3          7           0        1.440683   -0.007323    0.006609
      4          1           0       -1.592556   -0.727633   -0.722413
      5          1           0       -1.523421    0.996771   -0.244041
      6          1           0       -1.500826   -0.284264    0.988113
 ---------------------------------------------------------------------

 SCF Done:  E(RB2PLYPD3) =  -132.533370533     A.U. after   12 cycles
 E2(B2PLYPD3) =    -0.1815933227D+00 E(B2PLYPD3) =    -0.13271496385598D+03

 The electronic state is 1-A.
 Alpha  occ. eigenvalues --  -14.84519 -10.67123 -10.66603  -1.03557  -0.89383
 Alpha  occ. eigenvalues --   -0.59516  -0.54779  -0.53609  -0.44777  -0.38766
 Alpha  occ. eigenvalues --   -0.38675
 Alpha virt. eigenvalues --    0.03746   0.07537   0.07975   0.10157   0.11211
 Alpha virt. eigenvalues --    0.11361   0.15318   0.15980   0.16289   0.20132
 Alpha virt. eigenvalues --    0.20176   0.25329   0.32483   0.34383   0.34880

 Mulliken charges:
               1
     1  C   -0.086935
     2  C   -0.000140
     3  N   -0.212955
     4  H    0.096448
     5  H    0.100940
     6  H    0.102642
 Sum of Mulliken charges =   0.00000

 Dipole moment (field-independent basis, Debye):
    X=             -4.1441    Y=              0.0086    Z=              0.0003  Tot=              4.1441
 Quadrupole moment (field-independent basis, Debye-Ang):
   XX=            -21.1004   YY=            -17.7420   ZZ=            -17.7867
   XY=              0.0801   XZ=              0.0097   YZ=             -0.0377

 Normal termination of Gaussian 09 at Thu Aug 27 00:12:52 2020.
