 Gaussian 09, Revision D.01,
 Gaussian 09:  ES64L-G09RevD.01 24-Apr-2013

 --------------------
 #p B2PLYPD3/Def2QZVP
 --------------------

 ------------
 cyanomethane
 ------------
 Symbolic Z-matrix:
 Charge =  0 Multiplicity = 1

                         Standard orientation:
 ---------------------------------------------------------------------
 Center     Atomic      Atomic             Coordinates (Angstroms)
 Number     Number       Type             X           Y           Z
 ---------------------------------------------------------------------
      1          6           0       -1.185578    0.005617   -0.011765
      2          6           0        0.285728    0.020635    0.002241
      3          7           0        1.433545   -0.009524    0.002227
      4          1           0       -1.571114   -0.167915    1.032474
      5          1           0       -1.506611   -0.848552   -0.614851
      6          1           0       -1.557985    0.925621   -0.376068
 ---------------------------------------------------------------------

 SCF Done:  E(RB2PLYPD3) =  -132.534281275     A.U. after   11 cycles
 E2(B2PLYPD3) =    -0.1799668278D+00 E(B2PLYPD3) =    -0.13271424810246D+03

 The electronic state is 1-A.
 Alpha  occ. eigenvalues --  -14.83986 -10.67355 -10.66079  -1.04313  -0.88938
 Alpha  occ. eigenvalues --   -0.59204  -0.54847  -0.52919  -0.44704  -0.39374
 Alpha  occ. eigenvalues --   -0.39098
 Alpha virt. eigenvalues --    0.03706   0.07805   0.08416   0.10222   0.11277
 Alpha virt. eigenvalues --    0.11655   0.15269   0.16187   0.16394   0.20000
 Alpha virt. eigenvalues --    0.20106   0.25087   0.32548   0.33974   0.35148

 Mulliken charges:
               1
     1  C   -0.090571
     2  C   -0.003705
     3  N   -0.202823
     4  H    0.094034
     5  H    0.100446
     6  H    0.102619
 Sum of Mulliken charges =   0.00000

 Dipole moment (field-independent basis, Debye):
    X=             -4.1173    Y=              0.0059    Z=             -0.0021  Tot=              4.1173
 Quadrupole moment (field-independent basis, Debye-Ang):
   XX=            -21.0815   YY=            -17.6447   ZZ=            -17.8014
   XY=              0.0393   XZ=             -0.0585   YZ=             -0.0133

 Normal termination of Gaussian 09 at Thu Aug 27 00:11:37 2020.
