 Gaussian 09, Revision D.01,
 Gaussian 09:  ES64L-G09RevD.01 24-Apr-2013

 --------------------
 #p B2PLYPD3/Def2QZVP
 --------------------

 ------------
 cyanomethane
 ------------
 Symbolic Z-matrix:
 Charge =  0 Multiplicity = 1

                         Standard orientation:
 ---------------------------------------------------------------------
 Center     Atomic      Atomic             Coordinates (Angstroms)
 Number     Number       Type             X           Y           Z
 ---------------------------------------------------------------------
      1          6           0       -1.184197   -0.002412    0.011388
      2          6           0        0.284288   -0.003945   -0.023743
      3          7           0        1.432945    0.002934    0.011681
      4          1           0       -1.548329   -0.045072    1.000810
      5          1           0       -1.534150   -0.864261   -0.546696
      6          1           0       -1.548684    0.926936   -0.461754
 ---------------------------------------------------------------------

 SCF Done:  E(RB2PLYPD3) =  -132.535097776     A.U. after   11 cycles
 E2(B2PLYPD3) =    -0.1799096496D+00 E(B2PLYPD3) =    -0.13271500742545D+03

 The electronic state is 1-A.
 Alpha  occ. eigenvalues --  -14.84020 -10.66988 -10.66097  -1.04286  -0.89210
 Alpha  occ. eigenvalues --   -0.59498  -0.54365  -0.53778  -0.44723  -0.39286
 Alpha  occ. eigenvalues --   -0.39186
 Alpha virt. eigenvalues --    0.03791   0.08082   0.08284   0.10188   0.11405
 Alpha virt. eigenvalues --    0.11485   0.15354   0.16055   0.16569   0.20047
 Alpha virt. eigenvalues --    0.20080   0.25177   0.32691   0.34429   0.35057

 Mulliken charges:
               1
     1  C   -0.085428
     2  C   -0.003392
     3  N   -0.203666
     4  H    0.099154
     5  H    0.097553
     6  H    0.095779
 Sum of Mulliken charges =   0.00000

 Dipole moment (field-independent basis, Debye):
    X=             -4.1196    Y=             -0.0066    Z=             -0.0076  Tot=              4.1196
 Quadrupole moment (field-independent basis, Debye-Ang):
   XX=            -21.0327   YY=            -17.6833   ZZ=            -17.7486
   XY=             -0.0229   XZ=             -0.0936   YZ=              0.0126

 Normal termination of Gaussian 09 at Wed Aug 26 23:18:39 2020.
