 Gaussian 09, Revision D.01,
 Gaussian 09:  ES64L-G09RevD.01 24-Apr-2013

 --------------------
 #p B2PLYPD3/Def2QZVP
 --------------------

 ------------
 cyanomethane
 ------------
 Symbolic Z-matrix:
 Charge =  0 Multiplicity = 1

                         Standard orientation:
 ---------------------------------------------------------------------
 Center     Atomic      Atomic             Coordinates (Angstroms)
 Number     Number       Type             X           Y           Z
 ---------------------------------------------------------------------
      1          6           0        1.179550    0.008511   -0.005410
      2          6           0       -0.286263   -0.035910    0.001657
      3          7           0       -1.439200    0.018108   -0.004806
      4          1           0        1.595334    0.972558   -0.343178
      5          1           0        1.610699   -0.789571   -0.610108
      6          1           0        1.508648   -0.145347    1.009447
 ---------------------------------------------------------------------

 SCF Done:  E(RB2PLYPD3) =  -132.534400900     A.U. after   12 cycles
 E2(B2PLYPD3) =    -0.1805406200D+00 E(B2PLYPD3) =    -0.13271494151989D+03

 The electronic state is 1-A.
 Alpha  occ. eigenvalues --  -14.84291 -10.67217 -10.66389  -1.04172  -0.88982
 Alpha  occ. eigenvalues --   -0.59950  -0.53699  -0.53471  -0.44870  -0.39202
 Alpha  occ. eigenvalues --   -0.39101
 Alpha virt. eigenvalues --    0.03692   0.07578   0.08147   0.10164   0.11386
 Alpha virt. eigenvalues --    0.11504   0.15393   0.15971   0.17101   0.20060
 Alpha virt. eigenvalues --    0.20107   0.25298   0.32638   0.34490   0.34854

 Mulliken charges:
               1
     1  C   -0.078894
     2  C    0.000586
     3  N   -0.205046
     4  H    0.095512
     5  H    0.093574
     6  H    0.094268
 Sum of Mulliken charges =   0.00000

 Dipole moment (field-independent basis, Debye):
    X=              4.1338    Y=             -0.0314    Z=              0.0308  Tot=              4.1340
 Quadrupole moment (field-independent basis, Debye-Ang):
   XX=            -20.8606   YY=            -17.7552   ZZ=            -17.8547
   XY=              0.0890   XZ=             -0.0476   YZ=              0.0030

 Normal termination of Gaussian 09 at Wed Aug 26 11:23:36 2020.
