 Gaussian 09, Revision D.01,
 Gaussian 09:  ES64L-G09RevD.01 24-Apr-2013

 --------------------
 #p B2PLYPD3/Def2QZVP
 --------------------

 ------------
 cyanomethane
 ------------
 Symbolic Z-matrix:
 Charge =  0 Multiplicity = 1

                         Standard orientation:
 ---------------------------------------------------------------------
 Center     Atomic      Atomic             Coordinates (Angstroms)
 Number     Number       Type             X           Y           Z
 ---------------------------------------------------------------------
      1          6           0        1.174796   -0.005606   -0.011547
      2          6           0       -0.277067   -0.007490   -0.024839
      3          7           0       -1.445325    0.003160    0.009579
      4          1           0        1.584662    0.955468   -0.322854
      5          1           0        1.634882   -0.779750   -0.550062
      6          1           0        1.511362   -0.119267    1.024182
 ---------------------------------------------------------------------

 SCF Done:  E(RB2PLYPD3) =  -132.531985197     A.U. after   12 cycles
 E2(B2PLYPD3) =    -0.1816908756D+00 E(B2PLYPD3) =    -0.13271367607297D+03

 The electronic state is 1-A.
 Alpha  occ. eigenvalues --  -14.84716 -10.66841 -10.66745  -1.03645  -0.89545
 Alpha  occ. eigenvalues --   -0.60910  -0.54511  -0.53054  -0.44978  -0.38944
 Alpha  occ. eigenvalues --   -0.38621
 Alpha virt. eigenvalues --    0.03752   0.07479   0.07704   0.10154   0.11166
 Alpha virt. eigenvalues --    0.11571   0.15468   0.16099   0.17127   0.20128
 Alpha virt. eigenvalues --    0.20203   0.25444   0.32650   0.34146   0.35406

 Mulliken charges:
               1
     1  C   -0.066687
     2  C    0.004980
     3  N   -0.212389
     4  H    0.091296
     5  H    0.094177
     6  H    0.088622
 Sum of Mulliken charges =   0.00000

 Dipole moment (field-independent basis, Debye):
    X=              4.1702    Y=             -0.0037    Z=              0.0206  Tot=              4.1703
 Quadrupole moment (field-independent basis, Debye-Ang):
   XX=            -20.7356   YY=            -17.7808   ZZ=            -17.9454
   XY=             -0.0037   XZ=              0.0567   YZ=              0.0373

 Normal termination of Gaussian 09 at Wed Aug 26 12:59:05 2020.
