 Gaussian 09, Revision D.01,
 Gaussian 09:  ES64L-G09RevD.01 24-Apr-2013

 --------------------
 #p B2PLYPD3/Def2QZVP
 --------------------

 ------------
 cyanomethane
 ------------
 Symbolic Z-matrix:
 Charge =  0 Multiplicity = 1

                         Standard orientation:
 ---------------------------------------------------------------------
 Center     Atomic      Atomic             Coordinates (Angstroms)
 Number     Number       Type             X           Y           Z
 ---------------------------------------------------------------------
      1          6           0        1.150303   -0.005048   -0.038063
      2          6           0       -0.287707   -0.055414   -0.016524
      3          7           0       -1.421109    0.027116    0.024234
      4          1           0        1.740566    0.044492    1.049617
      5          1           0        1.481474    0.985290   -0.446227
      6          1           0        1.550148   -0.856821   -0.445503
 ---------------------------------------------------------------------

 SCF Done:  E(RB2PLYPD3) =  -132.515673370     A.U. after   12 cycles
 E2(B2PLYPD3) =    -0.1800212351D+00 E(B2PLYPD3) =    -0.13269569460478D+03

 The electronic state is 1-A.
 Alpha  occ. eigenvalues --  -14.83914 -10.67890 -10.65862  -1.05035  -0.88847
 Alpha  occ. eigenvalues --   -0.60396  -0.55832  -0.49725  -0.44961  -0.39826
 Alpha  occ. eigenvalues --   -0.38692
 Alpha virt. eigenvalues --    0.03072   0.06177   0.08620   0.10135   0.11302
 Alpha virt. eigenvalues --    0.12494   0.15447   0.16861   0.17090   0.19730
 Alpha virt. eigenvalues --    0.20219   0.25820   0.31100   0.33561   0.35347

 Mulliken charges:
               1
     1  C   -0.085690
     2  C    0.002301
     3  N   -0.194083
     4  H    0.073596
     5  H    0.100383
     6  H    0.103493
 Sum of Mulliken charges =   0.00000

 Dipole moment (field-independent basis, Debye):
    X=              4.0646    Y=             -0.0294    Z=             -0.0492  Tot=              4.0650
 Quadrupole moment (field-independent basis, Debye-Ang):
   XX=            -20.7838   YY=            -17.4864   ZZ=            -18.2073
   XY=              0.1372   XZ=              0.3207   YZ=              0.0510

 Normal termination of Gaussian 09 at Wed Aug 26 20:12:44 2020.
