 Gaussian 09, Revision D.01,
 Gaussian 09:  ES64L-G09RevD.01 24-Apr-2013

 --------------------
 #p B2PLYPD3/Def2QZVP
 --------------------

 ------------
 cyanomethane
 ------------
 Symbolic Z-matrix:
 Charge =  0 Multiplicity = 1

                         Standard orientation:
 ---------------------------------------------------------------------
 Center     Atomic      Atomic             Coordinates (Angstroms)
 Number     Number       Type             X           Y           Z
 ---------------------------------------------------------------------
      1          6           0        1.170874    0.005371   -0.000726
      2          6           0       -0.278390    0.011594    0.005104
      3          7           0       -1.431537   -0.008697   -0.004292
      4          1           0        1.529927    1.031032   -0.054679
      5          1           0        1.589436   -0.586008   -0.841301
      6          1           0        1.546492   -0.485939    0.899756
 ---------------------------------------------------------------------

 SCF Done:  E(RB2PLYPD3) =  -132.534905465     A.U. after   11 cycles
 E2(B2PLYPD3) =    -0.1804822240D+00 E(B2PLYPD3) =    -0.13271538768939D+03

 The electronic state is 1-A.
 Alpha  occ. eigenvalues --  -14.84171 -10.67245 -10.66208  -1.04193  -0.89185
 Alpha  occ. eigenvalues --   -0.59897  -0.54402  -0.53016  -0.44815  -0.39125
 Alpha  occ. eigenvalues --   -0.38952
 Alpha virt. eigenvalues --    0.03722   0.07559   0.08000   0.10158   0.11400
 Alpha virt. eigenvalues --    0.11685   0.15445   0.16240   0.16592   0.20032
 Alpha virt. eigenvalues --    0.20144   0.25500   0.32783   0.34264   0.34787

 Mulliken charges:
               1
     1  C   -0.083569
     2  C   -0.000724
     3  N   -0.205274
     4  H    0.099869
     5  H    0.094105
     6  H    0.095592
 Sum of Mulliken charges =   0.00000

 Dipole moment (field-independent basis, Debye):
    X=              4.1221    Y=             -0.0040    Z=              0.0133  Tot=              4.1221
 Quadrupole moment (field-independent basis, Debye-Ang):
   XX=            -20.9803   YY=            -17.6469   ZZ=            -17.8767
   XY=             -0.1278   XZ=             -0.0369   YZ=             -0.0176

 Normal termination of Gaussian 09 at Thu Aug 27 00:05:27 2020.
