 Gaussian 09, Revision D.01,
 Gaussian 09:  ES64L-G09RevD.01 24-Apr-2013

 --------------------
 #p B2PLYPD3/Def2QZVP
 --------------------

 ------------
 cyanomethane
 ------------
 Symbolic Z-matrix:
 Charge =  0 Multiplicity = 1

                         Standard orientation:
 ---------------------------------------------------------------------
 Center     Atomic      Atomic             Coordinates (Angstroms)
 Number     Number       Type             X           Y           Z
 ---------------------------------------------------------------------
      1          6           0        1.193594   -0.013937    0.006406
      2          6           0       -0.291179    0.033155   -0.024643
      3          7           0       -1.437322   -0.009189    0.010627
      4          1           0        1.485303   -0.901432   -0.550063
      5          1           0        1.520389   -0.070612    1.037267
      6          1           0        1.641075    0.921065   -0.452172
 ---------------------------------------------------------------------

 SCF Done:  E(RB2PLYPD3) =  -132.533651125     A.U. after   12 cycles
 E2(B2PLYPD3) =    -0.1800482630D+00 E(B2PLYPD3) =    -0.13271369938773D+03

 The electronic state is 1-A.
 Alpha  occ. eigenvalues --  -14.83983 -10.67776 -10.66115  -1.04320  -0.88486
 Alpha  occ. eigenvalues --   -0.58734  -0.54295  -0.53005  -0.44677  -0.39343
 Alpha  occ. eigenvalues --   -0.39249
 Alpha virt. eigenvalues --    0.03661   0.07801   0.08313   0.10240   0.11380
 Alpha virt. eigenvalues --    0.11478   0.15104   0.16175   0.16323   0.20003
 Alpha virt. eigenvalues --    0.20055   0.24917   0.32177   0.34386   0.34702

 Mulliken charges:
               1
     1  C   -0.096561
     2  C   -0.003937
     3  N   -0.201972
     4  H    0.104499
     5  H    0.102282
     6  H    0.095690
 Sum of Mulliken charges =   0.00000

 Dipole moment (field-independent basis, Debye):
    X=              4.1143    Y=              0.0026    Z=              0.0006  Tot=              4.1143
 Quadrupole moment (field-independent basis, Debye-Ang):
   XX=            -21.1275   YY=            -17.7005   ZZ=            -17.7710
   XY=              0.0475   XZ=              0.0703   YZ=              0.0491

 Normal termination of Gaussian 09 at Wed Aug 26 16:06:57 2020.
