 Gaussian 09, Revision D.01,
 Gaussian 09:  ES64L-G09RevD.01 24-Apr-2013

 --------------------
 #p B2PLYPD3/Def2QZVP
 --------------------

 ------------
 cyanomethane
 ------------
 Symbolic Z-matrix:
 Charge =  0 Multiplicity = 1

                         Standard orientation:
 ---------------------------------------------------------------------
 Center     Atomic      Atomic             Coordinates (Angstroms)
 Number     Number       Type             X           Y           Z
 ---------------------------------------------------------------------
      1          6           0       -1.167418    0.010177   -0.003596
      2          6           0        0.271107    0.011619    0.009142
      3          7           0        1.433613   -0.008996   -0.001688
      4          1           0       -1.516601    0.934080   -0.365657
      5          1           0       -1.592969   -0.189100    0.995362
      6          1           0       -1.547855   -0.812777   -0.651166
 ---------------------------------------------------------------------

 SCF Done:  E(RB2PLYPD3) =  -132.533097659     A.U. after   11 cycles
 E2(B2PLYPD3) =    -0.1812141289D+00 E(B2PLYPD3) =    -0.13271431178804D+03

 The electronic state is 1-A.
 Alpha  occ. eigenvalues --  -14.84423 -10.66960 -10.66439  -1.03852  -0.89583
 Alpha  occ. eigenvalues --   -0.60253  -0.54888  -0.53012  -0.44865  -0.38907
 Alpha  occ. eigenvalues --   -0.38662
 Alpha virt. eigenvalues --    0.03730   0.07295   0.07968   0.10132   0.11300
 Alpha virt. eigenvalues --    0.11641   0.15519   0.16290   0.16450   0.20088
 Alpha virt. eigenvalues --    0.20189   0.25677   0.32776   0.34060   0.35101

 Mulliken charges:
               1
     1  C   -0.079143
     2  C    0.001046
     3  N   -0.210183
     4  H    0.100694
     5  H    0.093720
     6  H    0.093867
 Sum of Mulliken charges =   0.00000

 Dipole moment (field-independent basis, Debye):
    X=             -4.1375    Y=              0.0076    Z=              0.0002  Tot=              4.1375
 Quadrupole moment (field-independent basis, Debye-Ang):
   XX=            -20.9523   YY=            -17.7244   ZZ=            -17.8360
   XY=              0.0971   XZ=             -0.0336   YZ=             -0.0477

 Normal termination of Gaussian 09 at Wed Aug 26 14:00:09 2020.
