 Gaussian 09, Revision D.01,
 Gaussian 09:  ES64L-G09RevD.01 24-Apr-2013

 --------------------
 #p B2PLYPD3/Def2QZVP
 --------------------

 ------------
 cyanomethane
 ------------
 Symbolic Z-matrix:
 Charge =  0 Multiplicity = 1

                         Standard orientation:
 ---------------------------------------------------------------------
 Center     Atomic      Atomic             Coordinates (Angstroms)
 Number     Number       Type             X           Y           Z
 ---------------------------------------------------------------------
      1          6           0       -1.175126    0.011835    0.017186
      2          6           0        0.249584   -0.066651   -0.023120
      3          7           0        1.427456    0.026374    0.002492
      4          1           0       -1.381363   -0.084338    0.956726
      5          1           0       -1.615955   -0.761801   -0.570326
      6          1           0       -1.441622    0.990422   -0.368240
 ---------------------------------------------------------------------

 SCF Done:  E(RB2PLYPD3) =  -132.517561361     A.U. after   12 cycles
 E2(B2PLYPD3) =    -0.1823923823D+00 E(B2PLYPD3) =    -0.13269995374289D+03

 The electronic state is 1-A.
 Alpha  occ. eigenvalues --  -14.84691 -10.66684 -10.65401  -1.03128  -0.91334
 Alpha  occ. eigenvalues --   -0.59872  -0.57097  -0.54853  -0.44704  -0.38344
 Alpha  occ. eigenvalues --   -0.38172
 Alpha virt. eigenvalues --    0.03807   0.07508   0.08493   0.10129   0.11096
 Alpha virt. eigenvalues --    0.11248   0.15449   0.15533   0.16140   0.20185
 Alpha virt. eigenvalues --    0.20310   0.26069   0.32756   0.34410   0.35819

 Mulliken charges:
               1
     1  C   -0.088198
     2  C    0.002043
     3  N   -0.223282
     4  H    0.110649
     5  H    0.095952
     6  H    0.102836
 Sum of Mulliken charges =   0.00000

 Dipole moment (field-independent basis, Debye):
    X=             -4.1397    Y=             -0.0244    Z=              0.0156  Tot=              4.1398
 Quadrupole moment (field-independent basis, Debye-Ang):
   XX=            -21.1745   YY=            -17.6121   ZZ=            -17.7147
   XY=             -0.0126   XZ=              0.0823   YZ=             -0.0282

 Normal termination of Gaussian 09 at Wed Aug 26 22:41:41 2020.
