 Gaussian 09, Revision D.01,
 Gaussian 09:  ES64L-G09RevD.01 24-Apr-2013

 --------------------
 #p B2PLYPD3/Def2QZVP
 --------------------

 ------------
 cyanomethane
 ------------
 Symbolic Z-matrix:
 Charge =  0 Multiplicity = 1

                         Standard orientation:
 ---------------------------------------------------------------------
 Center     Atomic      Atomic             Coordinates (Angstroms)
 Number     Number       Type             X           Y           Z
 ---------------------------------------------------------------------
      1          6           0        1.167612   -0.011100   -0.019283
      2          6           0       -0.289499   -0.061421    0.026490
      3          7           0       -1.426685    0.041790   -0.022144
      4          1           0        1.717483    1.056699   -0.239612
      5          1           0        1.600255   -0.732269   -0.603230
      6          1           0        1.400378   -0.181827    0.954606
 ---------------------------------------------------------------------

 SCF Done:  E(RB2PLYPD3) =  -132.513679490     A.U. after   12 cycles
 E2(B2PLYPD3) =    -0.1800106698D+00 E(B2PLYPD3) =    -0.13269369015980D+03

 The electronic state is 1-A.
 Alpha  occ. eigenvalues --  -14.84057 -10.66791 -10.66081  -1.04757  -0.89692
 Alpha  occ. eigenvalues --   -0.60279  -0.55557  -0.51423  -0.44932  -0.39668
 Alpha  occ. eigenvalues --   -0.39062
 Alpha virt. eigenvalues --    0.02965   0.07148   0.09270   0.10106   0.11301
 Alpha virt. eigenvalues --    0.11802   0.15158   0.15653   0.18225   0.19986
 Alpha virt. eigenvalues --    0.20558   0.25743   0.31484   0.33906   0.35826

 Mulliken charges:
               1
     1  C   -0.087226
     2  C    0.004234
     3  N   -0.198499
     4  H    0.086826
     5  H    0.097112
     6  H    0.097553
 Sum of Mulliken charges =   0.00000

 Dipole moment (field-independent basis, Debye):
    X=              4.0869    Y=             -0.1203    Z=              0.1248  Tot=              4.0906
 Quadrupole moment (field-independent basis, Debye-Ang):
   XX=            -20.7141   YY=            -17.6773   ZZ=            -17.9087
   XY=              0.2573   XZ=             -0.0962   YZ=              0.1135

 Normal termination of Gaussian 09 at Wed Aug 26 23:48:35 2020.
