 Gaussian 09, Revision D.01,
 Gaussian 09:  ES64L-G09RevD.01 24-Apr-2013

 --------------------
 #p B2PLYPD3/Def2QZVP
 --------------------

 ------------
 cyanomethane
 ------------
 Symbolic Z-matrix:
 Charge =  0 Multiplicity = 1

                         Standard orientation:
 ---------------------------------------------------------------------
 Center     Atomic      Atomic             Coordinates (Angstroms)
 Number     Number       Type             X           Y           Z
 ---------------------------------------------------------------------
      1          6           0        1.146401   -0.030598   -0.002811
      2          6           0       -0.269420    0.079366    0.015936
      3          7           0       -1.428397   -0.034937   -0.004767
      4          1           0        1.613854    1.080990   -0.120753
      5          1           0        1.519154   -0.657530   -0.842909
      6          1           0        1.603883   -0.471507    0.918281
 ---------------------------------------------------------------------

 SCF Done:  E(RB2PLYPD3) =  -132.522077186     A.U. after   12 cycles
 E2(B2PLYPD3) =    -0.1824971768D+00 E(B2PLYPD3) =    -0.13270457436235D+03

 The electronic state is 1-A.
 Alpha  occ. eigenvalues --  -14.84673 -10.68404 -10.66572  -1.03975  -0.88645
 Alpha  occ. eigenvalues --   -0.60513  -0.53053  -0.51819  -0.45085  -0.38692
 Alpha  occ. eigenvalues --   -0.38391
 Alpha virt. eigenvalues --    0.03375   0.06259   0.06722   0.09839   0.11702
 Alpha virt. eigenvalues --    0.11739   0.15581   0.16008   0.17124   0.19948
 Alpha virt. eigenvalues --    0.20239   0.26372   0.31251   0.33994   0.34442

 Mulliken charges:
               1
     1  C   -0.094723
     2  C    0.011412
     3  N   -0.207889
     4  H    0.088500
     5  H    0.103367
     6  H    0.099333
 Sum of Mulliken charges =   0.00000

 Dipole moment (field-independent basis, Debye):
    X=              4.0663    Y=             -0.0070    Z=              0.0102  Tot=              4.0663
 Quadrupole moment (field-independent basis, Debye-Ang):
   XX=            -21.0087   YY=            -17.7691   ZZ=            -17.9780
   XY=             -0.2544   XZ=              0.0406   YZ=              0.0230

 Normal termination of Gaussian 09 at Wed Aug 26 22:17:27 2020.
