 Gaussian 09, Revision D.01,
 Gaussian 09:  ES64L-G09RevD.01 24-Apr-2013

 --------------------
 #p B2PLYPD3/Def2QZVP
 --------------------

 ------------
 cyanomethane
 ------------
 Symbolic Z-matrix:
 Charge =  0 Multiplicity = 1

                         Standard orientation:
 ---------------------------------------------------------------------
 Center     Atomic      Atomic             Coordinates (Angstroms)
 Number     Number       Type             X           Y           Z
 ---------------------------------------------------------------------
      1          6           0        1.186823    0.021884    0.005754
      2          6           0       -0.291489   -0.068276   -0.027157
      3          7           0       -1.410657    0.034440    0.021377
      4          1           0        1.597555   -0.292486    0.951571
      5          1           0        1.483693    1.017059   -0.238984
      6          1           0        1.421346   -0.687304   -0.733806
 ---------------------------------------------------------------------

 SCF Done:  E(RB2PLYPD3) =  -132.529841192     A.U. after   12 cycles
 E2(B2PLYPD3) =    -0.1779527714D+00 E(B2PLYPD3) =    -0.13270779396347D+03

 The electronic state is 1-A.
 Alpha  occ. eigenvalues --  -14.83200 -10.66508 -10.65192  -1.05196  -0.89451
 Alpha  occ. eigenvalues --   -0.58649  -0.55156  -0.53984  -0.44504  -0.39918
 Alpha  occ. eigenvalues --   -0.39679
 Alpha virt. eigenvalues --    0.03764   0.08476   0.09388   0.10193   0.11539
 Alpha virt. eigenvalues --    0.11638   0.15127   0.15422   0.17333   0.19884
 Alpha virt. eigenvalues --    0.20031   0.25400   0.33234   0.34672   0.35301

 Mulliken charges:
               1
     1  C   -0.099210
     2  C   -0.009898
     3  N   -0.190854
     4  H    0.096507
     5  H    0.103744
     6  H    0.099710
 Sum of Mulliken charges =   0.00000

 Dipole moment (field-independent basis, Debye):
    X=              4.0442    Y=             -0.0724    Z=             -0.0423  Tot=              4.0450
 Quadrupole moment (field-independent basis, Debye-Ang):
   XX=            -21.1823   YY=            -17.4637   ZZ=            -17.6500
   XY=              0.1747   XZ=              0.2458   YZ=             -0.0094

 Normal termination of Gaussian 09 at Wed Aug 26 22:38:43 2020.
