 Gaussian 09, Revision D.01,
 Gaussian 09:  ES64L-G09RevD.01 24-Apr-2013

 --------------------
 #p B2PLYPD3/Def2QZVP
 --------------------

 ------------
 cyanomethane
 ------------
 Symbolic Z-matrix:
 Charge =  0 Multiplicity = 1

                         Standard orientation:
 ---------------------------------------------------------------------
 Center     Atomic      Atomic             Coordinates (Angstroms)
 Number     Number       Type             X           Y           Z
 ---------------------------------------------------------------------
      1          6           0        1.170232   -0.021165    0.002382
      2          6           0       -0.285606    0.038746    0.040523
      3          7           0       -1.443845   -0.008586   -0.017977
      4          1           0        1.710474    0.996931   -0.288228
      5          1           0        1.469752   -0.740261   -0.740421
      6          1           0        1.618933   -0.302054    0.897056
 ---------------------------------------------------------------------

 SCF Done:  E(RB2PLYPD3) =  -132.526065532     A.U. after   12 cycles
 E2(B2PLYPD3) =    -0.1814023226D+00 E(B2PLYPD3) =    -0.13270746785425D+03

 The electronic state is 1-A.
 Alpha  occ. eigenvalues --  -14.84625 -10.67416 -10.66730  -1.04055  -0.88972
 Alpha  occ. eigenvalues --   -0.60843  -0.54235  -0.51774  -0.45054  -0.39147
 Alpha  occ. eigenvalues --   -0.38864
 Alpha virt. eigenvalues --    0.03506   0.06733   0.07973   0.10187   0.11356
 Alpha virt. eigenvalues --    0.11648   0.15371   0.16556   0.16981   0.20039
 Alpha virt. eigenvalues --    0.20125   0.25533   0.31707   0.34183   0.35065

 Mulliken charges:
               1
     1  C   -0.073373
     2  C    0.007550
     3  N   -0.207260
     4  H    0.083081
     5  H    0.096519
     6  H    0.093483
 Sum of Mulliken charges =   0.00000

 Dipole moment (field-independent basis, Debye):
    X=              4.1324    Y=             -0.0427    Z=              0.0368  Tot=              4.1328
 Quadrupole moment (field-independent basis, Debye-Ang):
   XX=            -20.6837   YY=            -17.8704   ZZ=            -17.9461
   XY=             -0.0036   XZ=             -0.0123   YZ=              0.0337

 Normal termination of Gaussian 09 at Wed Aug 26 21:10:28 2020.
