 Gaussian 09, Revision D.01,
 Gaussian 09:  ES64L-G09RevD.01 24-Apr-2013

 --------------------
 #p B2PLYPD3/Def2QZVP
 --------------------

 ------------
 cyanomethane
 ------------
 Symbolic Z-matrix:
 Charge =  0 Multiplicity = 1

                         Standard orientation:
 ---------------------------------------------------------------------
 Center     Atomic      Atomic             Coordinates (Angstroms)
 Number     Number       Type             X           Y           Z
 ---------------------------------------------------------------------
      1          6           0       -1.179992   -0.001000   -0.003531
      2          6           0        0.278095   -0.006230   -0.013982
      3          7           0        1.435123    0.005996    0.008433
      4          1           0       -1.549630   -0.151478    1.005285
      5          1           0       -1.510669   -0.802631   -0.607428
      6          1           0       -1.574185    0.955520   -0.351808
 ---------------------------------------------------------------------

 SCF Done:  E(RB2PLYPD3) =  -132.534763110     A.U. after   11 cycles
 E2(B2PLYPD3) =    -0.1805571597D+00 E(B2PLYPD3) =    -0.13271532026949D+03

 The electronic state is 1-A.
 Alpha  occ. eigenvalues --  -14.84250 -10.66786 -10.66311  -1.03994  -0.89512
 Alpha  occ. eigenvalues --   -0.59778  -0.54850  -0.53607  -0.44777  -0.39077
 Alpha  occ. eigenvalues --   -0.38948
 Alpha virt. eigenvalues --    0.03800   0.07770   0.08288   0.10181   0.11272
 Alpha virt. eigenvalues --    0.11511   0.15409   0.16096   0.16529   0.20066
 Alpha virt. eigenvalues --    0.20151   0.25329   0.32766   0.34539   0.35078

 Mulliken charges:
               1
     1  C   -0.080457
     2  C   -0.001717
     3  N   -0.207916
     4  H    0.094372
     5  H    0.099259
     6  H    0.096460
 Sum of Mulliken charges =   0.00000

 Dipole moment (field-independent basis, Debye):
    X=             -4.1360    Y=             -0.0163    Z=              0.0004  Tot=              4.1360
 Quadrupole moment (field-independent basis, Debye-Ang):
   XX=            -20.9869   YY=            -17.6747   ZZ=            -17.8086
   XY=             -0.0609   XZ=             -0.0912   YZ=              0.0309

 Normal termination of Gaussian 09 at Wed Aug 26 10:10:42 2020.
