 Gaussian 09, Revision D.01,
 Gaussian 09:  ES64L-G09RevD.01 24-Apr-2013

 --------------------
 #p B2PLYPD3/Def2QZVP
 --------------------

 ------------
 cyanomethane
 ------------
 Symbolic Z-matrix:
 Charge =  0 Multiplicity = 1

                         Standard orientation:
 ---------------------------------------------------------------------
 Center     Atomic      Atomic             Coordinates (Angstroms)
 Number     Number       Type             X           Y           Z
 ---------------------------------------------------------------------
      1          6           0        1.147106    0.012514   -0.032993
      2          6           0       -0.271013    0.046620   -0.024858
      3          7           0       -1.421152   -0.030274    0.027500
      4          1           0        1.724477   -0.318888    0.982965
      5          1           0        1.470511    0.960185   -0.183945
      6          1           0        1.496524   -0.784177   -0.644415
 ---------------------------------------------------------------------

 SCF Done:  E(RB2PLYPD3) =  -132.514512112     A.U. after   12 cycles
 E2(B2PLYPD3) =    -0.1810640672D+00 E(B2PLYPD3) =    -0.13269557617942D+03

 The electronic state is 1-A.
 Alpha  occ. eigenvalues --  -14.84275 -10.66811 -10.66138  -1.04363  -0.90052
 Alpha  occ. eigenvalues --   -0.60768  -0.57451  -0.50216  -0.44965  -0.39344
 Alpha  occ. eigenvalues --   -0.38249
 Alpha virt. eigenvalues --    0.03122   0.06362   0.08681   0.10019   0.11078
 Alpha virt. eigenvalues --    0.12313   0.15534   0.16519   0.17122   0.19839
 Alpha virt. eigenvalues --    0.20354   0.26092   0.31509   0.33841   0.36129

 Mulliken charges:
               1
     1  C   -0.076154
     2  C    0.003303
     3  N   -0.204742
     4  H    0.073336
     5  H    0.103533
     6  H    0.100724
 Sum of Mulliken charges =   0.00000

 Dipole moment (field-independent basis, Debye):
    X=              4.0979    Y=              0.0201    Z=             -0.0486  Tot=              4.0982
 Quadrupole moment (field-independent basis, Debye-Ang):
   XX=            -20.7890   YY=            -17.4453   ZZ=            -18.1943
   XY=             -0.3012   XZ=              0.3350   YZ=              0.0953

 Normal termination of Gaussian 09 at Wed Aug 26 21:52:53 2020.
