 Gaussian 09, Revision D.01,
 Gaussian 09:  ES64L-G09RevD.01 24-Apr-2013

 --------------------
 #p B2PLYPD3/Def2QZVP
 --------------------

 ------------
 cyanomethane
 ------------
 Symbolic Z-matrix:
 Charge =  0 Multiplicity = 1

                         Standard orientation:
 ---------------------------------------------------------------------
 Center     Atomic      Atomic             Coordinates (Angstroms)
 Number     Number       Type             X           Y           Z
 ---------------------------------------------------------------------
      1          6           0       -1.180137    0.012208   -0.001578
      2          6           0        0.282497    0.007425   -0.023899
      3          7           0        1.439373   -0.011245    0.014103
      4          1           0       -1.484660    1.067637   -0.042811
      5          1           0       -1.614344   -0.496132    0.936573
      6          1           0       -1.590764   -0.610590   -0.839615
 ---------------------------------------------------------------------

 SCF Done:  E(RB2PLYPD3) =  -132.529963473     A.U. after   12 cycles
 E2(B2PLYPD3) =    -0.1813115009D+00 E(B2PLYPD3) =    -0.13271127497439D+03

 The electronic state is 1-A.
 Alpha  occ. eigenvalues --  -14.84328 -10.68248 -10.66425  -1.04000  -0.88405
 Alpha  occ. eigenvalues --   -0.59251  -0.54378  -0.51817  -0.44816  -0.39068
 Alpha  occ. eigenvalues --   -0.38763
 Alpha virt. eigenvalues --    0.03489   0.06975   0.07887   0.10161   0.11246
 Alpha virt. eigenvalues --    0.11724   0.15183   0.16166   0.16516   0.19999
 Alpha virt. eigenvalues --    0.20175   0.25263   0.32283   0.33436   0.34612

 Mulliken charges:
               1
     1  C   -0.095813
     2  C    0.000960
     3  N   -0.206223
     4  H    0.106958
     5  H    0.095274
     6  H    0.098845
 Sum of Mulliken charges =   0.00000

 Dipole moment (field-independent basis, Debye):
    X=             -4.1178    Y=             -0.0025    Z=             -0.0177  Tot=              4.1179
 Quadrupole moment (field-independent basis, Debye-Ang):
   XX=            -21.1079   YY=            -17.6180   ZZ=            -18.0003
   XY=              0.2250   XZ=             -0.1120   YZ=              0.0252

 Normal termination of Gaussian 09 at Wed Aug 26 14:17:36 2020.
