 Gaussian 09, Revision D.01,
 Gaussian 09:  ES64L-G09RevD.01 24-Apr-2013

 --------------------
 #p B2PLYPD3/Def2QZVP
 --------------------

 ------------
 cyanomethane
 ------------
 Symbolic Z-matrix:
 Charge =  0 Multiplicity = 1

                         Standard orientation:
 ---------------------------------------------------------------------
 Center     Atomic      Atomic             Coordinates (Angstroms)
 Number     Number       Type             X           Y           Z
 ---------------------------------------------------------------------
      1          6           0        1.155452   -0.014165   -0.011450
      2          6           0       -0.263971    0.035429   -0.051809
      3          7           0       -1.433920   -0.014698    0.027914
      4          1           0        1.594039    0.975426    0.001954
      5          1           0        1.552079   -0.565504   -0.689126
      6          1           0        1.542437   -0.434619    0.871331
 ---------------------------------------------------------------------

 SCF Done:  E(RB2PLYPD3) =  -132.515850698     A.U. after   11 cycles
 E2(B2PLYPD3) =    -0.1817762945D+00 E(B2PLYPD3) =    -0.13269762699215D+03

 The electronic state is 1-A.
 Alpha  occ. eigenvalues --  -14.84847 -10.66796 -10.64899  -1.03600  -0.91262
 Alpha  occ. eigenvalues --   -0.62679  -0.56242  -0.53239  -0.45078  -0.38859
 Alpha  occ. eigenvalues --   -0.38417
 Alpha virt. eigenvalues --    0.03812   0.07222   0.08274   0.10012   0.11072
 Alpha virt. eigenvalues --    0.11746   0.15848   0.16619   0.16900   0.20094
 Alpha virt. eigenvalues --    0.20290   0.26170   0.33117   0.34725   0.35914

 Mulliken charges:
               1
     1  C   -0.046557
     2  C    0.011838
     3  N   -0.215697
     4  H    0.083297
     5  H    0.090433
     6  H    0.076685
 Sum of Mulliken charges =   0.00000

 Dipole moment (field-independent basis, Debye):
    X=              4.1696    Y=             -0.0177    Z=              0.0013  Tot=              4.1696
 Quadrupole moment (field-independent basis, Debye-Ang):
   XX=            -20.5030   YY=            -17.6777   ZZ=            -17.9496
   XY=             -0.1265   XZ=              0.2367   YZ=              0.1016

 Normal termination of Gaussian 09 at Wed Aug 26 22:33:44 2020.
