 Gaussian 09, Revision D.01,
 Gaussian 09:  ES64L-G09RevD.01 24-Apr-2013

 --------------------
 #p B2PLYPD3/Def2QZVP
 --------------------

 ------------
 cyanomethane
 ------------
 Symbolic Z-matrix:
 Charge =  0 Multiplicity = 1

                         Standard orientation:
 ---------------------------------------------------------------------
 Center     Atomic      Atomic             Coordinates (Angstroms)
 Number     Number       Type             X           Y           Z
 ---------------------------------------------------------------------
      1          6           0        1.181227   -0.009318    0.001769
      2          6           0       -0.274195    0.022535    0.005514
      3          7           0       -1.440930   -0.009283   -0.001719
      4          1           0        1.562583   -0.192160    0.989962
      5          1           0        1.561221    0.966604   -0.351127
      6          1           0        1.520514   -0.788768   -0.670506
 ---------------------------------------------------------------------

 SCF Done:  E(RB2PLYPD3) =  -132.534070210     A.U. after   11 cycles
 E2(B2PLYPD3) =    -0.1815497841D+00 E(B2PLYPD3) =    -0.13271561999431D+03

 The electronic state is 1-A.
 Alpha  occ. eigenvalues --  -14.84539 -10.67124 -10.66617  -1.03613  -0.89335
 Alpha  occ. eigenvalues --   -0.59788  -0.54306  -0.53759  -0.44823  -0.38793
 Alpha  occ. eigenvalues --   -0.38706
 Alpha virt. eigenvalues --    0.03745   0.07645   0.07747   0.10147   0.11293
 Alpha virt. eigenvalues --    0.11347   0.15371   0.16076   0.16385   0.20141
 Alpha virt. eigenvalues --    0.20152   0.25388   0.32557   0.34400   0.34836

 Mulliken charges:
               1
     1  C   -0.083625
     2  C    0.000660
     3  N   -0.212204
     4  H    0.098891
     5  H    0.096133
     6  H    0.100145
 Sum of Mulliken charges =   0.00000

 Dipole moment (field-independent basis, Debye):
    X=              4.1458    Y=              0.0075    Z=              0.0036  Tot=              4.1458
 Quadrupole moment (field-independent basis, Debye-Ang):
   XX=            -21.0338   YY=            -17.7747   ZZ=            -17.7901
   XY=             -0.0309   XZ=              0.0183   YZ=              0.0128

 Normal termination of Gaussian 09 at Thu Aug 27 00:14:02 2020.
