 Gaussian 09, Revision D.01,
 Gaussian 09:  ES64L-G09RevD.01 24-Apr-2013

 --------------------
 #p B2PLYPD3/Def2QZVP
 --------------------

 ------------
 cyanomethane
 ------------
 Symbolic Z-matrix:
 Charge =  0 Multiplicity = 1

                         Standard orientation:
 ---------------------------------------------------------------------
 Center     Atomic      Atomic             Coordinates (Angstroms)
 Number     Number       Type             X           Y           Z
 ---------------------------------------------------------------------
      1          6           0       -1.195041   -0.000535   -0.005527
      2          6           0        0.276769   -0.022100   -0.028472
      3          7           0        1.439565    0.013507    0.014642
      4          1           0       -1.517031   -0.526772   -0.853878
      5          1           0       -1.548430    1.058240    0.008630
      6          1           0       -1.501861   -0.490211    0.946753
 ---------------------------------------------------------------------

 SCF Done:  E(RB2PLYPD3) =  -132.531511371     A.U. after   12 cycles
 E2(B2PLYPD3) =    -0.1813839968D+00 E(B2PLYPD3) =    -0.13271289536820D+03

 The electronic state is 1-A.
 Alpha  occ. eigenvalues --  -14.84350 -10.67474 -10.66456  -1.03624  -0.89092
 Alpha  occ. eigenvalues --   -0.58705  -0.55188  -0.53273  -0.44657  -0.38905
 Alpha  occ. eigenvalues --   -0.38684
 Alpha virt. eigenvalues --    0.03624   0.07513   0.08398   0.10167   0.11023
 Alpha virt. eigenvalues --    0.11440   0.15167   0.15697   0.16184   0.20075
 Alpha virt. eigenvalues --    0.20191   0.25067   0.32418   0.33817   0.34905

 Mulliken charges:
               1
     1  C   -0.098390
     2  C   -0.002045
     3  N   -0.211502
     4  H    0.107199
     5  H    0.102238
     6  H    0.102499
 Sum of Mulliken charges =   0.00000

 Dipole moment (field-independent basis, Debye):
    X=             -4.1277    Y=             -0.0186    Z=             -0.0126  Tot=              4.1277
 Quadrupole moment (field-independent basis, Debye-Ang):
   XX=            -21.2806   YY=            -17.7409   ZZ=            -17.7010
   XY=             -0.1041   XZ=             -0.0783   YZ=              0.0489

 Normal termination of Gaussian 09 at Wed Aug 26 15:09:31 2020.
