 Gaussian 09, Revision D.01,
 Gaussian 09:  ES64L-G09RevD.01 24-Apr-2013

 --------------------
 #p B2PLYPD3/Def2QZVP
 --------------------

 ------------
 cyanomethane
 ------------
 Symbolic Z-matrix:
 Charge =  0 Multiplicity = 1

                         Standard orientation:
 ---------------------------------------------------------------------
 Center     Atomic      Atomic             Coordinates (Angstroms)
 Number     Number       Type             X           Y           Z
 ---------------------------------------------------------------------
      1          6           0       -1.175248    0.010732    0.004972
      2          6           0        0.271972   -0.043395    0.004969
      3          7           0        1.448611    0.023212   -0.004110
      4          1           0       -1.555775   -0.194260    0.973041
      5          1           0       -1.564821   -0.758165   -0.676827
      6          1           0       -1.600030    0.985919   -0.327088
 ---------------------------------------------------------------------

 SCF Done:  E(RB2PLYPD3) =  -132.530452735     A.U. after   12 cycles
 E2(B2PLYPD3) =    -0.1827394359D+00 E(B2PLYPD3) =    -0.13271319217114D+03

 The electronic state is 1-A.
 Alpha  occ. eigenvalues --  -14.84990 -10.67146 -10.67050  -1.03272  -0.89356
 Alpha  occ. eigenvalues --   -0.60535  -0.54150  -0.53195  -0.45008  -0.38571
 Alpha  occ. eigenvalues --   -0.38458
 Alpha virt. eigenvalues --    0.03609   0.06907   0.07621   0.10046   0.11185
 Alpha virt. eigenvalues --    0.11389   0.15481   0.15934   0.16910   0.20163
 Alpha virt. eigenvalues --    0.20239   0.25646   0.32549   0.34258   0.34800

 Mulliken charges:
               1
     1  C   -0.073704
     2  C    0.005130
     3  N   -0.215705
     4  H    0.096494
     5  H    0.092763
     6  H    0.095022
 Sum of Mulliken charges =   0.00000

 Dipole moment (field-independent basis, Debye):
    X=             -4.1630    Y=             -0.0390    Z=              0.0139  Tot=              4.1632
 Quadrupole moment (field-independent basis, Debye-Ang):
   XX=            -20.8500   YY=            -17.8632   ZZ=            -17.8959
   XY=             -0.1245   XZ=              0.0201   YZ=             -0.0081

 Normal termination of Gaussian 09 at Wed Aug 26 13:59:15 2020.
