 Gaussian 09, Revision D.01,
 Gaussian 09:  ES64L-G09RevD.01 24-Apr-2013

 --------------------
 #p B2PLYPD3/Def2QZVP
 --------------------

 ------------
 cyanomethane
 ------------
 Symbolic Z-matrix:
 Charge =  0 Multiplicity = 1

                         Standard orientation:
 ---------------------------------------------------------------------
 Center     Atomic      Atomic             Coordinates (Angstroms)
 Number     Number       Type             X           Y           Z
 ---------------------------------------------------------------------
      1          6           0       -1.183692   -0.037063   -0.015690
      2          6           0        0.285127    0.073547    0.014584
      3          7           0        1.409223   -0.035434   -0.007658
      4          1           0       -1.470609   -0.004299    0.964560
      5          1           0       -1.503658   -0.901361   -0.456212
      6          1           0       -1.498899    0.934795   -0.448108
 ---------------------------------------------------------------------

 SCF Done:  E(RB2PLYPD3) =  -132.525061420     A.U. after   12 cycles
 E2(B2PLYPD3) =    -0.1781983401D+00 E(B2PLYPD3) =    -0.13270325975993D+03

 The electronic state is 1-A.
 Alpha  occ. eigenvalues --  -14.83300 -10.66003 -10.65265  -1.05017  -0.90028
 Alpha  occ. eigenvalues --   -0.59241  -0.56075  -0.53724  -0.44515  -0.39854
 Alpha  occ. eigenvalues --   -0.39455
 Alpha virt. eigenvalues --    0.03836   0.08603   0.09263   0.10052   0.11417
 Alpha virt. eigenvalues --    0.11838   0.15027   0.15617   0.17164   0.19859
 Alpha virt. eigenvalues --    0.20135   0.25614   0.32863   0.34394   0.35845

 Mulliken charges:
               1
     1  C   -0.091082
     2  C   -0.007774
     3  N   -0.195613
     4  H    0.094841
     5  H    0.104903
     6  H    0.094725
 Sum of Mulliken charges =   0.00000

 Dipole moment (field-independent basis, Debye):
    X=             -4.0490    Y=              0.0619    Z=              0.0754  Tot=              4.0502
 Quadrupole moment (field-independent basis, Debye-Ang):
   XX=            -21.1900   YY=            -17.2843   ZZ=            -17.7895
   XY=              0.1992   XZ=             -0.0835   YZ=              0.0660

 Normal termination of Gaussian 09 at Wed Aug 26 18:37:42 2020.
