 Gaussian 09, Revision D.01,
 Gaussian 09:  ES64L-G09RevD.01 24-Apr-2013

 --------------------
 #p B2PLYPD3/Def2QZVP
 --------------------

 ------------
 cyanomethane
 ------------
 Symbolic Z-matrix:
 Charge =  0 Multiplicity = 1

                         Standard orientation:
 ---------------------------------------------------------------------
 Center     Atomic      Atomic             Coordinates (Angstroms)
 Number     Number       Type             X           Y           Z
 ---------------------------------------------------------------------
      1          6           0        1.171631    0.005465   -0.003639
      2          6           0       -0.282004   -0.024332   -0.004081
      3          7           0       -1.429360    0.010029    0.004335
      4          1           0        1.582225   -0.061341    1.028039
      5          1           0        1.518423    0.938466   -0.441114
      6          1           0        1.567105   -0.834132   -0.570953
 ---------------------------------------------------------------------

 SCF Done:  E(RB2PLYPD3) =  -132.535648016     A.U. after   11 cycles
 E2(B2PLYPD3) =    -0.1799872284D+00 E(B2PLYPD3) =    -0.13271563524471D+03

 The electronic state is 1-A.
 Alpha  occ. eigenvalues --  -14.84023 -10.67238 -10.66062  -1.04406  -0.89086
 Alpha  occ. eigenvalues --   -0.59772  -0.54100  -0.53291  -0.44794  -0.39244
 Alpha  occ. eigenvalues --   -0.39158
 Alpha virt. eigenvalues --    0.03728   0.07748   0.08074   0.10181   0.11513
 Alpha virt. eigenvalues --    0.11647   0.15450   0.16322   0.16557   0.20026
 Alpha virt. eigenvalues --    0.20085   0.25457   0.32795   0.34390   0.34766

 Mulliken charges:
               1
     1  C   -0.084457
     2  C   -0.001815
     3  N   -0.202375
     4  H    0.093978
     5  H    0.098475
     6  H    0.096195
 Sum of Mulliken charges =   0.00000

 Dipole moment (field-independent basis, Debye):
    X=              4.1125    Y=             -0.0115    Z=             -0.0086  Tot=              4.1125
 Quadrupole moment (field-independent basis, Debye-Ang):
   XX=            -20.9714   YY=            -17.7158   ZZ=            -17.7759
   XY=              0.0257   XZ=              0.0530   YZ=             -0.0013

 Normal termination of Gaussian 09 at Wed Aug 26 16:11:21 2020.
