 Gaussian 09, Revision D.01,
 Gaussian 09:  ES64L-G09RevD.01 24-Apr-2013

 --------------------
 #p B2PLYPD3/Def2QZVP
 --------------------

 ------------
 cyanomethane
 ------------
 Symbolic Z-matrix:
 Charge =  0 Multiplicity = 1

                         Standard orientation:
 ---------------------------------------------------------------------
 Center     Atomic      Atomic             Coordinates (Angstroms)
 Number     Number       Type             X           Y           Z
 ---------------------------------------------------------------------
      1          6           0       -1.174333   -0.005338   -0.008442
      2          6           0        0.274646    0.013556    0.013567
      3          7           0        1.430217   -0.008783   -0.007552
      4          1           0       -1.520955   -0.049820    1.010205
      5          1           0       -1.573400   -0.853100   -0.538792
      6          1           0       -1.519043    0.915090   -0.449303
 ---------------------------------------------------------------------

 SCF Done:  E(RB2PLYPD3) =  -132.535145189     A.U. after   12 cycles
 E2(B2PLYPD3) =    -0.1804344392D+00 E(B2PLYPD3) =    -0.13271557962828D+03

 The electronic state is 1-A.
 Alpha  occ. eigenvalues --  -14.84178 -10.66664 -10.66208  -1.04058  -0.89683
 Alpha  occ. eigenvalues --   -0.59895  -0.54506  -0.54115  -0.44766  -0.39045
 Alpha  occ. eigenvalues --   -0.38937
 Alpha virt. eigenvalues --    0.03822   0.07869   0.08203   0.10150   0.11410
 Alpha virt. eigenvalues --    0.11500   0.15486   0.15862   0.16730   0.20104
 Alpha virt. eigenvalues --    0.20132   0.25520   0.32925   0.34568   0.35016

 Mulliken charges:
               1
     1  C   -0.081064
     2  C   -0.001433
     3  N   -0.207788
     4  H    0.095043
     5  H    0.097762
     6  H    0.097480
 Sum of Mulliken charges =   0.00000

 Dipole moment (field-independent basis, Debye):
    X=             -4.1283    Y=              0.0155    Z=              0.0240  Tot=              4.1284
 Quadrupole moment (field-independent basis, Debye-Ang):
   XX=            -21.0061   YY=            -17.6726   ZZ=            -17.7692
   XY=              0.0798   XZ=              0.0311   YZ=              0.0000

 Normal termination of Gaussian 09 at Wed Aug 26 23:48:49 2020.
