 Gaussian 09, Revision D.01,
 Gaussian 09:  ES64L-G09RevD.01 24-Apr-2013

 --------------------
 #p B2PLYPD3/Def2QZVP
 --------------------

 ------------
 cyanomethane
 ------------
 Symbolic Z-matrix:
 Charge =  0 Multiplicity = 1

                         Standard orientation:
 ---------------------------------------------------------------------
 Center     Atomic      Atomic             Coordinates (Angstroms)
 Number     Number       Type             X           Y           Z
 ---------------------------------------------------------------------
      1          6           0        1.153368   -0.026323   -0.011723
      2          6           0       -0.293286    0.054165   -0.002957
      3          7           0       -1.419863   -0.017511    0.005987
      4          1           0        1.497474   -0.601725   -0.827146
      5          1           0        1.580766   -0.476810    0.927234
      6          1           0        1.700313    1.034059   -0.053920
 ---------------------------------------------------------------------

 SCF Done:  E(RB2PLYPD3) =  -132.526736620     A.U. after   12 cycles
 E2(B2PLYPD3) =    -0.1790054490D+00 E(B2PLYPD3) =    -0.13270574206922D+03

 The electronic state is 1-A.
 Alpha  occ. eigenvalues --  -14.83670 -10.67898 -10.65664  -1.05336  -0.88469
 Alpha  occ. eigenvalues --   -0.60173  -0.54018  -0.51278  -0.44911  -0.39859
 Alpha  occ. eigenvalues --   -0.39390
 Alpha virt. eigenvalues --    0.03552   0.06977   0.08145   0.10155   0.11774
 Alpha virt. eigenvalues --    0.12125   0.15550   0.16732   0.17062   0.19871
 Alpha virt. eigenvalues --    0.19998   0.25752   0.31789   0.33921   0.35237

 Mulliken charges:
               1
     1  C   -0.085906
     2  C    0.000386
     3  N   -0.189730
     4  H    0.101314
     5  H    0.091263
     6  H    0.082673
 Sum of Mulliken charges =   0.00000

 Dipole moment (field-independent basis, Debye):
    X=              4.0566    Y=             -0.0119    Z=             -0.0030  Tot=              4.0566
 Quadrupole moment (field-independent basis, Debye-Ang):
   XX=            -20.7935   YY=            -17.8062   ZZ=            -17.7923
   XY=             -0.0627   XZ=              0.1128   YZ=              0.0855

 Normal termination of Gaussian 09 at Wed Aug 26 18:10:17 2020.
