 Gaussian 09, Revision D.01,
 Gaussian 09:  ES64L-G09RevD.01 24-Apr-2013

 --------------------
 #p B2PLYPD3/Def2QZVP
 --------------------

 ------------
 cyanomethane
 ------------
 Symbolic Z-matrix:
 Charge =  0 Multiplicity = 1

                         Standard orientation:
 ---------------------------------------------------------------------
 Center     Atomic      Atomic             Coordinates (Angstroms)
 Number     Number       Type             X           Y           Z
 ---------------------------------------------------------------------
      1          6           0       -1.165955    0.002755    0.009128
      2          6           0        0.275736    0.017149   -0.000892
      3          7           0        1.432221   -0.011441   -0.003092
      4          1           0       -1.606382   -0.722373   -0.743043
      5          1           0       -1.541780    0.983828   -0.250588
      6          1           0       -1.536074   -0.300794    0.965862
 ---------------------------------------------------------------------

 SCF Done:  E(RB2PLYPD3) =  -132.533507031     A.U. after   12 cycles
 E2(B2PLYPD3) =    -0.1807905996D+00 E(B2PLYPD3) =    -0.13271429763108D+03

 The electronic state is 1-A.
 Alpha  occ. eigenvalues --  -14.84302 -10.67115 -10.66317  -1.04100  -0.89362
 Alpha  occ. eigenvalues --   -0.60249  -0.54608  -0.52792  -0.44877  -0.39057
 Alpha  occ. eigenvalues --   -0.38837
 Alpha virt. eigenvalues --    0.03696   0.07308   0.08009   0.10133   0.11393
 Alpha virt. eigenvalues --    0.11689   0.15529   0.16289   0.16654   0.20055
 Alpha virt. eigenvalues --    0.20157   0.25645   0.32735   0.34114   0.35028

 Mulliken charges:
               1
     1  C   -0.079167
     2  C    0.000742
     3  N   -0.206811
     4  H    0.090456
     5  H    0.096746
     6  H    0.098035
 Sum of Mulliken charges =   0.00000

 Dipole moment (field-independent basis, Debye):
    X=             -4.1272    Y=              0.0170    Z=              0.0113  Tot=              4.1272
 Quadrupole moment (field-independent basis, Debye-Ang):
   XX=            -20.9118   YY=            -17.7692   ZZ=            -17.8031
   XY=              0.1026   XZ=              0.0503   YZ=             -0.0630

 Normal termination of Gaussian 09 at Wed Aug 26 09:30:43 2020.
