 Gaussian 09, Revision D.01,
 Gaussian 09:  ES64L-G09RevD.01 24-Apr-2013

 --------------------
 #p B2PLYPD3/Def2QZVP
 --------------------

 ------------
 cyanomethane
 ------------
 Symbolic Z-matrix:
 Charge =  0 Multiplicity = 1

                         Standard orientation:
 ---------------------------------------------------------------------
 Center     Atomic      Atomic             Coordinates (Angstroms)
 Number     Number       Type             X           Y           Z
 ---------------------------------------------------------------------
      1          6           0       -1.160845    0.008876    0.014365
      2          6           0        0.287217    0.007042   -0.045602
      3          7           0        1.423568   -0.014239    0.015285
      4          1           0       -1.464583    1.069376   -0.084729
      5          1           0       -1.526855   -0.424204    0.918622
      6          1           0       -1.731773   -0.641004   -0.753468
 ---------------------------------------------------------------------

 SCF Done:  E(RB2PLYPD3) =  -132.528866851     A.U. after   12 cycles
 E2(B2PLYPD3) =    -0.1795939440D+00 E(B2PLYPD3) =    -0.13270846079467D+03

 The electronic state is 1-A.
 Alpha  occ. eigenvalues --  -14.83831 -10.67558 -10.65869  -1.04888  -0.88846
 Alpha  occ. eigenvalues --   -0.60334  -0.54313  -0.51669  -0.44850  -0.39523
 Alpha  occ. eigenvalues --   -0.39219
 Alpha virt. eigenvalues --    0.03635   0.07150   0.08182   0.10208   0.11583
 Alpha virt. eigenvalues --    0.12044   0.15338   0.16462   0.17074   0.19890
 Alpha virt. eigenvalues --    0.20130   0.25670   0.32239   0.34299   0.34808

 Mulliken charges:
               1
     1  C   -0.085171
     2  C    0.001368
     3  N   -0.196883
     4  H    0.098872
     5  H    0.096366
     6  H    0.085449
 Sum of Mulliken charges =   0.00000

 Dipole moment (field-independent basis, Debye):
    X=             -4.0902    Y=             -0.0024    Z=              0.0185  Tot=              4.0902
 Quadrupole moment (field-independent basis, Debye-Ang):
   XX=            -20.8390   YY=            -17.5477   ZZ=            -18.0343
   XY=              0.3124   XZ=             -0.0747   YZ=             -0.0785

 Normal termination of Gaussian 09 at Wed Aug 26 21:51:57 2020.
