 Gaussian 09, Revision D.01,
 Gaussian 09:  ES64L-G09RevD.01 24-Apr-2013

 --------------------
 #p B2PLYPD3/Def2QZVP
 --------------------

 ------------
 cyanomethane
 ------------
 Symbolic Z-matrix:
 Charge =  0 Multiplicity = 1

                         Standard orientation:
 ---------------------------------------------------------------------
 Center     Atomic      Atomic             Coordinates (Angstroms)
 Number     Number       Type             X           Y           Z
 ---------------------------------------------------------------------
      1          6           0       -1.172151    0.022167    0.013004
      2          6           0        0.292083    0.030741   -0.040901
      3          7           0        1.435244   -0.024976    0.017323
      4          1           0       -1.513778    1.057016   -0.007581
      5          1           0       -1.588868   -0.571571    0.895387
      6          1           0       -1.663656   -0.628065   -0.841686
 ---------------------------------------------------------------------

 SCF Done:  E(RB2PLYPD3) =  -132.524821191     A.U. after   12 cycles
 E2(B2PLYPD3) =    -0.1807063219D+00 E(B2PLYPD3) =    -0.13270552751260D+03

 The electronic state is 1-A.
 Alpha  occ. eigenvalues --  -14.84129 -10.68573 -10.66207  -1.04556  -0.87982
 Alpha  occ. eigenvalues --   -0.59492  -0.54548  -0.50459  -0.44898  -0.39526
 Alpha  occ. eigenvalues --   -0.38845
 Alpha virt. eigenvalues --    0.03350   0.06607   0.07984   0.10132   0.11196
 Alpha virt. eigenvalues --    0.12124   0.15202   0.16545   0.16845   0.19811
 Alpha virt. eigenvalues --    0.20190   0.25374   0.31904   0.33222   0.34843

 Mulliken charges:
               1
     1  C   -0.091236
     2  C    0.001397
     3  N   -0.198666
     4  H    0.106522
     5  H    0.094765
     6  H    0.087218
 Sum of Mulliken charges =   0.00000

 Dipole moment (field-independent basis, Debye):
    X=             -4.0937    Y=             -0.0042    Z=             -0.0071  Tot=              4.0937
 Quadrupole moment (field-independent basis, Debye-Ang):
   XX=            -20.9590   YY=            -17.5040   ZZ=            -18.1952
   XY=              0.3672   XZ=             -0.0978   YZ=             -0.0345

 Normal termination of Gaussian 09 at Wed Aug 26 20:28:53 2020.
