 Gaussian 09, Revision D.01,
 Gaussian 09:  ES64L-G09RevD.01 24-Apr-2013

 --------------------
 #p B2PLYPD3/Def2QZVP
 --------------------

 ------------
 cyanomethane
 ------------
 Symbolic Z-matrix:
 Charge =  0 Multiplicity = 1

                         Standard orientation:
 ---------------------------------------------------------------------
 Center     Atomic      Atomic             Coordinates (Angstroms)
 Number     Number       Type             X           Y           Z
 ---------------------------------------------------------------------
      1          6           0       -1.185358    0.011401    0.002194
      2          6           0        0.275767   -0.016994    0.010605
      3          7           0        1.440754    0.001700   -0.009700
      4          1           0       -1.498980   -0.110024    1.025856
      5          1           0       -1.638119   -0.836790   -0.618218
      6          1           0       -1.490629    0.968471   -0.416537
 ---------------------------------------------------------------------

 SCF Done:  E(RB2PLYPD3) =  -132.531604307     A.U. after   12 cycles
 E2(B2PLYPD3) =    -0.1816169814D+00 E(B2PLYPD3) =    -0.13271322128796D+03

 The electronic state is 1-A.
 Alpha  occ. eigenvalues --  -14.84454 -10.67654 -10.66556  -1.03652  -0.88997
 Alpha  occ. eigenvalues --   -0.59158  -0.54749  -0.52903  -0.44761  -0.38818
 Alpha  occ. eigenvalues --   -0.38683
 Alpha virt. eigenvalues --    0.03628   0.07203   0.08067   0.10173   0.11234
 Alpha virt. eigenvalues --    0.11444   0.15228   0.15772   0.16476   0.20117
 Alpha virt. eigenvalues --    0.20163   0.25259   0.32205   0.34103   0.34682

 Mulliken charges:
               1
     1  C   -0.094642
     2  C    0.000101
     3  N   -0.211337
     4  H    0.103878
     5  H    0.096421
     6  H    0.105580
 Sum of Mulliken charges =   0.00000

 Dipole moment (field-independent basis, Debye):
    X=             -4.1340    Y=              0.0064    Z=              0.0254  Tot=              4.1341
 Quadrupole moment (field-independent basis, Debye-Ang):
   XX=            -21.1614   YY=            -17.7644   ZZ=            -17.7847
   XY=              0.0838   XZ=              0.0936   YZ=             -0.0576

 Normal termination of Gaussian 09 at Wed Aug 26 13:43:05 2020.
