 Gaussian 09, Revision D.01,
 Gaussian 09:  ES64L-G09RevD.01 24-Apr-2013

 --------------------
 #p B2PLYPD3/Def2QZVP
 --------------------

 ------------
 cyanomethane
 ------------
 Symbolic Z-matrix:
 Charge =  0 Multiplicity = 1

                         Standard orientation:
 ---------------------------------------------------------------------
 Center     Atomic      Atomic             Coordinates (Angstroms)
 Number     Number       Type             X           Y           Z
 ---------------------------------------------------------------------
      1          6           0        1.168181   -0.003625   -0.014816
      2          6           0       -0.280764   -0.035893    0.011547
      3          7           0       -1.423726    0.022408   -0.007908
      4          1           0        1.602081    0.996854   -0.280394
      5          1           0        1.548385   -0.733693   -0.631675
      6          1           0        1.491113   -0.182910    0.987036
 ---------------------------------------------------------------------

 SCF Done:  E(RB2PLYPD3) =  -132.531696225     A.U. after   12 cycles
 E2(B2PLYPD3) =    -0.1795167804D+00 E(B2PLYPD3) =    -0.13271121300587D+03

 The electronic state is 1-A.
 Alpha  occ. eigenvalues --  -14.83916 -10.66443 -10.65916  -1.04557  -0.89761
 Alpha  occ. eigenvalues --   -0.60173  -0.55284  -0.53085  -0.44788  -0.39467
 Alpha  occ. eigenvalues --   -0.39123
 Alpha virt. eigenvalues --    0.03729   0.07740   0.08771   0.10157   0.11373
 Alpha virt. eigenvalues --    0.11774   0.15593   0.15796   0.17246   0.20016
 Alpha virt. eigenvalues --    0.20130   0.25617   0.33078   0.34167   0.35478

 Mulliken charges:
               1
     1  C   -0.076951
     2  C   -0.001708
     3  N   -0.201544
     4  H    0.091311
     5  H    0.097518
     6  H    0.091374
 Sum of Mulliken charges =   0.00000

 Dipole moment (field-independent basis, Debye):
    X=              4.1097    Y=             -0.0459    Z=              0.0449  Tot=              4.1102
 Quadrupole moment (field-independent basis, Debye-Ang):
   XX=            -20.8762   YY=            -17.6526   ZZ=            -17.7680
   XY=              0.1558   XZ=             -0.0264   YZ=              0.0737

 Normal termination of Gaussian 09 at Wed Aug 26 10:25:44 2020.
