 Gaussian 09, Revision D.01,
 Gaussian 09:  ES64L-G09RevD.01 24-Apr-2013

 --------------------
 #p B2PLYPD3/Def2QZVP
 --------------------

 ------------
 cyanomethane
 ------------
 Symbolic Z-matrix:
 Charge =  0 Multiplicity = 1

                         Standard orientation:
 ---------------------------------------------------------------------
 Center     Atomic      Atomic             Coordinates (Angstroms)
 Number     Number       Type             X           Y           Z
 ---------------------------------------------------------------------
      1          6           0        1.169687    0.009457   -0.013953
      2          6           0       -0.295552   -0.049137    0.009874
      3          7           0       -1.450669    0.020997    0.002494
      4          1           0        1.723663   -0.094797    1.055540
      5          1           0        1.554425    1.037286   -0.417913
      6          1           0        1.631788   -0.851384   -0.630613
 ---------------------------------------------------------------------

 SCF Done:  E(RB2PLYPD3) =  -132.517791912     A.U. after   12 cycles
 E2(B2PLYPD3) =    -0.1823246583D+00 E(B2PLYPD3) =    -0.13270011657071D+03

 The electronic state is 1-A.
 Alpha  occ. eigenvalues --  -14.84670 -10.69755 -10.66826  -1.04240  -0.87060
 Alpha  occ. eigenvalues --   -0.59607  -0.52304  -0.50393  -0.45125  -0.39119
 Alpha  occ. eigenvalues --   -0.38806
 Alpha virt. eigenvalues --    0.03102   0.06031   0.06851   0.10113   0.11470
 Alpha virt. eigenvalues --    0.11864   0.15185   0.16654   0.16967   0.19947
 Alpha virt. eigenvalues --    0.20139   0.25363   0.31342   0.32890   0.33675

 Mulliken charges:
               1
     1  C   -0.097505
     2  C    0.010090
     3  N   -0.201520
     4  H    0.089495
     5  H    0.101292
     6  H    0.098148
 Sum of Mulliken charges =   0.00000

 Dipole moment (field-independent basis, Debye):
    X=              4.1047    Y=             -0.0250    Z=             -0.0083  Tot=              4.1048
 Quadrupole moment (field-independent basis, Debye-Ang):
   XX=            -20.8282   YY=            -17.8552   ZZ=            -18.1667
   XY=              0.0613   XZ=              0.1141   YZ=              0.0204

 Normal termination of Gaussian 09 at Wed Aug 26 16:37:57 2020.
