 Gaussian 09, Revision D.01,
 Gaussian 09:  ES64L-G09RevD.01 24-Apr-2013

 --------------------
 #p B2PLYPD3/Def2QZVP
 --------------------

 ------------
 cyanomethane
 ------------
 Symbolic Z-matrix:
 Charge =  0 Multiplicity = 1

                         Standard orientation:
 ---------------------------------------------------------------------
 Center     Atomic      Atomic             Coordinates (Angstroms)
 Number     Number       Type             X           Y           Z
 ---------------------------------------------------------------------
      1          6           0       -1.182661    0.001533    0.000137
      2          6           0        0.280349    0.013129   -0.008497
      3          7           0        1.437116   -0.011823    0.005859
      4          1           0       -1.480418    0.983807   -0.239666
      5          1           0       -1.585561   -0.278639    0.958191
      6          1           0       -1.579957   -0.710382   -0.709376
 ---------------------------------------------------------------------

 SCF Done:  E(RB2PLYPD3) =  -132.534020426     A.U. after   12 cycles
 E2(B2PLYPD3) =    -0.1804855068D+00 E(B2PLYPD3) =    -0.13271450593309D+03

 The electronic state is 1-A.
 Alpha  occ. eigenvalues --  -14.84271 -10.66609 -10.66349  -1.04006  -0.89590
 Alpha  occ. eigenvalues --   -0.59947  -0.54967  -0.53584  -0.44790  -0.39099
 Alpha  occ. eigenvalues --   -0.39026
 Alpha virt. eigenvalues --    0.03828   0.07792   0.08428   0.10184   0.11247
 Alpha virt. eigenvalues --    0.11481   0.15364   0.16052   0.16721   0.20058
 Alpha virt. eigenvalues --    0.20161   0.25250   0.32765   0.34804   0.35092

 Mulliken charges:
               1
     1  C   -0.076970
     2  C   -0.001381
     3  N   -0.207828
     4  H    0.098868
     5  H    0.093200
     6  H    0.094111
 Sum of Mulliken charges =   0.00000

 Dipole moment (field-independent basis, Debye):
    X=             -4.1422    Y=              0.0149    Z=             -0.0027  Tot=              4.1422
 Quadrupole moment (field-independent basis, Debye-Ang):
   XX=            -20.9245   YY=            -17.6698   ZZ=            -17.8328
   XY=              0.1569   XZ=             -0.0714   YZ=             -0.0142

 Normal termination of Gaussian 09 at Thu Aug 27 00:01:47 2020.
