 Gaussian 09, Revision D.01,
 Gaussian 09:  ES64L-G09RevD.01 24-Apr-2013

 --------------------
 #p B2PLYPD3/Def2QZVP
 --------------------

 ------------
 cyanomethane
 ------------
 Symbolic Z-matrix:
 Charge =  0 Multiplicity = 1

                         Standard orientation:
 ---------------------------------------------------------------------
 Center     Atomic      Atomic             Coordinates (Angstroms)
 Number     Number       Type             X           Y           Z
 ---------------------------------------------------------------------
      1          6           0        1.154195    0.020523   -0.001829
      2          6           0       -0.289627   -0.070922   -0.025510
      3          7           0       -1.416866    0.039008    0.016055
      4          1           0        1.606648   -0.042830    0.978309
      5          1           0        1.607560    0.887738   -0.427916
      6          1           0        1.516444   -0.815569   -0.498750
 ---------------------------------------------------------------------

 SCF Done:  E(RB2PLYPD3) =  -132.529421168     A.U. after   11 cycles
 E2(B2PLYPD3) =    -0.1787280516D+00 E(B2PLYPD3) =    -0.13270814921961D+03

 The electronic state is 1-A.
 Alpha  occ. eigenvalues --  -14.83789 -10.65948 -10.65721  -1.05160  -0.89826
 Alpha  occ. eigenvalues --   -0.61218  -0.54507  -0.53028  -0.44951  -0.39743
 Alpha  occ. eigenvalues --   -0.39576
 Alpha virt. eigenvalues --    0.03734   0.07809   0.08823   0.09963   0.11589
 Alpha virt. eigenvalues --    0.11872   0.15710   0.16060   0.18042   0.19820
 Alpha virt. eigenvalues --    0.20282   0.26056   0.33623   0.34877   0.35291

 Mulliken charges:
               1
     1  C   -0.061826
     2  C    0.003128
     3  N   -0.193947
     4  H    0.080407
     5  H    0.087342
     6  H    0.084896
 Sum of Mulliken charges =   0.00000

 Dipole moment (field-independent basis, Debye):
    X=              4.0836    Y=             -0.0860    Z=             -0.0208  Tot=              4.0846
 Quadrupole moment (field-independent basis, Debye-Ang):
   XX=            -20.5365   YY=            -17.6621   ZZ=            -17.8419
   XY=              0.2378   XZ=              0.1510   YZ=             -0.0003

 Normal termination of Gaussian 09 at Wed Aug 26 18:43:43 2020.
