 Gaussian 09, Revision D.01,
 Gaussian 09:  ES64L-G09RevD.01 24-Apr-2013

 --------------------
 #p B2PLYPD3/Def2QZVP
 --------------------

 ------------
 cyanomethane
 ------------
 Symbolic Z-matrix:
 Charge =  0 Multiplicity = 1

                         Standard orientation:
 ---------------------------------------------------------------------
 Center     Atomic      Atomic             Coordinates (Angstroms)
 Number     Number       Type             X           Y           Z
 ---------------------------------------------------------------------
      1          6           0       -1.184955   -0.009624    0.012122
      2          6           0        0.279631    0.050755   -0.015991
      3          7           0        1.416580   -0.024336    0.002305
      4          1           0       -1.426208   -0.333814    0.968396
      5          1           0       -1.531863   -0.762611   -0.734748
      6          1           0       -1.526051    1.019998   -0.226570
 ---------------------------------------------------------------------

 SCF Done:  E(RB2PLYPD3) =  -132.531476004     A.U. after   12 cycles
 E2(B2PLYPD3) =    -0.1792503803D+00 E(B2PLYPD3) =    -0.13271072638435D+03

 The electronic state is 1-A.
 Alpha  occ. eigenvalues --  -14.83545 -10.67153 -10.65559  -1.04585  -0.89314
 Alpha  occ. eigenvalues --   -0.58363  -0.55156  -0.53735  -0.44500  -0.39378
 Alpha  occ. eigenvalues --   -0.39252
 Alpha virt. eigenvalues --    0.03722   0.08091   0.08729   0.10157   0.11483
 Alpha virt. eigenvalues --    0.11660   0.15309   0.15636   0.16262   0.19970
 Alpha virt. eigenvalues --    0.20110   0.25323   0.32595   0.34066   0.35032

 Mulliken charges:
               1
     1  C   -0.105596
     2  C   -0.007284
     3  N   -0.200180
     4  H    0.108284
     5  H    0.101010
     6  H    0.103766
 Sum of Mulliken charges =   0.00000

 Dipole moment (field-independent basis, Debye):
    X=             -4.0609    Y=              0.0174    Z=              0.0127  Tot=              4.0609
 Quadrupole moment (field-independent basis, Debye-Ang):
   XX=            -21.3891   YY=            -17.4798   ZZ=            -17.6872
   XY=              0.1638   XZ=              0.0361   YZ=             -0.0419

 Normal termination of Gaussian 09 at Wed Aug 26 19:52:29 2020.
