 Gaussian 09, Revision D.01,
 Gaussian 09:  ES64L-G09RevD.01 24-Apr-2013

 --------------------
 #p B2PLYPD3/Def2QZVP
 --------------------

 ------------
 cyanomethane
 ------------
 Symbolic Z-matrix:
 Charge =  0 Multiplicity = 1

                         Standard orientation:
 ---------------------------------------------------------------------
 Center     Atomic      Atomic             Coordinates (Angstroms)
 Number     Number       Type             X           Y           Z
 ---------------------------------------------------------------------
      1          6           0        1.182694   -0.012586    0.005984
      2          6           0       -0.292218   -0.034929    0.003479
      3          7           0       -1.435749    0.023854   -0.002663
      4          1           0        1.623822    0.993677   -0.246082
      5          1           0        1.531874   -0.648448   -0.696305
      6          1           0        1.551692   -0.227112    0.904249
 ---------------------------------------------------------------------

 SCF Done:  E(RB2PLYPD3) =  -132.523836572     A.U. after   12 cycles
 E2(B2PLYPD3) =    -0.1792479553D+00 E(B2PLYPD3) =    -0.13270308452764D+03

 The electronic state is 1-A.
 Alpha  occ. eigenvalues --  -14.84062 -10.66143 -10.65763  -1.04550  -0.90065
 Alpha  occ. eigenvalues --   -0.60558  -0.56268  -0.52712  -0.44857  -0.39726
 Alpha  occ. eigenvalues --   -0.39343
 Alpha virt. eigenvalues --    0.03741   0.08016   0.09209   0.10236   0.11128
 Alpha virt. eigenvalues --    0.11629   0.15492   0.16423   0.17031   0.19951
 Alpha virt. eigenvalues --    0.20126   0.25078   0.32745   0.34355   0.36292

 Mulliken charges:
               1
     1  C   -0.062212
     2  C   -0.000594
     3  N   -0.201038
     4  H    0.080496
     5  H    0.091703
     6  H    0.091645
 Sum of Mulliken charges =   0.00000

 Dipole moment (field-independent basis, Debye):
    X=              4.1373    Y=             -0.0516    Z=              0.0124  Tot=              4.1376
 Quadrupole moment (field-independent basis, Debye-Ang):
   XX=            -20.6344   YY=            -17.7852   ZZ=            -17.7099
   XY=              0.1798   XZ=             -0.0016   YZ=              0.0538

 Normal termination of Gaussian 09 at Wed Aug 26 13:53:07 2020.
