 Gaussian 09, Revision D.01,
 Gaussian 09:  ES64L-G09RevD.01 24-Apr-2013

 --------------------
 #p B2PLYPD3/Def2QZVP
 --------------------

 ------------
 cyanomethane
 ------------
 Symbolic Z-matrix:
 Charge =  0 Multiplicity = 1

                         Standard orientation:
 ---------------------------------------------------------------------
 Center     Atomic      Atomic             Coordinates (Angstroms)
 Number     Number       Type             X           Y           Z
 ---------------------------------------------------------------------
      1          6           0        1.169971    0.003483    0.008497
      2          6           0       -0.275822    0.002276   -0.021574
      3          7           0       -1.436637   -0.001681    0.009821
      4          1           0        1.564083    0.996853   -0.191876
      5          1           0        1.570501   -0.679533   -0.766200
      6          1           0        1.556981   -0.340106    0.967797
 ---------------------------------------------------------------------

 SCF Done:  E(RB2PLYPD3) =  -132.534563000     A.U. after   11 cycles
 E2(B2PLYPD3) =    -0.1811553480D+00 E(B2PLYPD3) =    -0.13271571834801D+03

 The electronic state is 1-A.
 Alpha  occ. eigenvalues --  -14.84438 -10.67182 -10.66479  -1.03916  -0.89262
 Alpha  occ. eigenvalues --   -0.60229  -0.53969  -0.53378  -0.44894  -0.38923
 Alpha  occ. eigenvalues --   -0.38820
 Alpha virt. eigenvalues --    0.03725   0.07505   0.07672   0.10128   0.11420
 Alpha virt. eigenvalues --    0.11525   0.15494   0.16237   0.16645   0.20108
 Alpha virt. eigenvalues --    0.20132   0.25587   0.32718   0.34349   0.34787

 Mulliken charges:
               1
     1  C   -0.078745
     2  C    0.001524
     3  N   -0.208785
     4  H    0.096240
     5  H    0.093040
     6  H    0.096726
 Sum of Mulliken charges =   0.00000

 Dipole moment (field-independent basis, Debye):
    X=              4.1368    Y=              0.0001    Z=             -0.0126  Tot=              4.1368
 Quadrupole moment (field-independent basis, Debye-Ang):
   XX=            -20.9148   YY=            -17.7922   ZZ=            -17.8161
   XY=             -0.0181   XZ=              0.0437   YZ=             -0.0222

 Normal termination of Gaussian 09 at Thu Aug 27 00:10:22 2020.
