 Gaussian 09, Revision D.01,
 Gaussian 09:  ES64L-G09RevD.01 24-Apr-2013

 --------------------
 #p B2PLYPD3/Def2QZVP
 --------------------

 ------------
 cyanomethane
 ------------
 Symbolic Z-matrix:
 Charge =  0 Multiplicity = 1

                         Standard orientation:
 ---------------------------------------------------------------------
 Center     Atomic      Atomic             Coordinates (Angstroms)
 Number     Number       Type             X           Y           Z
 ---------------------------------------------------------------------
      1          6           0        1.178746   -0.002597   -0.005116
      2          6           0       -0.278213    0.014939   -0.004738
      3          7           0       -1.434670   -0.008172    0.000213
      4          1           0        1.554919    0.941294   -0.409707
      5          1           0        1.575123   -0.854778   -0.578001
      6          1           0        1.509451   -0.103364    1.045345
 ---------------------------------------------------------------------

 SCF Done:  E(RB2PLYPD3) =  -132.534850714     A.U. after   12 cycles
 E2(B2PLYPD3) =    -0.1807864906D+00 E(B2PLYPD3) =    -0.13271563720461D+03

 The electronic state is 1-A.
 Alpha  occ. eigenvalues --  -14.84225 -10.67466 -10.66297  -1.04012  -0.89023
 Alpha  occ. eigenvalues --   -0.59450  -0.54024  -0.53513  -0.44767  -0.39024
 Alpha  occ. eigenvalues --   -0.38897
 Alpha virt. eigenvalues --    0.03696   0.07667   0.07902   0.10167   0.11380
 Alpha virt. eigenvalues --    0.11543   0.15357   0.15949   0.16557   0.20077
 Alpha virt. eigenvalues --    0.20130   0.25347   0.32623   0.34145   0.34703

 Mulliken charges:
               1
     1  C   -0.090590
     2  C   -0.000917
     3  N   -0.207135
     4  H    0.100063
     5  H    0.100038
     6  H    0.098539
 Sum of Mulliken charges =   0.00000

 Dipole moment (field-independent basis, Debye):
    X=              4.1238    Y=              0.0108    Z=              0.0112  Tot=              4.1239
 Quadrupole moment (field-independent basis, Debye-Ang):
   XX=            -21.0924   YY=            -17.7142   ZZ=            -17.7905
   XY=             -0.0574   XZ=             -0.0196   YZ=             -0.0016

 Normal termination of Gaussian 09 at Wed Aug 26 11:35:51 2020.
