 Gaussian 09, Revision D.01,
 Gaussian 09:  ES64L-G09RevD.01 24-Apr-2013

 --------------------
 #p B2PLYPD3/Def2QZVP
 --------------------

 ------------
 cyanomethane
 ------------
 Symbolic Z-matrix:
 Charge =  0 Multiplicity = 1

                         Standard orientation:
 ---------------------------------------------------------------------
 Center     Atomic      Atomic             Coordinates (Angstroms)
 Number     Number       Type             X           Y           Z
 ---------------------------------------------------------------------
      1          6           0       -1.189390    0.000593   -0.013332
      2          6           0        0.276783    0.024975    0.009640
      3          7           0        1.442594   -0.020508   -0.002305
      4          1           0       -1.439639    1.010998   -0.198342
      5          1           0       -1.589565   -0.320382    0.959112
      6          1           0       -1.593312   -0.700462   -0.722490
 ---------------------------------------------------------------------

 SCF Done:  E(RB2PLYPD3) =  -132.531022757     A.U. after   12 cycles
 E2(B2PLYPD3) =    -0.1815019360D+00 E(B2PLYPD3) =    -0.13271252469331D+03

 The electronic state is 1-A.
 Alpha  occ. eigenvalues --  -14.84514 -10.66931 -10.66624  -1.03601  -0.89475
 Alpha  occ. eigenvalues --   -0.59770  -0.55275  -0.53104  -0.44776  -0.38876
 Alpha  occ. eigenvalues --   -0.38701
 Alpha virt. eigenvalues --    0.03749   0.07420   0.08364   0.10113   0.11073
 Alpha virt. eigenvalues --    0.11462   0.15128   0.15826   0.16749   0.20075
 Alpha virt. eigenvalues --    0.20238   0.25204   0.32530   0.34332   0.35177

 Mulliken charges:
               1
     1  C   -0.083668
     2  C    0.000134
     3  N   -0.212557
     4  H    0.104055
     5  H    0.092819
     6  H    0.099216
 Sum of Mulliken charges =   0.00000

 Dipole moment (field-independent basis, Debye):
    X=             -4.1487    Y=              0.0178    Z=              0.0157  Tot=              4.1488
 Quadrupole moment (field-independent basis, Debye-Ang):
   XX=            -21.0372   YY=            -17.6206   ZZ=            -17.9290
   XY=              0.2708   XZ=             -0.0490   YZ=              0.0065

 Normal termination of Gaussian 09 at Wed Aug 26 14:55:17 2020.
