 Gaussian 09, Revision D.01,
 Gaussian 09:  ES64L-G09RevD.01 24-Apr-2013

 --------------------
 #p B2PLYPD3/Def2QZVP
 --------------------

 ------------
 cyanomethane
 ------------
 Symbolic Z-matrix:
 Charge =  0 Multiplicity = 1

                         Standard orientation:
 ---------------------------------------------------------------------
 Center     Atomic      Atomic             Coordinates (Angstroms)
 Number     Number       Type             X           Y           Z
 ---------------------------------------------------------------------
      1          6           0        1.186600   -0.006891   -0.004885
      2          6           0       -0.285254    0.014103   -0.011548
      3          7           0       -1.433601   -0.005828    0.007974
      4          1           0        1.520605   -0.604589   -0.850697
      5          1           0        1.554050   -0.451942    0.966133
      6          1           0        1.552474    1.054055   -0.072658
 ---------------------------------------------------------------------

 SCF Done:  E(RB2PLYPD3) =  -132.533467444     A.U. after   12 cycles
 E2(B2PLYPD3) =    -0.1802866438D+00 E(B2PLYPD3) =    -0.13271375408807D+03

 The electronic state is 1-A.
 Alpha  occ. eigenvalues --  -14.83976 -10.68025 -10.66074  -1.04272  -0.88470
 Alpha  occ. eigenvalues --   -0.58690  -0.54104  -0.52933  -0.44673  -0.39235
 Alpha  occ. eigenvalues --   -0.39084
 Alpha virt. eigenvalues --    0.03597   0.07647   0.08112   0.10201   0.11413
 Alpha virt. eigenvalues --    0.11600   0.15194   0.16032   0.16296   0.20032
 Alpha virt. eigenvalues --    0.20080   0.25070   0.32379   0.33808   0.34559

 Mulliken charges:
               1
     1  C   -0.101889
     2  C   -0.003089
     3  N   -0.202643
     4  H    0.105801
     5  H    0.100881
     6  H    0.100939
 Sum of Mulliken charges =   0.00000

 Dipole moment (field-independent basis, Debye):
    X=              4.1039    Y=              0.0059    Z=             -0.0104  Tot=              4.1039
 Quadrupole moment (field-independent basis, Debye-Ang):
   XX=            -21.2280   YY=            -17.7182   ZZ=            -17.7253
   XY=             -0.0225   XZ=              0.0757   YZ=              0.0424

 Normal termination of Gaussian 09 at Thu Aug 27 00:08:42 2020.
