 Gaussian 09, Revision D.01,
 Gaussian 09:  ES64L-G09RevD.01 24-Apr-2013

 --------------------
 #p B2PLYPD3/Def2QZVP
 --------------------

 ------------
 cyanomethane
 ------------
 Symbolic Z-matrix:
 Charge =  0 Multiplicity = 1

                         Standard orientation:
 ---------------------------------------------------------------------
 Center     Atomic      Atomic             Coordinates (Angstroms)
 Number     Number       Type             X           Y           Z
 ---------------------------------------------------------------------
      1          6           0        1.167715   -0.021445   -0.005181
      2          6           0       -0.258824    0.062624    0.010613
      3          7           0       -1.432036   -0.027120    0.002964
      4          1           0        1.628775   -0.181488    0.939863
      5          1           0        1.520754    0.952222   -0.368420
      6          1           0        1.421374   -0.827964   -0.624785
 ---------------------------------------------------------------------

 SCF Done:  E(RB2PLYPD3) =  -132.528346576     A.U. after   11 cycles
 E2(B2PLYPD3) =    -0.1823155709D+00 E(B2PLYPD3) =    -0.13271066214698D+03

 The electronic state is 1-A.
 Alpha  occ. eigenvalues --  -14.84717 -10.66714 -10.66311  -1.03336  -0.90284
 Alpha  occ. eigenvalues --   -0.60592  -0.55598  -0.53596  -0.44849  -0.38463
 Alpha  occ. eigenvalues --   -0.38315
 Alpha virt. eigenvalues --    0.03789   0.07338   0.07740   0.10002   0.11259
 Alpha virt. eigenvalues --    0.11462   0.15445   0.15701   0.16709   0.20109
 Alpha virt. eigenvalues --    0.20289   0.26099   0.32769   0.34386   0.35214

 Mulliken charges:
               1
     1  C   -0.079487
     2  C    0.005330
     3  N   -0.218403
     4  H    0.092555
     5  H    0.095826
     6  H    0.104179
 Sum of Mulliken charges =   0.00000

 Dipole moment (field-independent basis, Debye):
    X=              4.1412    Y=              0.0196    Z=              0.0101  Tot=              4.1413
 Quadrupole moment (field-independent basis, Debye-Ang):
   XX=            -21.0245   YY=            -17.5961   ZZ=            -17.9251
   XY=             -0.1066   XZ=              0.1937   YZ=              0.0437

 Normal termination of Gaussian 09 at Wed Aug 26 18:48:58 2020.
