 Gaussian 09, Revision D.01,
 Gaussian 09:  ES64L-G09RevD.01 24-Apr-2013

 --------------------
 #p B2PLYPD3/Def2QZVP
 --------------------

 ------------
 cyanomethane
 ------------
 Symbolic Z-matrix:
 Charge =  0 Multiplicity = 1

                         Standard orientation:
 ---------------------------------------------------------------------
 Center     Atomic      Atomic             Coordinates (Angstroms)
 Number     Number       Type             X           Y           Z
 ---------------------------------------------------------------------
      1          6           0        1.164329   -0.001639   -0.001261
      2          6           0       -0.281285   -0.033136   -0.015718
      3          7           0       -1.429879    0.021251    0.012830
      4          1           0        1.610992    1.042686   -0.112095
      5          1           0        1.491971   -0.592778   -0.790392
      6          1           0        1.607921   -0.390020    0.914550
 ---------------------------------------------------------------------

 SCF Done:  E(RB2PLYPD3) =  -132.530971937     A.U. after   12 cycles
 E2(B2PLYPD3) =    -0.1802559593D+00 E(B2PLYPD3) =    -0.13271122789663D+03

 The electronic state is 1-A.
 Alpha  occ. eigenvalues --  -14.84180 -10.66919 -10.66185  -1.04400  -0.89416
 Alpha  occ. eigenvalues --   -0.60426  -0.54690  -0.52539  -0.44906  -0.39253
 Alpha  occ. eigenvalues --   -0.39065
 Alpha virt. eigenvalues --    0.03621   0.07221   0.08454   0.10117   0.11404
 Alpha virt. eigenvalues --    0.11763   0.15552   0.16085   0.17210   0.19983
 Alpha virt. eigenvalues --    0.20185   0.25672   0.32846   0.34145   0.35096

 Mulliken charges:
               1
     1  C   -0.075680
     2  C    0.000964
     3  N   -0.203186
     4  H    0.090113
     5  H    0.096981
     6  H    0.090808
 Sum of Mulliken charges =   0.00000

 Dipole moment (field-independent basis, Debye):
    X=              4.1171    Y=             -0.0545    Z=             -0.0201  Tot=              4.1175
 Quadrupole moment (field-independent basis, Debye-Ang):
   XX=            -20.7957   YY=            -17.7575   ZZ=            -17.8223
   XY=              0.1330   XZ=              0.1470   YZ=              0.0544

 Normal termination of Gaussian 09 at Wed Aug 26 12:55:48 2020.
