 Gaussian 09, Revision D.01,
 Gaussian 09:  ES64L-G09RevD.01 24-Apr-2013

 --------------------
 #p B2PLYPD3/Def2QZVP
 --------------------

 ------------
 cyanomethane
 ------------
 Symbolic Z-matrix:
 Charge =  0 Multiplicity = 1

                         Standard orientation:
 ---------------------------------------------------------------------
 Center     Atomic      Atomic             Coordinates (Angstroms)
 Number     Number       Type             X           Y           Z
 ---------------------------------------------------------------------
      1          6           0        1.180305    0.016523    0.001109
      2          6           0       -0.289029   -0.042726    0.002781
      3          7           0       -1.443334    0.019369   -0.007458
      4          1           0        1.582138    1.069739   -0.176926
      5          1           0        1.658783   -0.696133   -0.765095
      6          1           0        1.514758   -0.351976    0.970888
 ---------------------------------------------------------------------

 SCF Done:  E(RB2PLYPD3) =  -132.529425389     A.U. after   12 cycles
 E2(B2PLYPD3) =    -0.1812625443D+00 E(B2PLYPD3) =    -0.13271068793309D+03

 The electronic state is 1-A.
 Alpha  occ. eigenvalues --  -14.84394 -10.68369 -10.66518  -1.04119  -0.88136
 Alpha  occ. eigenvalues --   -0.59401  -0.53381  -0.52153  -0.44901  -0.39123
 Alpha  occ. eigenvalues --   -0.38971
 Alpha virt. eigenvalues --    0.03428   0.06944   0.07826   0.10147   0.11419
 Alpha virt. eigenvalues --    0.11566   0.15242   0.15844   0.17149   0.20046
 Alpha virt. eigenvalues --    0.20101   0.25291   0.32059   0.33960   0.34161

 Mulliken charges:
               1
     1  C   -0.092354
     2  C    0.002982
     3  N   -0.204484
     4  H    0.101632
     5  H    0.092932
     6  H    0.099292
 Sum of Mulliken charges =   0.00000

 Dipole moment (field-independent basis, Debye):
    X=              4.1204    Y=             -0.0445    Z=              0.0406  Tot=              4.1208
 Quadrupole moment (field-independent basis, Debye-Ang):
   XX=            -20.9684   YY=            -17.7278   ZZ=            -17.9834
   XY=              0.0377   XZ=             -0.0744   YZ=             -0.0457

 Normal termination of Gaussian 09 at Wed Aug 26 21:55:20 2020.
