 Gaussian 09, Revision D.01,
 Gaussian 09:  ES64L-G09RevD.01 24-Apr-2013

 --------------------
 #p B2PLYPD3/Def2QZVP
 --------------------

 ------------
 cyanomethane
 ------------
 Symbolic Z-matrix:
 Charge =  0 Multiplicity = 1

                         Standard orientation:
 ---------------------------------------------------------------------
 Center     Atomic      Atomic             Coordinates (Angstroms)
 Number     Number       Type             X           Y           Z
 ---------------------------------------------------------------------
      1          6           0       -1.177284   -0.002325    0.017918
      2          6           0        0.272912    0.022871   -0.048242
      3          7           0        1.443934    0.001264    0.010215
      4          1           0       -1.576846   -0.723896   -0.658249
      5          1           0       -1.783486    0.921939   -0.172453
      6          1           0       -1.320968   -0.330166    0.941142
 ---------------------------------------------------------------------

 SCF Done:  E(RB2PLYPD3) =  -132.520146137     A.U. after   13 cycles
 E2(B2PLYPD3) =    -0.1819899019D+00 E(B2PLYPD3) =    -0.13270213603907D+03

 The electronic state is 1-A.
 Alpha  occ. eigenvalues --  -14.84758 -10.66943 -10.66182  -1.03540  -0.90364
 Alpha  occ. eigenvalues --   -0.60716  -0.55850  -0.52918  -0.44927  -0.38720
 Alpha  occ. eigenvalues --   -0.38645
 Alpha virt. eigenvalues --    0.03820   0.06920   0.08319   0.10352   0.11351
 Alpha virt. eigenvalues --    0.11381   0.15114   0.15786   0.17513   0.20150
 Alpha virt. eigenvalues --    0.20330   0.25567   0.32043   0.34742   0.35768

 Mulliken charges:
               1
     1  C   -0.077758
     2  C    0.007385
     3  N   -0.216091
     4  H    0.088808
     5  H    0.091016
     6  H    0.106639
 Sum of Mulliken charges =   0.00000

 Dipole moment (field-independent basis, Debye):
    X=             -4.1835    Y=             -0.0533    Z=              0.0129  Tot=              4.1839
 Quadrupole moment (field-independent basis, Debye-Ang):
   XX=            -20.6582   YY=            -17.8755   ZZ=            -17.8618
   XY=             -0.1069   XZ=              0.1309   YZ=             -0.0386

 Normal termination of Gaussian 09 at Wed Aug 26 19:52:53 2020.
