 Gaussian 09, Revision D.01,
 Gaussian 09:  ES64L-G09RevD.01 24-Apr-2013

 --------------------
 #p B2PLYPD3/Def2QZVP
 --------------------

 ------------
 cyanomethane
 ------------
 Symbolic Z-matrix:
 Charge =  0 Multiplicity = 1

                         Standard orientation:
 ---------------------------------------------------------------------
 Center     Atomic      Atomic             Coordinates (Angstroms)
 Number     Number       Type             X           Y           Z
 ---------------------------------------------------------------------
      1          6           0       -1.171724   -0.004102   -0.001218
      2          6           0        0.291831   -0.003173   -0.036280
      3          7           0        1.435842    0.008160    0.022433
      4          1           0       -1.619275   -0.155628    1.035745
      5          1           0       -1.502184   -0.829856   -0.610418
      6          1           0       -1.650078    0.972018   -0.357370
 ---------------------------------------------------------------------

 SCF Done:  E(RB2PLYPD3) =  -132.530183419     A.U. after   12 cycles
 E2(B2PLYPD3) =    -0.1802989913D+00 E(B2PLYPD3) =    -0.13271048241030D+03

 The electronic state is 1-A.
 Alpha  occ. eigenvalues --  -14.84126 -10.68034 -10.66213  -1.04581  -0.88336
 Alpha  occ. eigenvalues --   -0.59798  -0.53841  -0.51723  -0.44914  -0.39412
 Alpha  occ. eigenvalues --   -0.39181
 Alpha virt. eigenvalues --    0.03499   0.06989   0.08124   0.10153   0.11437
 Alpha virt. eigenvalues --    0.11833   0.15381   0.16240   0.17164   0.19927
 Alpha virt. eigenvalues --    0.20144   0.25347   0.32406   0.33786   0.34647

 Mulliken charges:
               1
     1  C   -0.086159
     2  C    0.001011
     3  N   -0.199037
     4  H    0.091757
     5  H    0.099437
     6  H    0.092991
 Sum of Mulliken charges =   0.00000

 Dipole moment (field-independent basis, Debye):
    X=             -4.1061    Y=             -0.0283    Z=             -0.0260  Tot=              4.1063
 Quadrupole moment (field-independent basis, Debye-Ang):
   XX=            -20.8514   YY=            -17.7584   ZZ=            -17.9221
   XY=             -0.1159   XZ=             -0.2096   YZ=              0.0624

 Normal termination of Gaussian 09 at Wed Aug 26 11:34:10 2020.
