 Gaussian 09, Revision D.01,
 Gaussian 09:  ES64L-G09RevD.01 24-Apr-2013

 --------------------
 #p B2PLYPD3/Def2QZVP
 --------------------

 ------------
 cyanomethane
 ------------
 Symbolic Z-matrix:
 Charge =  0 Multiplicity = 1

                         Standard orientation:
 ---------------------------------------------------------------------
 Center     Atomic      Atomic             Coordinates (Angstroms)
 Number     Number       Type             X           Y           Z
 ---------------------------------------------------------------------
      1          6           0        1.181472   -0.008235   -0.011321
      2          6           0       -0.280208   -0.020087    0.029467
      3          7           0       -1.441610    0.012096   -0.009943
      4          1           0        1.508191   -0.592297   -0.806834
      5          1           0        1.613714   -0.351118    0.915802
      6          1           0        1.561778    1.028677   -0.148245
 ---------------------------------------------------------------------

 SCF Done:  E(RB2PLYPD3) =  -132.532716774     A.U. after   11 cycles
 E2(B2PLYPD3) =    -0.1810568141D+00 E(B2PLYPD3) =    -0.13271377358829D+03

 The electronic state is 1-A.
 Alpha  occ. eigenvalues --  -14.84485 -10.66812 -10.66570  -1.03831  -0.89430
 Alpha  occ. eigenvalues --   -0.60106  -0.55057  -0.53038  -0.44869  -0.39071
 Alpha  occ. eigenvalues --   -0.38829
 Alpha virt. eigenvalues --    0.03742   0.07574   0.08150   0.10188   0.11178
 Alpha virt. eigenvalues --    0.11483   0.15384   0.16387   0.16465   0.20060
 Alpha virt. eigenvalues --    0.20158   0.25321   0.32608   0.34205   0.35447

 Mulliken charges:
               1
     1  C   -0.074967
     2  C    0.000921
     3  N   -0.209665
     4  H    0.099887
     5  H    0.092538
     6  H    0.091286
 Sum of Mulliken charges =   0.00000

 Dipole moment (field-independent basis, Debye):
    X=              4.1484    Y=             -0.0137    Z=              0.0115  Tot=              4.1484
 Quadrupole moment (field-independent basis, Debye-Ang):
   XX=            -20.8752   YY=            -17.8276   ZZ=            -17.7705
   XY=              0.0916   XZ=              0.0195   YZ=              0.0588

 Normal termination of Gaussian 09 at Wed Aug 26 15:06:47 2020.
