 Gaussian 09, Revision D.01,
 Gaussian 09:  ES64L-G09RevD.01 24-Apr-2013

 --------------------
 #p B2PLYPD3/Def2QZVP
 --------------------

 ------------
 cyanomethane
 ------------
 Symbolic Z-matrix:
 Charge =  0 Multiplicity = 1

                         Standard orientation:
 ---------------------------------------------------------------------
 Center     Atomic      Atomic             Coordinates (Angstroms)
 Number     Number       Type             X           Y           Z
 ---------------------------------------------------------------------
      1          6           0       -1.164750    0.006456    0.005281
      2          6           0        0.283340   -0.021791    0.023293
      3          7           0        1.423059    0.003470   -0.013245
      4          1           0       -1.643247   -0.863069   -0.565853
      5          1           0       -1.473222    0.938185   -0.509322
      6          1           0       -1.556477   -0.007396    0.996441
 ---------------------------------------------------------------------

 SCF Done:  E(RB2PLYPD3) =  -132.533115365     A.U. after   12 cycles
 E2(B2PLYPD3) =    -0.1795508948D+00 E(B2PLYPD3) =    -0.13271266625984D+03

 The electronic state is 1-A.
 Alpha  occ. eigenvalues --  -14.83817 -10.67452 -10.65837  -1.04726  -0.88971
 Alpha  occ. eigenvalues --   -0.59783  -0.54240  -0.52626  -0.44782  -0.39425
 Alpha  occ. eigenvalues --   -0.39212
 Alpha virt. eigenvalues --    0.03644   0.07427   0.08295   0.10203   0.11596
 Alpha virt. eigenvalues --    0.11886   0.15455   0.16216   0.16824   0.19985
 Alpha virt. eigenvalues --    0.20069   0.25575   0.32649   0.34097   0.34764

 Mulliken charges:
               1
     1  C   -0.088885
     2  C   -0.001835
     3  N   -0.198340
     4  H    0.091812
     5  H    0.098464
     6  H    0.098784
 Sum of Mulliken charges =   0.00000

 Dipole moment (field-independent basis, Debye):
    X=             -4.0930    Y=              0.0114    Z=              0.0280  Tot=              4.0931
 Quadrupole moment (field-independent basis, Debye-Ang):
   XX=            -20.9689   YY=            -17.7505   ZZ=            -17.7256
   XY=              0.0685   XZ=              0.0669   YZ=             -0.0337

 Normal termination of Gaussian 09 at Wed Aug 26 14:36:01 2020.
