 Gaussian 09, Revision D.01,
 Gaussian 09:  ES64L-G09RevD.01 24-Apr-2013

 --------------------
 #p B2PLYPD3/Def2QZVP
 --------------------

 ------------
 cyanomethane
 ------------
 Symbolic Z-matrix:
 Charge =  0 Multiplicity = 1

                         Standard orientation:
 ---------------------------------------------------------------------
 Center     Atomic      Atomic             Coordinates (Angstroms)
 Number     Number       Type             X           Y           Z
 ---------------------------------------------------------------------
      1          6           0       -1.177468   -0.021746    0.001990
      2          6           0        0.271408    0.034828   -0.011368
      3          7           0        1.435676   -0.016131    0.004270
      4          1           0       -1.534476    1.043303    0.024646
      5          1           0       -1.522233   -0.516850    0.876100
      6          1           0       -1.556666   -0.492029   -0.874372
 ---------------------------------------------------------------------

 SCF Done:  E(RB2PLYPD3) =  -132.532559582     A.U. after   11 cycles
 E2(B2PLYPD3) =    -0.1813828651D+00 E(B2PLYPD3) =    -0.13271394244712D+03

 The electronic state is 1-A.
 Alpha  occ. eigenvalues --  -14.84460 -10.66913 -10.66505  -1.03692  -0.89569
 Alpha  occ. eigenvalues --   -0.59924  -0.54913  -0.53473  -0.44806  -0.38881
 Alpha  occ. eigenvalues --   -0.38613
 Alpha virt. eigenvalues --    0.03768   0.07661   0.07838   0.10083   0.11273
 Alpha virt. eigenvalues --    0.11454   0.15452   0.15732   0.16687   0.20141
 Alpha virt. eigenvalues --    0.20155   0.25575   0.32524   0.34101   0.35282

 Mulliken charges:
               1
     1  C   -0.084219
     2  C    0.001328
     3  N   -0.212085
     4  H    0.093464
     5  H    0.101335
     6  H    0.100177
 Sum of Mulliken charges =   0.00000

 Dipole moment (field-independent basis, Debye):
    X=             -4.1318    Y=              0.0171    Z=             -0.0029  Tot=              4.1318
 Quadrupole moment (field-independent basis, Debye-Ang):
   XX=            -21.0675   YY=            -17.7657   ZZ=            -17.7407
   XY=              0.0956   XZ=             -0.0024   YZ=             -0.0019

 Normal termination of Gaussian 09 at Wed Aug 26 14:47:00 2020.
