 Gaussian 09, Revision D.01,
 Gaussian 09:  ES64L-G09RevD.01 24-Apr-2013

 --------------------
 #p B2PLYPD3/Def2QZVP
 --------------------

 ------------
 cyanomethane
 ------------
 Symbolic Z-matrix:
 Charge =  0 Multiplicity = 1

                         Standard orientation:
 ---------------------------------------------------------------------
 Center     Atomic      Atomic             Coordinates (Angstroms)
 Number     Number       Type             X           Y           Z
 ---------------------------------------------------------------------
      1          6           0       -1.164048   -0.016169    0.007113
      2          6           0        0.276922    0.010527   -0.019354
      3          7           0        1.433132   -0.003021    0.004702
      4          1           0       -1.585870    0.984176   -0.079816
      5          1           0       -1.503482   -0.381920    0.885633
      6          1           0       -1.619817   -0.547254   -0.765285
 ---------------------------------------------------------------------

 SCF Done:  E(RB2PLYPD3) =  -132.528977292     A.U. after   11 cycles
 E2(B2PLYPD3) =    -0.1802544441D+00 E(B2PLYPD3) =    -0.13270923173617D+03

 The electronic state is 1-A.
 Alpha  occ. eigenvalues --  -14.84356 -10.66383 -10.65588  -1.04170  -0.90436
 Alpha  occ. eigenvalues --   -0.61530  -0.55421  -0.53438  -0.44953  -0.39241
 Alpha  occ. eigenvalues --   -0.38982
 Alpha virt. eigenvalues --    0.03928   0.07849   0.08314   0.10175   0.11357
 Alpha virt. eigenvalues --    0.11607   0.15665   0.16466   0.17057   0.20092
 Alpha virt. eigenvalues --    0.20152   0.25689   0.33003   0.34788   0.35924

 Mulliken charges:
               1
     1  C   -0.052522
     2  C    0.004345
     3  N   -0.207909
     4  H    0.080384
     5  H    0.090521
     6  H    0.085181
 Sum of Mulliken charges =   0.00000

 Dipole moment (field-independent basis, Debye):
    X=             -4.1568    Y=              0.0063    Z=              0.0029  Tot=              4.1568
 Quadrupole moment (field-independent basis, Debye-Ang):
   XX=            -20.5775   YY=            -17.8299   ZZ=            -17.7470
   XY=             -0.0075   XZ=              0.0323   YZ=             -0.0157

 Normal termination of Gaussian 09 at Wed Aug 26 11:12:28 2020.
