 Gaussian 09, Revision D.01,
 Gaussian 09:  ES64L-G09RevD.01 24-Apr-2013

 --------------------
 #p B2PLYPD3/Def2QZVP
 --------------------

 ------------
 cyanomethane
 ------------
 Symbolic Z-matrix:
 Charge =  0 Multiplicity = 1

                         Standard orientation:
 ---------------------------------------------------------------------
 Center     Atomic      Atomic             Coordinates (Angstroms)
 Number     Number       Type             X           Y           Z
 ---------------------------------------------------------------------
      1          6           0       -1.181614    0.012430    0.005621
      2          6           0        0.281137    0.011825   -0.002054
      3          7           0        1.438191   -0.012048    0.000025
      4          1           0       -1.496750    1.006214   -0.192169
      5          1           0       -1.569009   -0.368953    0.947609
      6          1           0       -1.598717   -0.698454   -0.777023
 ---------------------------------------------------------------------

 SCF Done:  E(RB2PLYPD3) =  -132.532732803     A.U. after   12 cycles
 E2(B2PLYPD3) =    -0.1808250445D+00 E(B2PLYPD3) =    -0.13271355784800D+03

 The electronic state is 1-A.
 Alpha  occ. eigenvalues --  -14.84289 -10.67364 -10.66374  -1.04000  -0.89058
 Alpha  occ. eigenvalues --   -0.59576  -0.55050  -0.52508  -0.44797  -0.39142
 Alpha  occ. eigenvalues --   -0.38853
 Alpha virt. eigenvalues --    0.03674   0.07385   0.08247   0.10182   0.11188
 Alpha virt. eigenvalues --    0.11639   0.15297   0.16242   0.16451   0.20022
 Alpha virt. eigenvalues --    0.20170   0.25234   0.32458   0.33937   0.35167

 Mulliken charges:
               1
     1  C   -0.085849
     2  C   -0.001004
     3  N   -0.207085
     4  H    0.103868
     5  H    0.097709
     6  H    0.092363
 Sum of Mulliken charges =   0.00000

 Dipole moment (field-independent basis, Debye):
    X=             -4.1316    Y=              0.0069    Z=              0.0097  Tot=              4.1316
 Quadrupole moment (field-independent basis, Debye-Ang):
   XX=            -21.0194   YY=            -17.6587   ZZ=            -17.8915
   XY=              0.1782   XZ=             -0.0123   YZ=             -0.0640

 Normal termination of Gaussian 09 at Wed Aug 26 10:19:08 2020.
