 Gaussian 09, Revision D.01,
 Gaussian 09:  ES64L-G09RevD.01 24-Apr-2013

 --------------------
 #p B2PLYPD3/Def2QZVP
 --------------------

 ------------
 cyanomethane
 ------------
 Symbolic Z-matrix:
 Charge =  0 Multiplicity = 1

                         Standard orientation:
 ---------------------------------------------------------------------
 Center     Atomic      Atomic             Coordinates (Angstroms)
 Number     Number       Type             X           Y           Z
 ---------------------------------------------------------------------
      1          6           0        1.176692    0.002418    0.001381
      2          6           0       -0.280148   -0.002928   -0.020226
      3          7           0       -1.439421    0.001913    0.012906
      4          1           0        1.573303    1.038074   -0.019290
      5          1           0        1.532749   -0.547735   -0.860700
      6          1           0        1.590630   -0.500667    0.902714
 ---------------------------------------------------------------------

 SCF Done:  E(RB2PLYPD3) =  -132.533988833     A.U. after   12 cycles
 E2(B2PLYPD3) =    -0.1811179361D+00 E(B2PLYPD3) =    -0.13271510676914D+03

 The electronic state is 1-A.
 Alpha  occ. eigenvalues --  -14.84406 -10.67490 -10.66483  -1.03945  -0.88947
 Alpha  occ. eigenvalues --   -0.59842  -0.53959  -0.53079  -0.44866  -0.38975
 Alpha  occ. eigenvalues --   -0.38896
 Alpha virt. eigenvalues --    0.03661   0.07353   0.07889   0.10146   0.11355
 Alpha virt. eigenvalues --    0.11529   0.15394   0.16085   0.16735   0.20069
 Alpha virt. eigenvalues --    0.20144   0.25381   0.32578   0.34315   0.34578

 Mulliken charges:
               1
     1  C   -0.083894
     2  C    0.000843
     3  N   -0.207700
     4  H    0.097631
     5  H    0.097871
     6  H    0.095249
 Sum of Mulliken charges =   0.00000

 Dipole moment (field-independent basis, Debye):
    X=              4.1341    Y=             -0.0144    Z=             -0.0215  Tot=              4.1341
 Quadrupole moment (field-independent basis, Debye-Ang):
   XX=            -20.9623   YY=            -17.7566   ZZ=            -17.8573
   XY=             -0.0076   XZ=              0.1071   YZ=              0.0247

 Normal termination of Gaussian 09 at Wed Aug 26 14:28:11 2020.
