 Gaussian 09, Revision D.01,
 Gaussian 09:  ES64L-G09RevD.01 24-Apr-2013

 --------------------
 #p B2PLYPD3/Def2QZVP
 --------------------

 ------------
 cyanomethane
 ------------
 Symbolic Z-matrix:
 Charge =  0 Multiplicity = 1

                         Standard orientation:
 ---------------------------------------------------------------------
 Center     Atomic      Atomic             Coordinates (Angstroms)
 Number     Number       Type             X           Y           Z
 ---------------------------------------------------------------------
      1          6           0        1.136984   -0.005492   -0.001376
      2          6           0       -0.256163   -0.059646   -0.032690
      3          7           0       -1.432353    0.044232    0.016410
      4          1           0        1.459034   -0.807183   -0.599204
      5          1           0        1.546687   -0.131598    1.044637
      6          1           0        1.735824    1.019991   -0.355905
 ---------------------------------------------------------------------

 SCF Done:  E(RB2PLYPD3) =  -132.510225621     A.U. after   13 cycles
 E2(B2PLYPD3) =    -0.1841541721D+00 E(B2PLYPD3) =    -0.13269437979337D+03

 The electronic state is 1-A.
 Alpha  occ. eigenvalues --  -14.85111 -10.67874 -10.66930  -1.03398  -0.89715
 Alpha  occ. eigenvalues --   -0.60760  -0.54927  -0.50901  -0.45167  -0.38247
 Alpha  occ. eigenvalues --   -0.37783
 Alpha virt. eigenvalues --    0.02729   0.05265   0.07597   0.09739   0.11274
 Alpha virt. eigenvalues --    0.12036   0.15356   0.15974   0.17477   0.20037
 Alpha virt. eigenvalues --    0.20620   0.26538   0.31588   0.33399   0.34324

 Mulliken charges:
               1
     1  C   -0.085619
     2  C    0.009160
     3  N   -0.215193
     4  H    0.103947
     5  H    0.096324
     6  H    0.091381
 Sum of Mulliken charges =   0.00000

 Dipole moment (field-independent basis, Debye):
    X=              4.1201    Y=             -0.1009    Z=              0.0156  Tot=              4.1213
 Quadrupole moment (field-independent basis, Debye-Ang):
   XX=            -20.8454   YY=            -17.8828   ZZ=            -17.9855
   XY=              0.3486   XZ=              0.1587   YZ=              0.1245

 Normal termination of Gaussian 09 at Wed Aug 26 23:09:13 2020.
