 Gaussian 09, Revision D.01,
 Gaussian 09:  ES64L-G09RevD.01 24-Apr-2013

 --------------------
 #p B2PLYPD3/Def2QZVP
 --------------------

 ------------
 cyanomethane
 ------------
 Symbolic Z-matrix:
 Charge =  0 Multiplicity = 1

                         Standard orientation:
 ---------------------------------------------------------------------
 Center     Atomic      Atomic             Coordinates (Angstroms)
 Number     Number       Type             X           Y           Z
 ---------------------------------------------------------------------
      1          6           0        1.147238   -0.007613   -0.000784
      2          6           0       -0.282902   -0.055420    0.020032
      3          7           0       -1.420268    0.036156   -0.021757
      4          1           0        1.709004    1.043736   -0.286996
      5          1           0        1.637347   -0.751172   -0.626851
      6          1           0        1.409503   -0.167456    0.950655
 ---------------------------------------------------------------------

 SCF Done:  E(RB2PLYPD3) =  -132.514906031     A.U. after   12 cycles
 E2(B2PLYPD3) =    -0.1800930614D+00 E(B2PLYPD3) =    -0.13269499909198D+03

 The electronic state is 1-A.
 Alpha  occ. eigenvalues --  -14.84053 -10.67019 -10.65976  -1.04892  -0.89712
 Alpha  occ. eigenvalues --   -0.60682  -0.55185  -0.51171  -0.45007  -0.39508
 Alpha  occ. eigenvalues --   -0.39005
 Alpha virt. eigenvalues --    0.02998   0.06653   0.08858   0.10111   0.11545
 Alpha virt. eigenvalues --    0.12004   0.15565   0.15845   0.17987   0.19949
 Alpha virt. eigenvalues --    0.20463   0.26099   0.31656   0.33756   0.35523

 Mulliken charges:
               1
     1  C   -0.084300
     2  C    0.004521
     3  N   -0.197748
     4  H    0.084034
     5  H    0.092082
     6  H    0.101409
 Sum of Mulliken charges =   0.00000

 Dipole moment (field-independent basis, Debye):
    X=              4.0784    Y=             -0.1067    Z=              0.1034  Tot=              4.0811
 Quadrupole moment (field-independent basis, Debye-Ang):
   XX=            -20.6483   YY=            -17.7809   ZZ=            -17.8650
   XY=              0.2081   XZ=             -0.1614   YZ=              0.0574

 Normal termination of Gaussian 09 at Wed Aug 26 19:01:57 2020.
