 Gaussian 09, Revision D.01,
 Gaussian 09:  ES64L-G09RevD.01 24-Apr-2013

 --------------------
 #p B2PLYPD3/Def2QZVP
 --------------------

 ------------
 cyanomethane
 ------------
 Symbolic Z-matrix:
 Charge =  0 Multiplicity = 1

                         Standard orientation:
 ---------------------------------------------------------------------
 Center     Atomic      Atomic             Coordinates (Angstroms)
 Number     Number       Type             X           Y           Z
 ---------------------------------------------------------------------
      1          6           0       -1.180912   -0.008220   -0.000730
      2          6           0        0.282640    0.016368   -0.006094
      3          7           0        1.428197   -0.008389    0.003384
      4          1           0       -1.537670   -0.034886    1.005706
      5          1           0       -1.542240   -0.871009   -0.526657
      6          1           0       -1.527841    0.915728   -0.461793
 ---------------------------------------------------------------------

 SCF Done:  E(RB2PLYPD3) =  -132.535920843     A.U. after   11 cycles
 E2(B2PLYPD3) =    -0.1795438670D+00 E(B2PLYPD3) =    -0.13271546470973D+03

 The electronic state is 1-A.
 Alpha  occ. eigenvalues --  -14.83883 -10.66779 -10.65935  -1.04411  -0.89408
 Alpha  occ. eigenvalues --   -0.59451  -0.54545  -0.54012  -0.44687  -0.39342
 Alpha  occ. eigenvalues --   -0.39241
 Alpha virt. eigenvalues --    0.03832   0.08282   0.08341   0.10204   0.11439
 Alpha virt. eigenvalues --    0.11550   0.15392   0.16055   0.16547   0.20031
 Alpha virt. eigenvalues --    0.20087   0.25248   0.32864   0.34621   0.35045

 Mulliken charges:
               1
     1  C   -0.084859
     2  C   -0.004741
     3  N   -0.202400
     4  H    0.096253
     5  H    0.099178
     6  H    0.096569
 Sum of Mulliken charges =   0.00000

 Dipole moment (field-independent basis, Debye):
    X=             -4.1146    Y=              0.0141    Z=              0.0094  Tot=              4.1146
 Quadrupole moment (field-independent basis, Debye-Ang):
   XX=            -21.0425   YY=            -17.6188   ZZ=            -17.7517
   XY=              0.0539   XZ=             -0.0571   YZ=              0.0171

 Normal termination of Gaussian 09 at Wed Aug 26 10:05:43 2020.
