 Gaussian 09, Revision D.01,
 Gaussian 09:  ES64L-G09RevD.01 24-Apr-2013

 --------------------
 #p B2PLYPD3/Def2QZVP
 --------------------

 ------------
 cyanomethane
 ------------
 Symbolic Z-matrix:
 Charge =  0 Multiplicity = 1

                         Standard orientation:
 ---------------------------------------------------------------------
 Center     Atomic      Atomic             Coordinates (Angstroms)
 Number     Number       Type             X           Y           Z
 ---------------------------------------------------------------------
      1          6           0        1.187100   -0.012859   -0.009607
      2          6           0       -0.277629    0.019068   -0.016844
      3          7           0       -1.438841   -0.005148    0.015166
      4          1           0        1.607570   -0.143116    0.986511
      5          1           0        1.553349    0.959838   -0.349318
      6          1           0        1.454141   -0.817941   -0.584647
 ---------------------------------------------------------------------

 SCF Done:  E(RB2PLYPD3) =  -132.530560675     A.U. after   12 cycles
 E2(B2PLYPD3) =    -0.1809295698D+00 E(B2PLYPD3) =    -0.13271149024428D+03

 The electronic state is 1-A.
 Alpha  occ. eigenvalues --  -14.84367 -10.66627 -10.66448  -1.03793  -0.89697
 Alpha  occ. eigenvalues --   -0.59688  -0.56009  -0.52950  -0.44757  -0.39062
 Alpha  occ. eigenvalues --   -0.38782
 Alpha virt. eigenvalues --    0.03805   0.07583   0.08529   0.10182   0.11059
 Alpha virt. eigenvalues --    0.11520   0.15295   0.16025   0.16490   0.20053
 Alpha virt. eigenvalues --    0.20200   0.25214   0.32594   0.34225   0.35564

 Mulliken charges:
               1
     1  C   -0.080621
     2  C   -0.001298
     3  N   -0.210510
     4  H    0.090793
     5  H    0.097076
     6  H    0.104560
 Sum of Mulliken charges =   0.00000

 Dipole moment (field-independent basis, Debye):
    X=              4.1441    Y=              0.0013    Z=              0.0008  Tot=              4.1441
 Quadrupole moment (field-independent basis, Debye-Ang):
   XX=            -21.0048   YY=            -17.5853   ZZ=            -17.9071
   XY=              0.0245   XZ=              0.2338   YZ=              0.0733

 Normal termination of Gaussian 09 at Wed Aug 26 15:01:50 2020.
