 Gaussian 09, Revision D.01,
 Gaussian 09:  ES64L-G09RevD.01 24-Apr-2013

 --------------------
 #p B2PLYPD3/Def2QZVP
 --------------------

 ------------
 cyanomethane
 ------------
 Symbolic Z-matrix:
 Charge =  0 Multiplicity = 1

                         Standard orientation:
 ---------------------------------------------------------------------
 Center     Atomic      Atomic             Coordinates (Angstroms)
 Number     Number       Type             X           Y           Z
 ---------------------------------------------------------------------
      1          6           0        1.198926    0.001179   -0.011534
      2          6           0       -0.291923   -0.010354    0.022800
      3          7           0       -1.434137    0.004772   -0.011128
      4          1           0        1.524645    1.019415   -0.039977
      5          1           0        1.539092   -0.537957   -0.841346
      6          1           0        1.533204   -0.459816    0.891628
 ---------------------------------------------------------------------

 SCF Done:  E(RB2PLYPD3) =  -132.534385031     A.U. after   11 cycles
 E2(B2PLYPD3) =    -0.1791155900D+00 E(B2PLYPD3) =    -0.13271350062094D+03

 The electronic state is 1-A.
 Alpha  occ. eigenvalues --  -14.83791 -10.66590 -10.65902  -1.04455  -0.89350
 Alpha  occ. eigenvalues --   -0.58908  -0.54931  -0.54333  -0.44601  -0.39552
 Alpha  occ. eigenvalues --   -0.39440
 Alpha virt. eigenvalues --    0.03872   0.08652   0.08775   0.10259   0.11304
 Alpha virt. eigenvalues --    0.11386   0.15198   0.15931   0.16561   0.20026
 Alpha virt. eigenvalues --    0.20043   0.24737   0.32704   0.34832   0.35377

 Mulliken charges:
               1
     1  C   -0.084561
     2  C   -0.008239
     3  N   -0.200684
     4  H    0.098290
     5  H    0.099502
     6  H    0.095693
 Sum of Mulliken charges =   0.00000

 Dipole moment (field-independent basis, Debye):
    X=              4.1272    Y=             -0.0104    Z=              0.0223  Tot=              4.1273
 Quadrupole moment (field-independent basis, Debye-Ang):
   XX=            -21.0426   YY=            -17.6437   ZZ=            -17.6841
   XY=              0.0087   XZ=             -0.0537   YZ=              0.0255

 Normal termination of Gaussian 09 at Wed Aug 26 14:39:17 2020.
