 Gaussian 09, Revision D.01,
 Gaussian 09:  ES64L-G09RevD.01 24-Apr-2013

 --------------------
 #p B2PLYPD3/Def2QZVP
 --------------------

 ------------
 cyanomethane
 ------------
 Symbolic Z-matrix:
 Charge =  0 Multiplicity = 1

                         Standard orientation:
 ---------------------------------------------------------------------
 Center     Atomic      Atomic             Coordinates (Angstroms)
 Number     Number       Type             X           Y           Z
 ---------------------------------------------------------------------
      1          6           0       -1.168700    0.025615   -0.006279
      2          6           0        0.278818    0.039844    0.009094
      3          7           0        1.414096   -0.020285   -0.005527
      4          1           0       -1.493199   -0.298773    0.991549
      5          1           0       -1.501667   -0.910870   -0.654704
      6          1           0       -1.564516    0.958885   -0.315049
 ---------------------------------------------------------------------

 SCF Done:  E(RB2PLYPD3) =  -132.527571765     A.U. after   12 cycles
 E2(B2PLYPD3) =    -0.1794526155D+00 E(B2PLYPD3) =    -0.13270702438084D+03

 The electronic state is 1-A.
 Alpha  occ. eigenvalues --  -14.83532 -10.67729 -10.65548  -1.04765  -0.89008
 Alpha  occ. eigenvalues --   -0.59017  -0.55740  -0.51651  -0.44605  -0.39613
 Alpha  occ. eigenvalues --   -0.38828
 Alpha virt. eigenvalues --    0.03454   0.07444   0.08503   0.10168   0.11362
 Alpha virt. eigenvalues --    0.12278   0.15280   0.15794   0.16799   0.19862
 Alpha virt. eigenvalues --    0.20187   0.25495   0.32043   0.33268   0.35402

 Mulliken charges:
               1
     1  C   -0.103811
     2  C   -0.003027
     3  N   -0.197777
     4  H    0.098418
     5  H    0.095146
     6  H    0.111051
 Sum of Mulliken charges =   0.00000

 Dipole moment (field-independent basis, Debye):
    X=             -4.0677    Y=             -0.0024    Z=              0.0547  Tot=              4.0681
 Quadrupole moment (field-independent basis, Debye-Ang):
   XX=            -21.2799   YY=            -17.3642   ZZ=            -17.9323
   XY=              0.1432   XZ=             -0.0459   YZ=             -0.1267

 Normal termination of Gaussian 09 at Wed Aug 26 22:36:39 2020.
