 Gaussian 09, Revision D.01,
 Gaussian 09:  ES64L-G09RevD.01 24-Apr-2013

 --------------------
 #p B2PLYPD3/Def2QZVP
 --------------------

 ------------
 cyanomethane
 ------------
 Symbolic Z-matrix:
 Charge =  0 Multiplicity = 1

                         Standard orientation:
 ---------------------------------------------------------------------
 Center     Atomic      Atomic             Coordinates (Angstroms)
 Number     Number       Type             X           Y           Z
 ---------------------------------------------------------------------
      1          6           0        1.164161   -0.009144    0.003112
      2          6           0       -0.267664   -0.005572   -0.043484
      3          7           0       -1.433979    0.007041    0.017814
      4          1           0        1.615916    0.974598   -0.373289
      5          1           0        1.556533   -0.835761   -0.557989
      6          1           0        1.486422   -0.099827    1.048813
 ---------------------------------------------------------------------

 SCF Done:  E(RB2PLYPD3) =  -132.531047970     A.U. after   12 cycles
 E2(B2PLYPD3) =    -0.1819239320D+00 E(B2PLYPD3) =    -0.13271297190230D+03

 The electronic state is 1-A.
 Alpha  occ. eigenvalues --  -14.84577 -10.67387 -10.66578  -1.03675  -0.89371
 Alpha  occ. eigenvalues --   -0.60143  -0.54481  -0.52829  -0.44901  -0.38713
 Alpha  occ. eigenvalues --   -0.38473
 Alpha virt. eigenvalues --    0.03611   0.06916   0.07677   0.10094   0.11282
 Alpha virt. eigenvalues --    0.11681   0.15526   0.16118   0.16493   0.20089
 Alpha virt. eigenvalues --    0.20207   0.25854   0.32452   0.34064   0.34723

 Mulliken charges:
               1
     1  C   -0.084984
     2  C    0.003220
     3  N   -0.212128
     4  H    0.093995
     5  H    0.100765
     6  H    0.099132
 Sum of Mulliken charges =   0.00000

 Dipole moment (field-independent basis, Debye):
    X=              4.1291    Y=             -0.0201    Z=              0.0052  Tot=              4.1292
 Quadrupole moment (field-independent basis, Debye-Ang):
   XX=            -21.0174   YY=            -17.7474   ZZ=            -17.8607
   XY=              0.0704   XZ=              0.0827   YZ=              0.0537

 Normal termination of Gaussian 09 at Wed Aug 26 10:41:26 2020.
