 Gaussian 09, Revision D.01,
 Gaussian 09:  ES64L-G09RevD.01 24-Apr-2013

 --------------------
 #p B2PLYPD3/Def2QZVP
 --------------------

 ------------
 cyanomethane
 ------------
 Symbolic Z-matrix:
 Charge =  0 Multiplicity = 1

                         Standard orientation:
 ---------------------------------------------------------------------
 Center     Atomic      Atomic             Coordinates (Angstroms)
 Number     Number       Type             X           Y           Z
 ---------------------------------------------------------------------
      1          6           0        1.170408   -0.001600   -0.011185
      2          6           0       -0.278323    0.011395    0.014226
      3          7           0       -1.429610   -0.007622   -0.006414
      4          1           0        1.526840    1.009953   -0.003967
      5          1           0        1.566148   -0.518347   -0.834939
      6          1           0        1.561774   -0.497025    0.865558
 ---------------------------------------------------------------------

 SCF Done:  E(RB2PLYPD3) =  -132.534693226     A.U. after   11 cycles
 E2(B2PLYPD3) =    -0.1799707216D+00 E(B2PLYPD3) =    -0.13271466394775D+03

 The electronic state is 1-A.
 Alpha  occ. eigenvalues --  -14.84123 -10.66330 -10.66144  -1.04274  -0.89826
 Alpha  occ. eigenvalues --   -0.60457  -0.54713  -0.53803  -0.44821  -0.39227
 Alpha  occ. eigenvalues --   -0.39090
 Alpha virt. eigenvalues --    0.03874   0.08032   0.08230   0.10161   0.11418
 Alpha virt. eigenvalues --    0.11586   0.15547   0.16216   0.16800   0.20057
 Alpha virt. eigenvalues --    0.20124   0.25541   0.33022   0.34694   0.35301

 Mulliken charges:
               1
     1  C   -0.070679
     2  C   -0.000809
     3  N   -0.205287
     4  H    0.093752
     5  H    0.093766
     6  H    0.089257
 Sum of Mulliken charges =   0.00000

 Dipole moment (field-independent basis, Debye):
    X=              4.1317    Y=              0.0012    Z=              0.0146  Tot=              4.1317
 Quadrupole moment (field-independent basis, Debye-Ang):
   XX=            -20.8443   YY=            -17.6671   ZZ=            -17.8050
   XY=             -0.0989   XZ=             -0.0228   YZ=              0.0278

 Normal termination of Gaussian 09 at Wed Aug 26 23:54:34 2020.
