 Gaussian 09, Revision D.01,
 Gaussian 09:  ES64L-G09RevD.01 24-Apr-2013

 --------------------
 #p B2PLYPD3/Def2QZVP
 --------------------

 ------------
 cyanomethane
 ------------
 Symbolic Z-matrix:
 Charge =  0 Multiplicity = 1

                         Standard orientation:
 ---------------------------------------------------------------------
 Center     Atomic      Atomic             Coordinates (Angstroms)
 Number     Number       Type             X           Y           Z
 ---------------------------------------------------------------------
      1          6           0       -1.176902   -0.021426    0.025290
      2          6           0        0.302413   -0.013726   -0.025912
      3          7           0        1.440208    0.017460   -0.002069
      4          1           0       -1.712132    1.072471    0.013800
      5          1           0       -1.401509   -0.498382    0.869467
      6          1           0       -1.720882   -0.485399   -0.865054
 ---------------------------------------------------------------------

 SCF Done:  E(RB2PLYPD3) =  -132.514775469     A.U. after   12 cycles
 E2(B2PLYPD3) =    -0.1798835636D+00 E(B2PLYPD3) =    -0.13269465903219D+03

 The electronic state is 1-A.
 Alpha  occ. eigenvalues --  -14.84020 -10.68037 -10.66177  -1.04920  -0.88473
 Alpha  occ. eigenvalues --   -0.59715  -0.55324  -0.50093  -0.44932  -0.39899
 Alpha  occ. eigenvalues --   -0.39205
 Alpha virt. eigenvalues --    0.03286   0.06568   0.08638   0.10380   0.11310
 Alpha virt. eigenvalues --    0.12025   0.15164   0.16585   0.17293   0.19826
 Alpha virt. eigenvalues --    0.20191   0.24983   0.31273   0.32875   0.35652

 Mulliken charges:
               1
     1  C   -0.088821
     2  C    0.001236
     3  N   -0.195060
     4  H    0.083585
     5  H    0.110400
     6  H    0.088660
 Sum of Mulliken charges =   0.00000

 Dipole moment (field-independent basis, Debye):
    X=             -4.1097    Y=             -0.0578    Z=              0.0046  Tot=              4.1101
 Quadrupole moment (field-independent basis, Debye-Ang):
   XX=            -20.6796   YY=            -17.9543   ZZ=            -17.8287
   XY=             -0.1855   XZ=              0.2407   YZ=             -0.1484

 Normal termination of Gaussian 09 at Wed Aug 26 23:53:30 2020.
