 Gaussian 09, Revision D.01,
 Gaussian 09:  ES64L-G09RevD.01 24-Apr-2013

 --------------------
 #p B2PLYPD3/Def2QZVP
 --------------------

 ------------
 cyanomethane
 ------------
 Symbolic Z-matrix:
 Charge =  0 Multiplicity = 1

                         Standard orientation:
 ---------------------------------------------------------------------
 Center     Atomic      Atomic             Coordinates (Angstroms)
 Number     Number       Type             X           Y           Z
 ---------------------------------------------------------------------
      1          6           0        1.171000   -0.004890   -0.006486
      2          6           0       -0.274922   -0.005397   -0.024508
      3          7           0       -1.434391    0.007478    0.020191
      4          1           0        1.455720   -0.813561   -0.625553
      5          1           0        1.635498   -0.155065    1.029419
      6          1           0        1.573053    0.978011   -0.359240
 ---------------------------------------------------------------------

 SCF Done:  E(RB2PLYPD3) =  -132.529810055     A.U. after   12 cycles
 E2(B2PLYPD3) =    -0.1813274118D+00 E(B2PLYPD3) =    -0.13271113746699D+03

 The electronic state is 1-A.
 Alpha  occ. eigenvalues --  -14.84379 -10.67540 -10.66414  -1.03937  -0.89157
 Alpha  occ. eigenvalues --   -0.59719  -0.54942  -0.52214  -0.44848  -0.38943
 Alpha  occ. eigenvalues --   -0.38687
 Alpha virt. eigenvalues --    0.03566   0.06862   0.08174   0.10120   0.11276
 Alpha virt. eigenvalues --    0.11716   0.15374   0.15904   0.16828   0.20044
 Alpha virt. eigenvalues --    0.20217   0.25573   0.32520   0.33752   0.34851

 Mulliken charges:
               1
     1  C   -0.089029
     2  C    0.001121
     3  N   -0.208427
     4  H    0.104801
     5  H    0.093306
     6  H    0.098229
 Sum of Mulliken charges =   0.00000

 Dipole moment (field-independent basis, Debye):
    X=              4.1212    Y=             -0.0152    Z=             -0.0299  Tot=              4.1213
 Quadrupole moment (field-independent basis, Debye-Ang):
   XX=            -21.0297   YY=            -17.7012   ZZ=            -17.8837
   XY=              0.1060   XZ=              0.2302   YZ=              0.0694

 Normal termination of Gaussian 09 at Wed Aug 26 15:11:23 2020.
