 Gaussian 09, Revision D.01,
 Gaussian 09:  ES64L-G09RevD.01 24-Apr-2013

 --------------------
 #p B2PLYPD3/Def2QZVP
 --------------------

 ------------
 cyanomethane
 ------------
 Symbolic Z-matrix:
 Charge =  0 Multiplicity = 1

                         Standard orientation:
 ---------------------------------------------------------------------
 Center     Atomic      Atomic             Coordinates (Angstroms)
 Number     Number       Type             X           Y           Z
 ---------------------------------------------------------------------
      1          6           0       -1.178692   -0.008166    0.001779
      2          6           0        0.277674    0.009967    0.021997
      3          7           0        1.438322   -0.005137   -0.012135
      4          1           0       -1.548913   -0.020196    1.016936
      5          1           0       -1.565816   -0.882994   -0.561195
      6          1           0       -1.547413    0.928341   -0.513452
 ---------------------------------------------------------------------

 SCF Done:  E(RB2PLYPD3) =  -132.533255940     A.U. after   12 cycles
 E2(B2PLYPD3) =    -0.1812993137D+00 E(B2PLYPD3) =    -0.13271455525402D+03

 The electronic state is 1-A.
 Alpha  occ. eigenvalues --  -14.84393 -10.67680 -10.66468  -1.03853  -0.88882
 Alpha  occ. eigenvalues --   -0.59516  -0.54116  -0.53017  -0.44817  -0.38934
 Alpha  occ. eigenvalues --   -0.38770
 Alpha virt. eigenvalues --    0.03620   0.07324   0.07854   0.10144   0.11310
 Alpha virt. eigenvalues --    0.11540   0.15348   0.16006   0.16515   0.20082
 Alpha virt. eigenvalues --    0.20145   0.25376   0.32489   0.33902   0.34675

 Mulliken charges:
               1
     1  C   -0.090862
     2  C    0.000632
     3  N   -0.208716
     4  H    0.101369
     5  H    0.100480
     6  H    0.097097
 Sum of Mulliken charges =   0.00000

 Dipole moment (field-independent basis, Debye):
    X=             -4.1272    Y=              0.0084    Z=              0.0190  Tot=              4.1272
 Quadrupole moment (field-independent basis, Debye-Ang):
   XX=            -21.0837   YY=            -17.8018   ZZ=            -17.7679
   XY=              0.0356   XZ=              0.0692   YZ=              0.0182

 Normal termination of Gaussian 09 at Thu Aug 27 00:14:13 2020.
