 Gaussian 09, Revision D.01,
 Gaussian 09:  ES64L-G09RevD.01 24-Apr-2013

 --------------------
 #p B2PLYPD3/Def2QZVP
 --------------------

 ------------
 cyanomethane
 ------------
 Symbolic Z-matrix:
 Charge =  0 Multiplicity = 1

                         Standard orientation:
 ---------------------------------------------------------------------
 Center     Atomic      Atomic             Coordinates (Angstroms)
 Number     Number       Type             X           Y           Z
 ---------------------------------------------------------------------
      1          6           0       -1.171513   -0.004079    0.007460
      2          6           0        0.283593   -0.011418   -0.020462
      3          7           0        1.427138    0.005651    0.006910
      4          1           0       -1.562778    0.915635   -0.429461
      5          1           0       -1.511903   -0.049413    1.001976
      6          1           0       -1.587765   -0.812799   -0.542874
 ---------------------------------------------------------------------

 SCF Done:  E(RB2PLYPD3) =  -132.535338181     A.U. after   11 cycles
 E2(B2PLYPD3) =    -0.1793170835D+00 E(B2PLYPD3) =    -0.13271465526428D+03

 The electronic state is 1-A.
 Alpha  occ. eigenvalues --  -14.83916 -10.66390 -10.65947  -1.04567  -0.89658
 Alpha  occ. eigenvalues --   -0.60228  -0.54693  -0.53700  -0.44788  -0.39445
 Alpha  occ. eigenvalues --   -0.39313
 Alpha virt. eigenvalues --    0.03867   0.08157   0.08423   0.10215   0.11477
 Alpha virt. eigenvalues --    0.11637   0.15528   0.16505   0.16607   0.20017
 Alpha virt. eigenvalues --    0.20070   0.25435   0.33014   0.34727   0.35361

 Mulliken charges:
               1
     1  C   -0.072035
     2  C   -0.002714
     3  N   -0.201096
     4  H    0.089522
     5  H    0.094544
     6  H    0.091778
 Sum of Mulliken charges =   0.00000

 Dipole moment (field-independent basis, Debye):
    X=             -4.1215    Y=             -0.0053    Z=             -0.0040  Tot=              4.1215
 Quadrupole moment (field-independent basis, Debye-Ang):
   XX=            -20.8304   YY=            -17.7369   ZZ=            -17.7021
   XY=             -0.0288   XZ=             -0.0004   YZ=              0.0184

 Normal termination of Gaussian 09 at Thu Aug 27 00:06:42 2020.
