 Gaussian 09, Revision D.01,
 Gaussian 09:  ES64L-G09RevD.01 24-Apr-2013

 --------------------
 #p B2PLYPD3/Def2QZVP
 --------------------

 ------------
 cyanomethane
 ------------
 Symbolic Z-matrix:
 Charge =  0 Multiplicity = 1

                         Standard orientation:
 ---------------------------------------------------------------------
 Center     Atomic      Atomic             Coordinates (Angstroms)
 Number     Number       Type             X           Y           Z
 ---------------------------------------------------------------------
      1          6           0       -1.172795    0.016912    0.001333
      2          6           0        0.294578    0.051580    0.000874
      3          7           0        1.440804   -0.018121    0.000808
      4          1           0       -1.555380   -0.534411    0.869081
      5          1           0       -1.497053   -0.671155   -0.805204
      6          1           0       -1.763894    0.921466   -0.082775
 ---------------------------------------------------------------------

 SCF Done:  E(RB2PLYPD3) =  -132.530528171     A.U. after   12 cycles
 E2(B2PLYPD3) =    -0.1803670220D+00 E(B2PLYPD3) =    -0.13271089519272D+03

 The electronic state is 1-A.
 Alpha  occ. eigenvalues --  -14.84258 -10.67388 -10.66481  -1.04516  -0.88755
 Alpha  occ. eigenvalues --   -0.60876  -0.53702  -0.52018  -0.44992  -0.39559
 Alpha  occ. eigenvalues --   -0.39069
 Alpha virt. eigenvalues --    0.03634   0.07642   0.07759   0.10259   0.11305
 Alpha virt. eigenvalues --    0.11949   0.15349   0.16132   0.17909   0.20088
 Alpha virt. eigenvalues --    0.20156   0.25165   0.32473   0.33850   0.35310

 Mulliken charges:
               1
     1  C   -0.072210
     2  C    0.007975
     3  N   -0.201948
     4  H    0.085644
     5  H    0.085772
     6  H    0.094768
 Sum of Mulliken charges =   0.00000

 Dipole moment (field-independent basis, Debye):
    X=             -4.1488    Y=             -0.0379    Z=             -0.0003  Tot=              4.1490
 Quadrupole moment (field-independent basis, Debye-Ang):
   XX=            -20.5616   YY=            -17.7364   ZZ=            -18.0842
   XY=              0.0858   XZ=             -0.0303   YZ=             -0.0148

 Normal termination of Gaussian 09 at Wed Aug 26 21:26:02 2020.
