 Gaussian 09, Revision D.01,
 Gaussian 09:  ES64L-G09RevD.01 24-Apr-2013

 --------------------
 #p B2PLYPD3/Def2QZVP
 --------------------

 ------------
 cyanomethane
 ------------
 Symbolic Z-matrix:
 Charge =  0 Multiplicity = 1

                         Standard orientation:
 ---------------------------------------------------------------------
 Center     Atomic      Atomic             Coordinates (Angstroms)
 Number     Number       Type             X           Y           Z
 ---------------------------------------------------------------------
      1          6           0       -1.157687    0.009855    0.005029
      2          6           0        0.286508    0.038669    0.042807
      3          7           0        1.423924   -0.028672   -0.036948
      4          1           0       -1.785679   -0.613927   -0.862560
      5          1           0       -1.499698    1.047858   -0.069823
      6          1           0       -1.455024   -0.524368    0.904001
 ---------------------------------------------------------------------

 SCF Done:  E(RB2PLYPD3) =  -132.516422493     A.U. after   13 cycles
 E2(B2PLYPD3) =    -0.1806508465D+00 E(B2PLYPD3) =    -0.13269707333984D+03

 The electronic state is 1-A.
 Alpha  occ. eigenvalues --  -14.84023 -10.68325 -10.65998  -1.04798  -0.88558
 Alpha  occ. eigenvalues --   -0.59419  -0.55176  -0.50163  -0.44930  -0.39501
 Alpha  occ. eigenvalues --   -0.38746
 Alpha virt. eigenvalues --    0.02838   0.06215   0.08506   0.10074   0.11463
 Alpha virt. eigenvalues --    0.12113   0.15506   0.15619   0.17663   0.19912
 Alpha virt. eigenvalues --    0.20429   0.25808   0.31293   0.33331   0.34884

 Mulliken charges:
               1
     1  C   -0.100387
     2  C    0.003148
     3  N   -0.196385
     4  H    0.087951
     5  H    0.103755
     6  H    0.101918
 Sum of Mulliken charges =   0.00000

 Dipole moment (field-independent basis, Debye):
    X=             -4.0592    Y=              0.0404    Z=              0.1038  Tot=              4.0607
 Quadrupole moment (field-independent basis, Debye-Ang):
   XX=            -20.9163   YY=            -17.6422   ZZ=            -18.0403
   XY=              0.3033   XZ=              0.3461   YZ=             -0.1681

 Normal termination of Gaussian 09 at Wed Aug 26 20:47:40 2020.
