 Gaussian 09, Revision D.01,
 Gaussian 09:  ES64L-G09RevD.01 24-Apr-2013

 --------------------
 #p B2PLYPD3/Def2QZVP
 --------------------

 ------------
 cyanomethane
 ------------
 Symbolic Z-matrix:
 Charge =  0 Multiplicity = 1

                         Standard orientation:
 ---------------------------------------------------------------------
 Center     Atomic      Atomic             Coordinates (Angstroms)
 Number     Number       Type             X           Y           Z
 ---------------------------------------------------------------------
      1          6           0       -1.182644    0.020608   -0.006404
      2          6           0        0.315160   -0.056849   -0.032735
      3          7           0        1.438110    0.027328    0.020868
      4          1           0       -1.609880    1.071070    0.083661
      5          1           0       -1.657122   -0.584745    0.815829
      6          1           0       -1.594869   -0.460179   -0.810725
 ---------------------------------------------------------------------

 SCF Done:  E(RB2PLYPD3) =  -132.524908701     A.U. after   12 cycles
 E2(B2PLYPD3) =    -0.1786512053D+00 E(B2PLYPD3) =    -0.13270355990590D+03

 The electronic state is 1-A.
 Alpha  occ. eigenvalues --  -14.83749 -10.67528 -10.65923  -1.05345  -0.88226
 Alpha  occ. eigenvalues --   -0.60079  -0.53721  -0.51539  -0.44920  -0.40195
 Alpha  occ. eigenvalues --   -0.39844
 Alpha virt. eigenvalues --    0.03414   0.07566   0.08957   0.10189   0.11400
 Alpha virt. eigenvalues --    0.11865   0.15250   0.16275   0.17915   0.19839
 Alpha virt. eigenvalues --    0.20069   0.25047   0.32483   0.34027   0.34819

 Mulliken charges:
               1
     1  C   -0.073389
     2  C    0.000376
     3  N   -0.188459
     4  H    0.093220
     5  H    0.078831
     6  H    0.089420
 Sum of Mulliken charges =   0.00000

 Dipole moment (field-independent basis, Debye):
    X=             -4.1119    Y=             -0.1000    Z=             -0.0573  Tot=              4.1135
 Quadrupole moment (field-independent basis, Debye-Ang):
   XX=            -20.5327   YY=            -17.5938   ZZ=            -18.1051
   XY=             -0.0163   XZ=             -0.1260   YZ=              0.0657

 Normal termination of Gaussian 09 at Wed Aug 26 21:28:42 2020.
