 Gaussian 09, Revision D.01,
 Gaussian 09:  ES64L-G09RevD.01 24-Apr-2013

 --------------------
 #p B2PLYPD3/Def2QZVP
 --------------------

 ------------
 cyanomethane
 ------------
 Symbolic Z-matrix:
 Charge =  0 Multiplicity = 1

                         Standard orientation:
 ---------------------------------------------------------------------
 Center     Atomic      Atomic             Coordinates (Angstroms)
 Number     Number       Type             X           Y           Z
 ---------------------------------------------------------------------
      1          6           0        1.174240   -0.009736    0.000372
      2          6           0       -0.283360   -0.018461    0.002354
      3          7           0       -1.437112    0.013923   -0.000338
      4          1           0        1.606753    0.952867   -0.365741
      5          1           0        1.529415   -0.756086   -0.622484
      6          1           0        1.578341   -0.125056    0.974235
 ---------------------------------------------------------------------

 SCF Done:  E(RB2PLYPD3) =  -132.532376832     A.U. after   11 cycles
 E2(B2PLYPD3) =    -0.1802876691D+00 E(B2PLYPD3) =    -0.13271266450123D+03

 The electronic state is 1-A.
 Alpha  occ. eigenvalues --  -14.84295 -10.66508 -10.66355  -1.04202  -0.89611
 Alpha  occ. eigenvalues --   -0.60552  -0.55128  -0.52855  -0.44899  -0.39305
 Alpha  occ. eigenvalues --   -0.39042
 Alpha virt. eigenvalues --    0.03772   0.07616   0.08437   0.10183   0.11252
 Alpha virt. eigenvalues --    0.11631   0.15504   0.16471   0.16798   0.20018
 Alpha virt. eigenvalues --    0.20154   0.25364   0.32790   0.34391   0.35554

 Mulliken charges:
               1
     1  C   -0.067074
     2  C    0.000559
     3  N   -0.205557
     4  H    0.085865
     5  H    0.094959
     6  H    0.091249
 Sum of Mulliken charges =   0.00000

 Dipole moment (field-independent basis, Debye):
    X=              4.1433    Y=             -0.0240    Z=              0.0041  Tot=              4.1434
 Quadrupole moment (field-independent basis, Debye-Ang):
   XX=            -20.7402   YY=            -17.8113   ZZ=            -17.7779
   XY=              0.1300   XZ=              0.0214   YZ=              0.0673

 Normal termination of Gaussian 09 at Thu Aug 27 00:03:58 2020.
