 Gaussian 09, Revision D.01,
 Gaussian 09:  ES64L-G09RevD.01 24-Apr-2013

 --------------------
 #p B2PLYPD3/Def2QZVP
 --------------------

 ------------
 cyanomethane
 ------------
 Symbolic Z-matrix:
 Charge =  0 Multiplicity = 1

                         Standard orientation:
 ---------------------------------------------------------------------
 Center     Atomic      Atomic             Coordinates (Angstroms)
 Number     Number       Type             X           Y           Z
 ---------------------------------------------------------------------
      1          6           0        1.182395    0.003462   -0.018844
      2          6           0       -0.288248   -0.038983    0.002679
      3          7           0       -1.437534    0.017916    0.004855
      4          1           0        1.623840    0.052143    1.027695
      5          1           0        1.509151    0.933925   -0.502003
      6          1           0        1.564861   -0.898354   -0.462686
 ---------------------------------------------------------------------

 SCF Done:  E(RB2PLYPD3) =  -132.532698120     A.U. after   11 cycles
 E2(B2PLYPD3) =    -0.1804180646D+00 E(B2PLYPD3) =    -0.13271311618425D+03

 The electronic state is 1-A.
 Alpha  occ. eigenvalues --  -14.84155 -10.67676 -10.66255  -1.04275  -0.88630
 Alpha  occ. eigenvalues --   -0.59435  -0.54829  -0.52034  -0.44804  -0.39371
 Alpha  occ. eigenvalues --   -0.39005
 Alpha virt. eigenvalues --    0.03611   0.07409   0.08223   0.10196   0.11210
 Alpha virt. eigenvalues --    0.11751   0.15225   0.16339   0.16600   0.19940
 Alpha virt. eigenvalues --    0.20136   0.25191   0.32425   0.33760   0.35162

 Mulliken charges:
               1
     1  C   -0.086957
     2  C   -0.000971
     3  N   -0.203081
     4  H    0.088408
     5  H    0.101654
     6  H    0.100948
 Sum of Mulliken charges =   0.00000

 Dipole moment (field-independent basis, Debye):
    X=              4.1206    Y=             -0.0189    Z=              0.0103  Tot=              4.1207
 Quadrupole moment (field-independent basis, Debye-Ang):
   XX=            -20.9829   YY=            -17.5949   ZZ=            -17.9816
   XY=              0.0756   XZ=              0.1519   YZ=              0.0115

 Normal termination of Gaussian 09 at Wed Aug 26 14:16:23 2020.
