 Gaussian 09, Revision D.01,
 Gaussian 09:  ES64L-G09RevD.01 24-Apr-2013

 --------------------
 #p B2PLYPD3/Def2QZVP
 --------------------

 ------------
 cyanomethane
 ------------
 Symbolic Z-matrix:
 Charge =  0 Multiplicity = 1

                         Standard orientation:
 ---------------------------------------------------------------------
 Center     Atomic      Atomic             Coordinates (Angstroms)
 Number     Number       Type             X           Y           Z
 ---------------------------------------------------------------------
      1          6           0       -1.207299   -0.006117    0.010039
      2          6           0        0.295558    0.052407    0.039078
      3          7           0        1.429965   -0.031824   -0.025478
      4          1           0       -1.596346   -0.696627   -0.792732
      5          1           0       -1.461471    0.991037   -0.248815
      6          1           0       -1.481494   -0.349386    0.925192
 ---------------------------------------------------------------------

 SCF Done:  E(RB2PLYPD3) =  -132.525848046     A.U. after   12 cycles
 E2(B2PLYPD3) =    -0.1791833309D+00 E(B2PLYPD3) =    -0.13270503137641D+03

 The electronic state is 1-A.
 Alpha  occ. eigenvalues --  -14.83670 -10.66913 -10.65737  -1.04564  -0.89161
 Alpha  occ. eigenvalues --   -0.58227  -0.56382  -0.52751  -0.44516  -0.39717
 Alpha  occ. eigenvalues --   -0.39358
 Alpha virt. eigenvalues --    0.03581   0.08054   0.09568   0.10200   0.11120
 Alpha virt. eigenvalues --    0.11438   0.15160   0.15394   0.16742   0.19991
 Alpha virt. eigenvalues --    0.20034   0.24742   0.32594   0.33929   0.35778

 Mulliken charges:
               1
     1  C   -0.097900
     2  C   -0.010305
     3  N   -0.198155
     4  H    0.094463
     5  H    0.104303
     6  H    0.107595
 Sum of Mulliken charges =   0.00000

 Dipole moment (field-independent basis, Debye):
    X=             -4.0889    Y=              0.0486    Z=              0.0334  Tot=              4.0893
 Quadrupole moment (field-independent basis, Debye-Ang):
   XX=            -21.2070   YY=            -17.6216   ZZ=            -17.6384
   XY=              0.2728   XZ=              0.2272   YZ=             -0.1225

 Normal termination of Gaussian 09 at Wed Aug 26 18:39:14 2020.
