 Gaussian 09, Revision D.01,
 Gaussian 09:  ES64L-G09RevD.01 24-Apr-2013

 --------------------
 #p B2PLYPD3/Def2QZVP
 --------------------

 ------------
 cyanomethane
 ------------
 Symbolic Z-matrix:
 Charge =  0 Multiplicity = 1

                         Standard orientation:
 ---------------------------------------------------------------------
 Center     Atomic      Atomic             Coordinates (Angstroms)
 Number     Number       Type             X           Y           Z
 ---------------------------------------------------------------------
      1          6           0        1.167733   -0.000177   -0.005509
      2          6           0       -0.280937   -0.017331   -0.003734
      3          7           0       -1.428842    0.006829    0.005586
      4          1           0        1.602090   -0.005178    1.023969
      5          1           0        1.513012    0.926957   -0.483664
      6          1           0        1.566020   -0.864535   -0.523954
 ---------------------------------------------------------------------

 SCF Done:  E(RB2PLYPD3) =  -132.535058066     A.U. after   11 cycles
 E2(B2PLYPD3) =    -0.1800857776D+00 E(B2PLYPD3) =    -0.13271514384363D+03

 The electronic state is 1-A.
 Alpha  occ. eigenvalues --  -14.84046 -10.67307 -10.66077  -1.04417  -0.89082
 Alpha  occ. eigenvalues --   -0.59945  -0.54180  -0.52949  -0.44820  -0.39245
 Alpha  occ. eigenvalues --   -0.39086
 Alpha virt. eigenvalues --    0.03709   0.07577   0.08032   0.10174   0.11508
 Alpha virt. eigenvalues --    0.11737   0.15472   0.16361   0.16625   0.20017
 Alpha virt. eigenvalues --    0.20105   0.25527   0.32807   0.34230   0.34784

 Mulliken charges:
               1
     1  C   -0.083703
     2  C   -0.000993
     3  N   -0.202388
     4  H    0.092294
     5  H    0.097381
     6  H    0.097409
 Sum of Mulliken charges =   0.00000

 Dipole moment (field-independent basis, Debye):
    X=              4.1134    Y=             -0.0052    Z=             -0.0062  Tot=              4.1134
 Quadrupole moment (field-independent basis, Debye-Ang):
   XX=            -20.9444   YY=            -17.6915   ZZ=            -17.8300
   XY=              0.0103   XZ=              0.0922   YZ=              0.0117

 Normal termination of Gaussian 09 at Wed Aug 26 22:47:52 2020.
