 Gaussian 09, Revision D.01,
 Gaussian 09:  ES64L-G09RevD.01 24-Apr-2013

 --------------------
 #p B2PLYPD3/Def2QZVP
 --------------------

 ------------
 cyanomethane
 ------------
 Symbolic Z-matrix:
 Charge =  0 Multiplicity = 1

                         Standard orientation:
 ---------------------------------------------------------------------
 Center     Atomic      Atomic             Coordinates (Angstroms)
 Number     Number       Type             X           Y           Z
 ---------------------------------------------------------------------
      1          6           0        1.178793   -0.023152    0.027796
      2          6           0       -0.306619    0.057934   -0.016751
      3          7           0       -1.441539   -0.026917    0.007087
      4          1           0        1.587856   -0.736579   -0.640412
      5          1           0        1.637657   -0.160453    0.887557
      6          1           0        1.632219    0.876761   -0.363022
 ---------------------------------------------------------------------

 SCF Done:  E(RB2PLYPD3) =  -132.521580801     A.U. after   12 cycles
 E2(B2PLYPD3) =    -0.1789785959D+00 E(B2PLYPD3) =    -0.13270055939644D+03

 The electronic state is 1-A.
 Alpha  occ. eigenvalues --  -14.84119 -10.66308 -10.65775  -1.04970  -0.89730
 Alpha  occ. eigenvalues --   -0.61749  -0.54742  -0.52385  -0.45061  -0.40081
 Alpha  occ. eigenvalues --   -0.39639
 Alpha virt. eigenvalues --    0.03831   0.08261   0.08521   0.10127   0.11378
 Alpha virt. eigenvalues --    0.11691   0.15503   0.16386   0.18228   0.19935
 Alpha virt. eigenvalues --    0.20261   0.25083   0.32813   0.34713   0.36000

 Mulliken charges:
               1
     1  C   -0.046006
     2  C    0.010612
     3  N   -0.196751
     4  H    0.077113
     5  H    0.085569
     6  H    0.069464
 Sum of Mulliken charges =   0.00000

 Dipole moment (field-independent basis, Debye):
    X=              4.1380    Y=              0.0527    Z=             -0.0331  Tot=              4.1384
 Quadrupole moment (field-independent basis, Debye-Ang):
   XX=            -20.2675   YY=            -17.9464   ZZ=            -17.7809
   XY=             -0.1129   XZ=             -0.0023   YZ=              0.0090

 Normal termination of Gaussian 09 at Wed Aug 26 22:46:34 2020.
