 Gaussian 09, Revision D.01,
 Gaussian 09:  ES64L-G09RevD.01 24-Apr-2013

 --------------------
 #p B2PLYPD3/Def2QZVP
 --------------------

 ------------
 cyanomethane
 ------------
 Symbolic Z-matrix:
 Charge =  0 Multiplicity = 1

                         Standard orientation:
 ---------------------------------------------------------------------
 Center     Atomic      Atomic             Coordinates (Angstroms)
 Number     Number       Type             X           Y           Z
 ---------------------------------------------------------------------
      1          6           0       -1.193003    0.039036   -0.001066
      2          6           0        0.268696   -0.046076    0.000216
      3          7           0        1.451084    0.016665   -0.005078
      4          1           0       -1.478723   -0.245136    1.023263
      5          1           0       -1.614698   -0.841911   -0.672278
      6          1           0       -1.518324    1.012627   -0.310339
 ---------------------------------------------------------------------

 SCF Done:  E(RB2PLYPD3) =  -132.523063371     A.U. after   12 cycles
 E2(B2PLYPD3) =    -0.1836693441D+00 E(B2PLYPD3) =    -0.13270673271558D+03

 The electronic state is 1-A.
 Alpha  occ. eigenvalues --  -14.84959 -10.68260 -10.67104  -1.02902  -0.88758
 Alpha  occ. eigenvalues --   -0.58976  -0.55248  -0.51974  -0.44785  -0.38475
 Alpha  occ. eigenvalues --   -0.38004
 Alpha virt. eigenvalues --    0.03451   0.06652   0.07513   0.09999   0.10992
 Alpha virt. eigenvalues --    0.11364   0.15065   0.15196   0.16660   0.20120
 Alpha virt. eigenvalues --    0.20298   0.25367   0.31369   0.33192   0.35037

 Mulliken charges:
               1
     1  C   -0.102711
     2  C    0.005591
     3  N   -0.219536
     4  H    0.104802
     5  H    0.095877
     6  H    0.115976
 Sum of Mulliken charges =   0.00000

 Dipole moment (field-independent basis, Debye):
    X=             -4.1440    Y=             -0.0278    Z=              0.0430  Tot=              4.1443
 Quadrupole moment (field-independent basis, Debye-Ang):
   XX=            -21.3386   YY=            -17.6410   ZZ=            -18.0135
   XY=              0.0174   XZ=              0.0300   YZ=             -0.1137

 Normal termination of Gaussian 09 at Wed Aug 26 23:01:28 2020.
