 Gaussian 09, Revision D.01,
 Gaussian 09:  ES64L-G09RevD.01 24-Apr-2013

 --------------------
 #p B2PLYPD3/Def2QZVP
 --------------------

 ------------
 cyanomethane
 ------------
 Symbolic Z-matrix:
 Charge =  0 Multiplicity = 1

                         Standard orientation:
 ---------------------------------------------------------------------
 Center     Atomic      Atomic             Coordinates (Angstroms)
 Number     Number       Type             X           Y           Z
 ---------------------------------------------------------------------
      1          6           0        1.169796   -0.005171    0.003416
      2          6           0       -0.290274   -0.024524    0.017383
      3          7           0       -1.433404    0.016393   -0.015376
      4          1           0        1.653258    0.953166   -0.403458
      5          1           0        1.603307   -0.804751   -0.586067
      6          1           0        1.500137   -0.084996    0.972362
 ---------------------------------------------------------------------

 SCF Done:  E(RB2PLYPD3) =  -132.529761159     A.U. after   12 cycles
 E2(B2PLYPD3) =    -0.1797324913D+00 E(B2PLYPD3) =    -0.13270949365064D+03

 The electronic state is 1-A.
 Alpha  occ. eigenvalues --  -14.84083 -10.66919 -10.66142  -1.04641  -0.89228
 Alpha  occ. eigenvalues --   -0.60420  -0.54747  -0.52199  -0.44919  -0.39547
 Alpha  occ. eigenvalues --   -0.39275
 Alpha virt. eigenvalues --    0.03609   0.07349   0.08660   0.10180   0.11393
 Alpha virt. eigenvalues --    0.11762   0.15525   0.16218   0.17361   0.19959
 Alpha virt. eigenvalues --    0.20153   0.25389   0.32623   0.34151   0.35370

 Mulliken charges:
               1
     1  C   -0.072531
     2  C    0.000315
     3  N   -0.199587
     4  H    0.085301
     5  H    0.091078
     6  H    0.095424
 Sum of Mulliken charges =   0.00000

 Dipole moment (field-independent basis, Debye):
    X=              4.1203    Y=             -0.0381    Z=              0.0516  Tot=              4.1208
 Quadrupole moment (field-independent basis, Debye-Ang):
   XX=            -20.6927   YY=            -17.8200   ZZ=            -17.7983
   XY=              0.1194   XZ=             -0.1256   YZ=              0.0431

 Normal termination of Gaussian 09 at Wed Aug 26 12:05:55 2020.
