 Gaussian 09, Revision D.01,
 Gaussian 09:  ES64L-G09RevD.01 24-Apr-2013

 --------------------
 #p B2PLYPD3/Def2QZVP
 --------------------

 ------------
 cyanomethane
 ------------
 Symbolic Z-matrix:
 Charge =  0 Multiplicity = 1

                         Standard orientation:
 ---------------------------------------------------------------------
 Center     Atomic      Atomic             Coordinates (Angstroms)
 Number     Number       Type             X           Y           Z
 ---------------------------------------------------------------------
      1          6           0        1.209383    0.010657   -0.030266
      2          6           0       -0.295309    0.028002   -0.046074
      3          7           0       -1.435826   -0.024760    0.037866
      4          1           0        1.703184   -0.310654    1.003751
      5          1           0        1.369809    1.002398   -0.159934
      6          1           0        1.493344   -0.750374   -0.650842
 ---------------------------------------------------------------------

 SCF Done:  E(RB2PLYPD3) =  -132.510953612     A.U. after   12 cycles
 E2(B2PLYPD3) =    -0.1800934590D+00 E(B2PLYPD3) =    -0.13269104707150D+03

 The electronic state is 1-A.
 Alpha  occ. eigenvalues --  -14.83890 -10.67161 -10.65976  -1.04399  -0.89328
 Alpha  occ. eigenvalues --   -0.59381  -0.57174  -0.50616  -0.44558  -0.39718
 Alpha  occ. eigenvalues --   -0.38963
 Alpha virt. eigenvalues --    0.03265   0.07337   0.09683   0.10290   0.10814
 Alpha virt. eigenvalues --    0.11650   0.14887   0.15668   0.16849   0.19914
 Alpha virt. eigenvalues --    0.20146   0.24489   0.31391   0.33417   0.36856

 Mulliken charges:
               1
     1  C   -0.096361
     2  C   -0.008530
     3  N   -0.200501
     4  H    0.081590
     5  H    0.114571
     6  H    0.109230
 Sum of Mulliken charges =   0.00000

 Dipole moment (field-independent basis, Debye):
    X=              4.0930    Y=              0.0175    Z=             -0.0516  Tot=              4.0933
 Quadrupole moment (field-independent basis, Debye-Ang):
   XX=            -21.1683   YY=            -17.3701   ZZ=            -18.0511
   XY=             -0.3579   XZ=              0.4253   YZ=              0.1192

 Normal termination of Gaussian 09 at Wed Aug 26 22:24:14 2020.
