 Gaussian 09, Revision D.01,
 Gaussian 09:  ES64L-G09RevD.01 24-Apr-2013

 --------------------
 #p B2PLYPD3/Def2QZVP
 --------------------

 ------------
 cyanomethane
 ------------
 Symbolic Z-matrix:
 Charge =  0 Multiplicity = 1

                         Standard orientation:
 ---------------------------------------------------------------------
 Center     Atomic      Atomic             Coordinates (Angstroms)
 Number     Number       Type             X           Y           Z
 ---------------------------------------------------------------------
      1          6           0        1.156103   -0.014689   -0.048412
      2          6           0       -0.274022    0.059379    0.025655
      3          7           0       -1.424388   -0.031362   -0.006494
      4          1           0        1.535345    1.062178    0.004346
      5          1           0        1.555176   -0.602444   -0.752973
      6          1           0        1.587712   -0.508336    0.930630
 ---------------------------------------------------------------------

 SCF Done:  E(RB2PLYPD3) =  -132.518646969     A.U. after   12 cycles
 E2(B2PLYPD3) =    -0.1811268329D+00 E(B2PLYPD3) =    -0.13269977380158D+03

 The electronic state is 1-A.
 Alpha  occ. eigenvalues --  -14.84291 -10.67356 -10.66257  -1.04295  -0.89374
 Alpha  occ. eigenvalues --   -0.61449  -0.54786  -0.51252  -0.44954  -0.39217
 Alpha  occ. eigenvalues --   -0.38489
 Alpha virt. eigenvalues --    0.03524   0.06874   0.07659   0.09848   0.11418
 Alpha virt. eigenvalues --    0.12062   0.15310   0.16010   0.17596   0.19938
 Alpha virt. eigenvalues --    0.20273   0.26090   0.32082   0.32674   0.35689

 Mulliken charges:
               1
     1  C   -0.085657
     2  C    0.009512
     3  N   -0.205521
     4  H    0.096147
     5  H    0.105431
     6  H    0.080087
 Sum of Mulliken charges =   0.00000

 Dipole moment (field-independent basis, Debye):
    X=              4.0768    Y=              0.0111    Z=              0.0281  Tot=              4.0769
 Quadrupole moment (field-independent basis, Debye-Ang):
   XX=            -20.9711   YY=            -17.5623   ZZ=            -18.0337
   XY=             -0.2933   XZ=              0.0595   YZ=              0.1608

 Normal termination of Gaussian 09 at Wed Aug 26 23:10:34 2020.
