 Gaussian 09, Revision D.01,
 Gaussian 09:  ES64L-G09RevD.01 24-Apr-2013

 --------------------
 #p B2PLYPD3/Def2QZVP
 --------------------

 ------------
 cyanomethane
 ------------
 Symbolic Z-matrix:
 Charge =  0 Multiplicity = 1

                         Standard orientation:
 ---------------------------------------------------------------------
 Center     Atomic      Atomic             Coordinates (Angstroms)
 Number     Number       Type             X           Y           Z
 ---------------------------------------------------------------------
      1          6           0        1.166945    0.001629   -0.005119
      2          6           0       -0.278243    0.010649   -0.014393
      3          7           0       -1.429649   -0.006342    0.012718
      4          1           0        1.620768   -0.328258    0.967449
      5          1           0        1.538042    1.000183   -0.199604
      6          1           0        1.516522   -0.701199   -0.739802
 ---------------------------------------------------------------------

 SCF Done:  E(RB2PLYPD3) =  -132.534095446     A.U. after   12 cycles
 E2(B2PLYPD3) =    -0.1803453401D+00 E(B2PLYPD3) =    -0.13271444078579D+03

 The electronic state is 1-A.
 Alpha  occ. eigenvalues --  -14.84147 -10.67084 -10.66165  -1.04282  -0.89324
 Alpha  occ. eigenvalues --   -0.60105  -0.54694  -0.52769  -0.44839  -0.39178
 Alpha  occ. eigenvalues --   -0.38968
 Alpha virt. eigenvalues --    0.03716   0.07412   0.08182   0.10151   0.11419
 Alpha virt. eigenvalues --    0.11733   0.15511   0.16192   0.16782   0.20025
 Alpha virt. eigenvalues --    0.20150   0.25592   0.32839   0.34232   0.34962

 Mulliken charges:
               1
     1  C   -0.080603
     2  C   -0.000368
     3  N   -0.204484
     4  H    0.090463
     5  H    0.097489
     6  H    0.097503
 Sum of Mulliken charges =   0.00000

 Dipole moment (field-independent basis, Debye):
    X=              4.1200    Y=              0.0011    Z=             -0.0204  Tot=              4.1201
 Quadrupole moment (field-independent basis, Debye-Ang):
   XX=            -20.9197   YY=            -17.6694   ZZ=            -17.8626
   XY=             -0.0663   XZ=              0.1511   YZ=              0.0356

 Normal termination of Gaussian 09 at Wed Aug 26 09:31:11 2020.
