 Gaussian 09, Revision D.01,
 Gaussian 09:  ES64L-G09RevD.01 24-Apr-2013

 --------------------
 #p B2PLYPD3/Def2QZVP
 --------------------

 ------------
 cyanomethane
 ------------
 Symbolic Z-matrix:
 Charge =  0 Multiplicity = 1

                         Standard orientation:
 ---------------------------------------------------------------------
 Center     Atomic      Atomic             Coordinates (Angstroms)
 Number     Number       Type             X           Y           Z
 ---------------------------------------------------------------------
      1          6           0        1.185588   -0.006363    0.001268
      2          6           0       -0.275565    0.016446   -0.006857
      3          7           0       -1.440369   -0.006937    0.003060
      4          1           0        1.555395    0.949674   -0.374883
      5          1           0        1.533458   -0.811160   -0.628286
      6          1           0        1.533596   -0.150451    1.015282
 ---------------------------------------------------------------------

 SCF Done:  E(RB2PLYPD3) =  -132.534623170     A.U. after   11 cycles
 E2(B2PLYPD3) =    -0.1812996219D+00 E(B2PLYPD3) =    -0.13271592279175D+03

 The electronic state is 1-A.
 Alpha  occ. eigenvalues --  -14.84448 -10.67077 -10.66536  -1.03659  -0.89342
 Alpha  occ. eigenvalues --   -0.59509  -0.54354  -0.54039  -0.44769  -0.38834
 Alpha  occ. eigenvalues --   -0.38790
 Alpha virt. eigenvalues --    0.03767   0.07844   0.07866   0.10168   0.11278
 Alpha virt. eigenvalues --    0.11311   0.15325   0.16057   0.16271   0.20130
 Alpha virt. eigenvalues --    0.20150   0.25260   0.32572   0.34559   0.34774

 Mulliken charges:
               1
     1  C   -0.085737
     2  C   -0.000851
     3  N   -0.211567
     4  H    0.097930
     5  H    0.100533
     6  H    0.099692
 Sum of Mulliken charges =   0.00000

 Dipole moment (field-independent basis, Debye):
    X=              4.1439    Y=              0.0077    Z=             -0.0010  Tot=              4.1440
 Quadrupole moment (field-independent basis, Debye-Ang):
   XX=            -21.0805   YY=            -17.7522   ZZ=            -17.7632
   XY=             -0.0212   XZ=              0.0167   YZ=              0.0126

 Normal termination of Gaussian 09 at Wed Aug 26 15:20:53 2020.
