 Gaussian 09, Revision D.01,
 Gaussian 09:  ES64L-G09RevD.01 24-Apr-2013

 --------------------
 #p B2PLYPD3/Def2QZVP
 --------------------

 ------------
 cyanomethane
 ------------
 Symbolic Z-matrix:
 Charge =  0 Multiplicity = 1

                         Standard orientation:
 ---------------------------------------------------------------------
 Center     Atomic      Atomic             Coordinates (Angstroms)
 Number     Number       Type             X           Y           Z
 ---------------------------------------------------------------------
      1          6           0        1.183185   -0.000347   -0.011746
      2          6           0       -0.285337   -0.009129   -0.008663
      3          7           0       -1.433803    0.002689    0.009374
      4          1           0        1.602688   -0.123673    1.016379
      5          1           0        1.503901    0.959634   -0.364497
      6          1           0        1.542944   -0.797929   -0.595049
 ---------------------------------------------------------------------

 SCF Done:  E(RB2PLYPD3) =  -132.534190639     A.U. after   12 cycles
 E2(B2PLYPD3) =    -0.1798628952D+00 E(B2PLYPD3) =    -0.13271405353454D+03

 The electronic state is 1-A.
 Alpha  occ. eigenvalues --  -14.84026 -10.66934 -10.66108  -1.04322  -0.89257
 Alpha  occ. eigenvalues --   -0.59561  -0.55199  -0.52958  -0.44742  -0.39390
 Alpha  occ. eigenvalues --   -0.39134
 Alpha virt. eigenvalues --    0.03771   0.07828   0.08560   0.10228   0.11269
 Alpha virt. eigenvalues --    0.11629   0.15334   0.16262   0.16521   0.20004
 Alpha virt. eigenvalues --    0.20115   0.25136   0.32662   0.34277   0.35356

 Mulliken charges:
               1
     1  C   -0.082385
     2  C   -0.003552
     3  N   -0.203202
     4  H    0.090349
     5  H    0.099183
     6  H    0.099608
 Sum of Mulliken charges =   0.00000

 Dipole moment (field-independent basis, Debye):
    X=              4.1262    Y=             -0.0017    Z=             -0.0102  Tot=              4.1262
 Quadrupole moment (field-independent basis, Debye-Ang):
   XX=            -20.9724   YY=            -17.6331   ZZ=            -17.8291
   XY=             -0.0191   XZ=              0.1298   YZ=              0.0301

 Normal termination of Gaussian 09 at Thu Aug 27 00:13:20 2020.
