 Gaussian 09, Revision D.01,
 Gaussian 09:  ES64L-G09RevD.01 24-Apr-2013

 --------------------
 #p B2PLYPD3/Def2QZVP
 --------------------

 ------------
 cyanomethane
 ------------
 Symbolic Z-matrix:
 Charge =  0 Multiplicity = 1

                         Standard orientation:
 ---------------------------------------------------------------------
 Center     Atomic      Atomic             Coordinates (Angstroms)
 Number     Number       Type             X           Y           Z
 ---------------------------------------------------------------------
      1          6           0       -1.169601    0.012050   -0.001275
      2          6           0        0.282089   -0.012586   -0.011793
      3          7           0        1.430250    0.003776    0.006855
      4          1           0       -1.541476    0.927152   -0.477801
      5          1           0       -1.569439   -0.050039    1.057967
      6          1           0       -1.575765   -0.900329   -0.549748
 ---------------------------------------------------------------------

 SCF Done:  E(RB2PLYPD3) =  -132.532729123     A.U. after   11 cycles
 E2(B2PLYPD3) =    -0.1804217261D+00 E(B2PLYPD3) =    -0.13271315084920D+03

 The electronic state is 1-A.
 Alpha  occ. eigenvalues --  -14.84055 -10.68049 -10.66100  -1.04395  -0.88548
 Alpha  occ. eigenvalues --   -0.59448  -0.53741  -0.52515  -0.44808  -0.39209
 Alpha  occ. eigenvalues --   -0.39006
 Alpha virt. eigenvalues --    0.03576   0.07344   0.07733   0.10155   0.11556
 Alpha virt. eigenvalues --    0.11766   0.15393   0.16225   0.16575   0.20022
 Alpha virt. eigenvalues --    0.20084   0.25465   0.32487   0.33682   0.34542

 Mulliken charges:
               1
     1  C   -0.095016
     2  C   -0.000152
     3  N   -0.201729
     4  H    0.103098
     5  H    0.097595
     6  H    0.096204
 Sum of Mulliken charges =   0.00000

 Dipole moment (field-independent basis, Debye):
    X=             -4.0992    Y=             -0.0049    Z=             -0.0065  Tot=              4.0993
 Quadrupole moment (field-independent basis, Debye-Ang):
   XX=            -21.0748   YY=            -17.7315   ZZ=            -17.8092
   XY=              0.0081   XZ=             -0.0589   YZ=             -0.0431

 Normal termination of Gaussian 09 at Wed Aug 26 21:43:14 2020.
