 Gaussian 09, Revision D.01,
 Gaussian 09:  ES64L-G09RevD.01 24-Apr-2013

 --------------------
 #p B2PLYPD3/Def2QZVP
 --------------------

 ------------
 cyanomethane
 ------------
 Symbolic Z-matrix:
 Charge =  0 Multiplicity = 1

                         Standard orientation:
 ---------------------------------------------------------------------
 Center     Atomic      Atomic             Coordinates (Angstroms)
 Number     Number       Type             X           Y           Z
 ---------------------------------------------------------------------
      1          6           0       -1.182817    0.005473    0.003938
      2          6           0        0.291708   -0.011268   -0.017162
      3          7           0        1.437940   -0.001605    0.004154
      4          1           0       -1.501865    0.997018   -0.284599
      5          1           0       -1.530372   -0.204468    0.982333
      6          1           0       -1.686687   -0.746544   -0.647468
 ---------------------------------------------------------------------

 SCF Done:  E(RB2PLYPD3) =  -132.533847211     A.U. after   12 cycles
 E2(B2PLYPD3) =    -0.1797959664D+00 E(B2PLYPD3) =    -0.13271364317718D+03

 The electronic state is 1-A.
 Alpha  occ. eigenvalues --  -14.84061 -10.67120 -10.66195  -1.04460  -0.88972
 Alpha  occ. eigenvalues --   -0.59880  -0.54321  -0.52927  -0.44815  -0.39420
 Alpha  occ. eigenvalues --   -0.39346
 Alpha virt. eigenvalues --    0.03761   0.07738   0.08427   0.10265   0.11419
 Alpha virt. eigenvalues --    0.11574   0.15283   0.16229   0.16996   0.20005
 Alpha virt. eigenvalues --    0.20084   0.25049   0.32457   0.34816   0.34901

 Mulliken charges:
               1
     1  C   -0.078913
     2  C   -0.001205
     3  N   -0.201456
     4  H    0.096827
     5  H    0.094836
     6  H    0.089912
 Sum of Mulliken charges =   0.00000

 Dipole moment (field-independent basis, Debye):
    X=             -4.1344    Y=              0.0054    Z=              0.0220  Tot=              4.1345
 Quadrupole moment (field-independent basis, Debye-Ang):
   XX=            -20.8226   YY=            -17.7045   ZZ=            -17.8720
   XY=              0.1249   XZ=             -0.0159   YZ=             -0.0450

 Normal termination of Gaussian 09 at Wed Aug 26 13:21:03 2020.
