 Gaussian 09, Revision D.01,
 Gaussian 09:  ES64L-G09RevD.01 24-Apr-2013

 --------------------
 #p B2PLYPD3/Def2QZVP
 --------------------

 ------------
 cyanomethane
 ------------
 Symbolic Z-matrix:
 Charge =  0 Multiplicity = 1

                         Standard orientation:
 ---------------------------------------------------------------------
 Center     Atomic      Atomic             Coordinates (Angstroms)
 Number     Number       Type             X           Y           Z
 ---------------------------------------------------------------------
      1          6           0       -1.169830    0.008053    0.007889
      2          6           0        0.270773    0.005901   -0.019335
      3          7           0        1.434387   -0.005512    0.006406
      4          1           0       -1.587778   -0.875021   -0.540017
      5          1           0       -1.547919    0.896042   -0.451748
      6          1           0       -1.510671   -0.066159    1.015595
 ---------------------------------------------------------------------

 SCF Done:  E(RB2PLYPD3) =  -132.533523182     A.U. after   11 cycles
 E2(B2PLYPD3) =    -0.1812426127D+00 E(B2PLYPD3) =    -0.13271476579458D+03

 The electronic state is 1-A.
 Alpha  occ. eigenvalues --  -14.84446 -10.66847 -10.66467  -1.03792  -0.89654
 Alpha  occ. eigenvalues --   -0.60205  -0.54850  -0.53329  -0.44853  -0.38865
 Alpha  occ. eigenvalues --   -0.38683
 Alpha virt. eigenvalues --    0.03765   0.07430   0.07939   0.10135   0.11309
 Alpha virt. eigenvalues --    0.11555   0.15514   0.16309   0.16347   0.20107
 Alpha virt. eigenvalues --    0.20178   0.25653   0.32701   0.34316   0.35088

 Mulliken charges:
               1
     1  C   -0.078490
     2  C    0.000793
     3  N   -0.210976
     4  H    0.091937
     5  H    0.098160
     6  H    0.098576
 Sum of Mulliken charges =   0.00000

 Dipole moment (field-independent basis, Debye):
    X=             -4.1394    Y=              0.0077    Z=              0.0029  Tot=              4.1394
 Quadrupole moment (field-independent basis, Debye-Ang):
   XX=            -20.9646   YY=            -17.7627   ZZ=            -17.7821
   XY=              0.0604   XZ=             -0.0085   YZ=             -0.0487

 Normal termination of Gaussian 09 at Thu Aug 27 00:02:12 2020.
