 Gaussian 09, Revision D.01,
 Gaussian 09:  ES64L-G09RevD.01 24-Apr-2013

 --------------------
 #p B2PLYPD3/Def2QZVP
 --------------------

 ------------
 cyanomethane
 ------------
 Symbolic Z-matrix:
 Charge =  0 Multiplicity = 1

                         Standard orientation:
 ---------------------------------------------------------------------
 Center     Atomic      Atomic             Coordinates (Angstroms)
 Number     Number       Type             X           Y           Z
 ---------------------------------------------------------------------
      1          6           0        1.179421   -0.004765   -0.009463
      2          6           0       -0.276590   -0.048789    0.027989
      3          7           0       -1.416724    0.023952   -0.010293
      4          1           0        1.544560    0.076887    1.025598
      5          1           0        1.456556    1.026730   -0.546688
      6          1           0        1.498964   -0.949963   -0.518013
 ---------------------------------------------------------------------

 SCF Done:  E(RB2PLYPD3) =  -132.525468503     A.U. after   12 cycles
 E2(B2PLYPD3) =    -0.1802849180D+00 E(B2PLYPD3) =    -0.13270575342061D+03

 The electronic state is 1-A.
 Alpha  occ. eigenvalues --  -14.83637 -10.68572 -10.65666  -1.04448  -0.88423
 Alpha  occ. eigenvalues --   -0.57958  -0.54512  -0.52276  -0.44514  -0.39215
 Alpha  occ. eigenvalues --   -0.38842
 Alpha virt. eigenvalues --    0.03237   0.07367   0.08177   0.10176   0.11499
 Alpha virt. eigenvalues --    0.11913   0.14888   0.15805   0.16054   0.19974
 Alpha virt. eigenvalues --    0.20117   0.25390   0.31947   0.32934   0.34303

 Mulliken charges:
               1
     1  C   -0.122187
     2  C   -0.001392
     3  N   -0.201527
     4  H    0.105078
     5  H    0.106768
     6  H    0.113260
 Sum of Mulliken charges =   0.00000

 Dipole moment (field-independent basis, Debye):
    X=              4.0419    Y=             -0.0271    Z=              0.0559  Tot=              4.0424
 Quadrupole moment (field-independent basis, Debye-Ang):
   XX=            -21.5955   YY=            -17.3971   ZZ=            -17.8460
   XY=              0.1204   XZ=              0.1015   YZ=              0.0871

 Normal termination of Gaussian 09 at Wed Aug 26 23:40:40 2020.
