 Gaussian 09, Revision D.01,
 Gaussian 09:  ES64L-G09RevD.01 24-Apr-2013

 --------------------
 #p B2PLYPD3/Def2QZVP
 --------------------

 ------------
 cyanomethane
 ------------
 Symbolic Z-matrix:
 Charge =  0 Multiplicity = 1

                         Standard orientation:
 ---------------------------------------------------------------------
 Center     Atomic      Atomic             Coordinates (Angstroms)
 Number     Number       Type             X           Y           Z
 ---------------------------------------------------------------------
      1          6           0        1.170089    0.010858    0.007702
      2          6           0       -0.284766   -0.051493   -0.037705
      3          7           0       -1.445622    0.030948    0.022265
      4          1           0        1.657974    1.074146   -0.181828
      5          1           0        1.525170   -0.692461   -0.743769
      6          1           0        1.624273   -0.354509    0.949753
 ---------------------------------------------------------------------

 SCF Done:  E(RB2PLYPD3) =  -132.524566462     A.U. after   12 cycles
 E2(B2PLYPD3) =    -0.1823019916D+00 E(B2PLYPD3) =    -0.13270686845361D+03

 The electronic state is 1-A.
 Alpha  occ. eigenvalues --  -14.84781 -10.68183 -10.66849  -1.03873  -0.88409
 Alpha  occ. eigenvalues --   -0.60224  -0.53138  -0.51876  -0.45084  -0.38837
 Alpha  occ. eigenvalues --   -0.38788
 Alpha virt. eigenvalues --    0.03205   0.06434   0.07692   0.09927   0.11352
 Alpha virt. eigenvalues --    0.11631   0.15394   0.15761   0.17658   0.19979
 Alpha virt. eigenvalues --    0.20358   0.25716   0.32221   0.33632   0.34188

 Mulliken charges:
               1
     1  C   -0.083536
     2  C    0.008170
     3  N   -0.207627
     4  H    0.094964
     5  H    0.094534
     6  H    0.093495
 Sum of Mulliken charges =   0.00000

 Dipole moment (field-independent basis, Debye):
    X=              4.1217    Y=             -0.0902    Z=             -0.0203  Tot=              4.1227
 Quadrupole moment (field-independent basis, Debye-Ang):
   XX=            -20.7943   YY=            -17.7771   ZZ=            -18.0857
   XY=              0.1422   XZ=              0.2028   YZ=              0.0164

 Normal termination of Gaussian 09 at Wed Aug 26 22:23:21 2020.
