 Gaussian 09, Revision D.01,
 Gaussian 09:  ES64L-G09RevD.01 24-Apr-2013

 --------------------
 #p B2PLYPD3/Def2QZVP
 --------------------

 ------------
 cyanomethane
 ------------
 Symbolic Z-matrix:
 Charge =  0 Multiplicity = 1

                         Standard orientation:
 ---------------------------------------------------------------------
 Center     Atomic      Atomic             Coordinates (Angstroms)
 Number     Number       Type             X           Y           Z
 ---------------------------------------------------------------------
      1          6           0       -1.164831    0.002228    0.013107
      2          6           0        0.273107    0.037325   -0.010268
      3          7           0        1.430505   -0.025039    0.005590
      4          1           0       -1.482155    1.004667   -0.108589
      5          1           0       -1.605221   -0.451259    0.879876
      6          1           0       -1.575817   -0.615451   -0.827446
 ---------------------------------------------------------------------

 SCF Done:  E(RB2PLYPD3) =  -132.531404133     A.U. after   12 cycles
 E2(B2PLYPD3) =    -0.1809589047D+00 E(B2PLYPD3) =    -0.13271236303820D+03

 The electronic state is 1-A.
 Alpha  occ. eigenvalues --  -14.84359 -10.66746 -10.66355  -1.04025  -0.89693
 Alpha  occ. eigenvalues --   -0.60591  -0.55074  -0.52715  -0.44889  -0.39005
 Alpha  occ. eigenvalues --   -0.38744
 Alpha virt. eigenvalues --    0.03714   0.07223   0.08207   0.10038   0.11284
 Alpha virt. eigenvalues --    0.11759   0.15479   0.16046   0.17040   0.20010
 Alpha virt. eigenvalues --    0.20255   0.25786   0.32932   0.34149   0.35199

 Mulliken charges:
               1
     1  C   -0.075907
     2  C    0.002204
     3  N   -0.208470
     4  H    0.098454
     5  H    0.094854
     6  H    0.088865
 Sum of Mulliken charges =   0.00000

 Dipole moment (field-independent basis, Debye):
    X=             -4.1269    Y=              0.0227    Z=             -0.0089  Tot=              4.1269
 Quadrupole moment (field-independent basis, Debye-Ang):
   XX=            -20.8823   YY=            -17.6476   ZZ=            -17.9135
   XY=              0.2637   XZ=             -0.0496   YZ=             -0.0503

 Normal termination of Gaussian 09 at Wed Aug 26 15:40:42 2020.
