 Gaussian 09, Revision D.01,
 Gaussian 09:  ES64L-G09RevD.01 24-Apr-2013

 --------------------
 #p B2PLYPD3/Def2QZVP
 --------------------

 ------------
 cyanomethane
 ------------
 Symbolic Z-matrix:
 Charge =  0 Multiplicity = 1

                         Standard orientation:
 ---------------------------------------------------------------------
 Center     Atomic      Atomic             Coordinates (Angstroms)
 Number     Number       Type             X           Y           Z
 ---------------------------------------------------------------------
      1          6           0        1.145639    0.015502   -0.005665
      2          6           0       -0.256129    0.026756   -0.063812
      3          7           0       -1.428701   -0.018241    0.035935
      4          1           0        1.523530    0.999574    0.136451
      5          1           0        1.541560   -0.499023   -0.808213
      6          1           0        1.598754   -0.626408    0.837076
 ---------------------------------------------------------------------

 SCF Done:  E(RB2PLYPD3) =  -132.521615945     A.U. after   12 cycles
 E2(B2PLYPD3) =    -0.1827964516D+00 E(B2PLYPD3) =    -0.13270441239698D+03

 The electronic state is 1-A.
 Alpha  occ. eigenvalues --  -14.84878 -10.66734 -10.66338  -1.03452  -0.90444
 Alpha  occ. eigenvalues --   -0.61566  -0.56367  -0.51811  -0.45045  -0.38605
 Alpha  occ. eigenvalues --   -0.37917
 Alpha virt. eigenvalues --    0.03339   0.06575   0.07892   0.09928   0.10999
 Alpha virt. eigenvalues --    0.11950   0.15766   0.16142   0.16952   0.20066
 Alpha virt. eigenvalues --    0.20357   0.26438   0.33057   0.33471   0.35647

 Mulliken charges:
               1
     1  C   -0.066465
     2  C    0.007656
     3  N   -0.216238
     4  H    0.099612
     5  H    0.093766
     6  H    0.081670
 Sum of Mulliken charges =   0.00000

 Dipole moment (field-independent basis, Debye):
    X=              4.1467    Y=             -0.0191    Z=             -0.0507  Tot=              4.1471
 Quadrupole moment (field-independent basis, Debye-Ang):
   XX=            -20.7819   YY=            -17.5936   ZZ=            -18.0800
   XY=             -0.2557   XZ=              0.2239   YZ=              0.1393

 Normal termination of Gaussian 09 at Wed Aug 26 22:36:46 2020.
