 Gaussian 09, Revision D.01,
 Gaussian 09:  ES64L-G09RevD.01 24-Apr-2013

 --------------------
 #p B2PLYPD3/Def2QZVP
 --------------------

 ------------
 cyanomethane
 ------------
 Symbolic Z-matrix:
 Charge =  0 Multiplicity = 1

                         Standard orientation:
 ---------------------------------------------------------------------
 Center     Atomic      Atomic             Coordinates (Angstroms)
 Number     Number       Type             X           Y           Z
 ---------------------------------------------------------------------
      1          6           0        1.173075   -0.016301   -0.005299
      2          6           0       -0.264331    0.011487   -0.054059
      3          7           0       -1.451606   -0.002454    0.022747
      4          1           0        1.612692    0.986986   -0.114582
      5          1           0        1.624898   -0.646790   -0.590680
      6          1           0        1.471185   -0.294129    0.902180
 ---------------------------------------------------------------------

 SCF Done:  E(RB2PLYPD3) =  -132.510775925     A.U. after   12 cycles
 E2(B2PLYPD3) =    -0.1831085009D+00 E(B2PLYPD3) =    -0.13269388442585D+03

 The electronic state is 1-A.
 Alpha  occ. eigenvalues --  -14.85321 -10.67423 -10.64898  -1.02945  -0.91312
 Alpha  occ. eigenvalues --   -0.62642  -0.55854  -0.53889  -0.45120  -0.38539
 Alpha  occ. eigenvalues --   -0.38229
 Alpha virt. eigenvalues --    0.03858   0.07156   0.07827   0.10111   0.10979
 Alpha virt. eigenvalues --    0.11507   0.15653   0.16106   0.17281   0.20242
 Alpha virt. eigenvalues --    0.20311   0.25772   0.32483   0.34843   0.36009

 Mulliken charges:
               1
     1  C   -0.044488
     2  C    0.014956
     3  N   -0.222278
     4  H    0.082611
     5  H    0.085401
     6  H    0.083797
 Sum of Mulliken charges =   0.00000

 Dipole moment (field-independent basis, Debye):
    X=              4.2098    Y=             -0.0361    Z=              0.0424  Tot=              4.2102
 Quadrupole moment (field-independent basis, Debye-Ang):
   XX=            -20.4844   YY=            -17.7200   ZZ=            -18.0337
   XY=             -0.0675   XZ=              0.1784   YZ=              0.0502

 Normal termination of Gaussian 09 at Wed Aug 26 20:57:28 2020.
