 Gaussian 09, Revision D.01,
 Gaussian 09:  ES64L-G09RevD.01 24-Apr-2013

 --------------------
 #p B2PLYPD3/Def2QZVP
 --------------------

 ------------
 cyanomethane
 ------------
 Symbolic Z-matrix:
 Charge =  0 Multiplicity = 1

                         Standard orientation:
 ---------------------------------------------------------------------
 Center     Atomic      Atomic             Coordinates (Angstroms)
 Number     Number       Type             X           Y           Z
 ---------------------------------------------------------------------
      1          6           0       -1.178437    0.002792    0.001356
      2          6           0        0.283068   -0.018157   -0.036887
      3          7           0        1.420163    0.008350    0.019756
      4          1           0       -1.509181    0.950202   -0.416585
      5          1           0       -1.530477   -0.075698    1.050706
      6          1           0       -1.529267   -0.840759   -0.559233
 ---------------------------------------------------------------------

 SCF Done:  E(RB2PLYPD3) =  -132.535279301     A.U. after   11 cycles
 E2(B2PLYPD3) =    -0.1791329499D+00 E(B2PLYPD3) =    -0.13271441225078D+03

 The electronic state is 1-A.
 Alpha  occ. eigenvalues --  -14.83629 -10.67121 -10.65644  -1.04673  -0.89164
 Alpha  occ. eigenvalues --   -0.58902  -0.54774  -0.53553  -0.44614  -0.39460
 Alpha  occ. eigenvalues --   -0.39318
 Alpha virt. eigenvalues --    0.03727   0.08030   0.08632   0.10196   0.11500
 Alpha virt. eigenvalues --    0.11713   0.15391   0.15931   0.16462   0.19985
 Alpha virt. eigenvalues --    0.20066   0.25352   0.32962   0.34254   0.34888

 Mulliken charges:
               1
     1  C   -0.095409
     2  C   -0.006441
     3  N   -0.198554
     4  H    0.101296
     5  H    0.098312
     6  H    0.100796
 Sum of Mulliken charges =   0.00000

 Dipole moment (field-independent basis, Debye):
    X=             -4.0817    Y=             -0.0130    Z=             -0.0259  Tot=              4.0818
 Quadrupole moment (field-independent basis, Debye-Ang):
   XX=            -21.1797   YY=            -17.5925   ZZ=            -17.6873
   XY=             -0.0302   XZ=             -0.1355   YZ=              0.0077

 Normal termination of Gaussian 09 at Wed Aug 26 15:25:28 2020.
