 Gaussian 09, Revision D.01,
 Gaussian 09:  ES64L-G09RevD.01 24-Apr-2013

 --------------------
 #p B2PLYPD3/Def2QZVP
 --------------------

 ------------
 cyanomethane
 ------------
 Symbolic Z-matrix:
 Charge =  0 Multiplicity = 1

                         Standard orientation:
 ---------------------------------------------------------------------
 Center     Atomic      Atomic             Coordinates (Angstroms)
 Number     Number       Type             X           Y           Z
 ---------------------------------------------------------------------
      1          6           0        1.168572    0.005829   -0.002267
      2          6           0       -0.281005   -0.020399    0.002628
      3          7           0       -1.427191    0.005926    0.001172
      4          1           0        1.597233   -0.200376    1.003867
      5          1           0        1.491723    0.999209   -0.320819
      6          1           0        1.575978   -0.752897   -0.693414
 ---------------------------------------------------------------------

 SCF Done:  E(RB2PLYPD3) =  -132.535303046     A.U. after   12 cycles
 E2(B2PLYPD3) =    -0.1799613537D+00 E(B2PLYPD3) =    -0.13271526440004D+03

 The electronic state is 1-A.
 Alpha  occ. eigenvalues --  -14.83969 -10.67413 -10.66001  -1.04467  -0.89007
 Alpha  occ. eigenvalues --   -0.59717  -0.53936  -0.53204  -0.44784  -0.39210
 Alpha  occ. eigenvalues --   -0.39170
 Alpha virt. eigenvalues --    0.03708   0.07689   0.07961   0.10187   0.11621
 Alpha virt. eigenvalues --    0.11670   0.15441   0.16309   0.16560   0.20041
 Alpha virt. eigenvalues --    0.20067   0.25517   0.32757   0.34375   0.34561

 Mulliken charges:
               1
     1  C   -0.087869
     2  C   -0.001568
     3  N   -0.201669
     4  H    0.095009
     5  H    0.099897
     6  H    0.096201
 Sum of Mulliken charges =   0.00000

 Dipole moment (field-independent basis, Debye):
    X=              4.1065    Y=             -0.0032    Z=             -0.0042  Tot=              4.1065
 Quadrupole moment (field-independent basis, Debye-Ang):
   XX=            -21.0002   YY=            -17.7103   ZZ=            -17.7770
   XY=             -0.0281   XZ=              0.0421   YZ=             -0.0061

 Normal termination of Gaussian 09 at Wed Aug 26 23:49:19 2020.
