 Gaussian 09, Revision D.01,
 Gaussian 09:  ES64L-G09RevD.01 24-Apr-2013

 --------------------
 #p B2PLYPD3/Def2QZVP
 --------------------

 ------------
 cyanomethane
 ------------
 Symbolic Z-matrix:
 Charge =  0 Multiplicity = 1

                         Standard orientation:
 ---------------------------------------------------------------------
 Center     Atomic      Atomic             Coordinates (Angstroms)
 Number     Number       Type             X           Y           Z
 ---------------------------------------------------------------------
      1          6           0       -1.176962    0.007191   -0.003003
      2          6           0        0.280298   -0.004344   -0.023586
      3          7           0        1.428322    0.002670    0.012226
      4          1           0       -1.530496   -0.160818    1.004127
      5          1           0       -1.531564   -0.817725   -0.589444
      6          1           0       -1.556210    0.942767   -0.340737
 ---------------------------------------------------------------------

 SCF Done:  E(RB2PLYPD3) =  -132.535508599     A.U. after   11 cycles
 E2(B2PLYPD3) =    -0.1797428552D+00 E(B2PLYPD3) =    -0.13271525145470D+03

 The electronic state is 1-A.
 Alpha  occ. eigenvalues --  -14.83980 -10.66579 -10.66018  -1.04334  -0.89606
 Alpha  occ. eigenvalues --   -0.59772  -0.55008  -0.53668  -0.44732  -0.39324
 Alpha  occ. eigenvalues --   -0.39114
 Alpha virt. eigenvalues --    0.03842   0.08112   0.08397   0.10192   0.11333
 Alpha virt. eigenvalues --    0.11636   0.15465   0.16122   0.16600   0.20019
 Alpha virt. eigenvalues --    0.20122   0.25372   0.32958   0.34518   0.35303

 Mulliken charges:
               1
     1  C   -0.079510
     2  C   -0.003369
     3  N   -0.203870
     4  H    0.092815
     5  H    0.095676
     6  H    0.098257
 Sum of Mulliken charges =   0.00000

 Dipole moment (field-independent basis, Debye):
    X=             -4.1213    Y=             -0.0156    Z=              0.0016  Tot=              4.1213
 Quadrupole moment (field-independent basis, Debye-Ang):
   XX=            -20.9773   YY=            -17.5929   ZZ=            -17.8087
   XY=             -0.0055   XZ=             -0.1107   YZ=             -0.0057

 Normal termination of Gaussian 09 at Wed Aug 26 23:07:45 2020.
