 Gaussian 09, Revision D.01,
 Gaussian 09:  ES64L-G09RevD.01 24-Apr-2013

 --------------------
 #p B2PLYPD3/Def2QZVP
 --------------------

 ------------
 cyanomethane
 ------------
 Symbolic Z-matrix:
 Charge =  0 Multiplicity = 1

                         Standard orientation:
 ---------------------------------------------------------------------
 Center     Atomic      Atomic             Coordinates (Angstroms)
 Number     Number       Type             X           Y           Z
 ---------------------------------------------------------------------
      1          6           0        1.159219   -0.014026   -0.020957
      2          6           0       -0.286821    0.013345    0.050130
      3          7           0       -1.413238   -0.000363   -0.030947
      4          1           0        1.640869    1.049016   -0.255023
      5          1           0        1.571400   -0.774156   -0.674463
      6          1           0        1.446011   -0.268230    0.971079
 ---------------------------------------------------------------------

 SCF Done:  E(RB2PLYPD3) =  -132.526394356     A.U. after   12 cycles
 E2(B2PLYPD3) =    -0.1789161150D+00 E(B2PLYPD3) =    -0.13270531047123D+03

 The electronic state is 1-A.
 Alpha  occ. eigenvalues --  -14.83507 -10.67519 -10.65481  -1.05204  -0.88979
 Alpha  occ. eigenvalues --   -0.59596  -0.53970  -0.52487  -0.44759  -0.39668
 Alpha  occ. eigenvalues --   -0.39401
 Alpha virt. eigenvalues --    0.03486   0.07245   0.08675   0.10106   0.11799
 Alpha virt. eigenvalues --    0.11977   0.15326   0.15611   0.17889   0.19959
 Alpha virt. eigenvalues --    0.20106   0.25827   0.32140   0.34071   0.34921

 Mulliken charges:
               1
     1  C   -0.097301
     2  C   -0.000850
     3  N   -0.191984
     4  H    0.092741
     5  H    0.100833
     6  H    0.096562
 Sum of Mulliken charges =   0.00000

 Dipole moment (field-independent basis, Debye):
    X=              4.0517    Y=             -0.0438    Z=              0.1057  Tot=              4.0533
 Quadrupole moment (field-independent basis, Debye-Ang):
   XX=            -21.0006   YY=            -17.5517   ZZ=            -17.8384
   XY=             -0.0144   XZ=             -0.1718   YZ=              0.0405

 Normal termination of Gaussian 09 at Wed Aug 26 21:15:40 2020.
