 Gaussian 09, Revision D.01,
 Gaussian 09:  ES64L-G09RevD.01 24-Apr-2013

 --------------------
 #p B2PLYPD3/Def2QZVP
 --------------------

 ------------
 cyanomethane
 ------------
 Symbolic Z-matrix:
 Charge =  0 Multiplicity = 1

                         Standard orientation:
 ---------------------------------------------------------------------
 Center     Atomic      Atomic             Coordinates (Angstroms)
 Number     Number       Type             X           Y           Z
 ---------------------------------------------------------------------
      1          6           0        1.177162   -0.000899   -0.021575
      2          6           0       -0.275663    0.034816    0.005637
      3          7           0       -1.443624   -0.023181   -0.002505
      4          1           0        1.498772    1.051169    0.055759
      5          1           0        1.621300   -0.529473   -0.836768
      6          1           0        1.576294   -0.562933    0.894172
 ---------------------------------------------------------------------

 SCF Done:  E(RB2PLYPD3) =  -132.528711083     A.U. after   12 cycles
 E2(B2PLYPD3) =    -0.1821763076D+00 E(B2PLYPD3) =    -0.13271088739061D+03

 The electronic state is 1-A.
 Alpha  occ. eigenvalues --  -14.84691 -10.67633 -10.66788  -1.03588  -0.88986
 Alpha  occ. eigenvalues --   -0.60321  -0.54457  -0.52149  -0.44920  -0.38820
 Alpha  occ. eigenvalues --   -0.38478
 Alpha virt. eigenvalues --    0.03579   0.06947   0.07679   0.10000   0.11168
 Alpha virt. eigenvalues --    0.11656   0.15257   0.15903   0.17028   0.20043
 Alpha virt. eigenvalues --    0.20284   0.25490   0.32387   0.33441   0.34998

 Mulliken charges:
               1
     1  C   -0.084985
     2  C    0.005061
     3  N   -0.212204
     4  H    0.100808
     5  H    0.101117
     6  H    0.090203
 Sum of Mulliken charges =   0.00000

 Dipole moment (field-independent basis, Debye):
    X=              4.1403    Y=              0.0087    Z=              0.0100  Tot=              4.1403
 Quadrupole moment (field-independent basis, Debye-Ang):
   XX=            -20.9834   YY=            -17.6795   ZZ=            -18.0212
   XY=             -0.2734   XZ=             -0.0168   YZ=              0.0766

 Normal termination of Gaussian 09 at Wed Aug 26 11:17:20 2020.
