 Gaussian 09, Revision D.01,
 Gaussian 09:  ES64L-G09RevD.01 24-Apr-2013

 --------------------
 #p B2PLYPD3/Def2QZVP
 --------------------

 ------------
 cyanomethane
 ------------
 Symbolic Z-matrix:
 Charge =  0 Multiplicity = 1

                         Standard orientation:
 ---------------------------------------------------------------------
 Center     Atomic      Atomic             Coordinates (Angstroms)
 Number     Number       Type             X           Y           Z
 ---------------------------------------------------------------------
      1          6           0        1.176966    0.000133   -0.001476
      2          6           0       -0.271483    0.029211   -0.000405
      3          7           0       -1.428779   -0.008002    0.000874
      4          1           0        1.503691   -0.299935    0.946075
      5          1           0        1.617738    0.922031   -0.249016
      6          1           0        1.447130   -0.742144   -0.691890
 ---------------------------------------------------------------------

 SCF Done:  E(RB2PLYPD3) =  -132.532285865     A.U. after   12 cycles
 E2(B2PLYPD3) =    -0.1802613181D+00 E(B2PLYPD3) =    -0.13271254718327D+03

 The electronic state is 1-A.
 Alpha  occ. eigenvalues --  -14.84177 -10.66224 -10.65802  -1.03975  -0.90406
 Alpha  occ. eigenvalues --   -0.60156  -0.55180  -0.54910  -0.44728  -0.39054
 Alpha  occ. eigenvalues --   -0.38908
 Alpha virt. eigenvalues --    0.03950   0.08229   0.08470   0.10226   0.11272
 Alpha virt. eigenvalues --    0.11483   0.15487   0.15899   0.16626   0.20097
 Alpha virt. eigenvalues --    0.20177   0.25515   0.33001   0.34956   0.35526

 Mulliken charges:
               1
     1  C   -0.073590
     2  C   -0.001477
     3  N   -0.210084
     4  H    0.094152
     5  H    0.094241
     6  H    0.096758
 Sum of Mulliken charges =   0.00000

 Dipole moment (field-independent basis, Debye):
    X=              4.1427    Y=             -0.0117    Z=              0.0049  Tot=              4.1428
 Quadrupole moment (field-independent basis, Debye-Ang):
   XX=            -20.9432   YY=            -17.6452   ZZ=            -17.7309
   XY=              0.0316   XZ=              0.0309   YZ=              0.0027

 Normal termination of Gaussian 09 at Wed Aug 26 13:07:41 2020.
