 Gaussian 09, Revision D.01,
 Gaussian 09:  ES64L-G09RevD.01 24-Apr-2013

 --------------------
 #p B2PLYPD3/Def2QZVP
 --------------------

 ------------
 cyanomethane
 ------------
 Symbolic Z-matrix:
 Charge =  0 Multiplicity = 1

                         Standard orientation:
 ---------------------------------------------------------------------
 Center     Atomic      Atomic             Coordinates (Angstroms)
 Number     Number       Type             X           Y           Z
 ---------------------------------------------------------------------
      1          6           0       -1.179891    0.000180   -0.007403
      2          6           0        0.280077    0.006187   -0.002582
      3          7           0        1.435727   -0.000578    0.004008
      4          1           0       -1.574216   -0.070327    1.009775
      5          1           0       -1.505671   -0.870997   -0.538914
      6          1           0       -1.571322    0.907168   -0.439012
 ---------------------------------------------------------------------

 SCF Done:  E(RB2PLYPD3) =  -132.535256954     A.U. after   11 cycles
 E2(B2PLYPD3) =    -0.1804566879D+00 E(B2PLYPD3) =    -0.13271571364228D+03

 The electronic state is 1-A.
 Alpha  occ. eigenvalues --  -14.84223 -10.66895 -10.66297  -1.04062  -0.89379
 Alpha  occ. eigenvalues --   -0.59812  -0.54733  -0.53437  -0.44786  -0.39140
 Alpha  occ. eigenvalues --   -0.38984
 Alpha virt. eigenvalues --    0.03798   0.07835   0.08178   0.10197   0.11300
 Alpha virt. eigenvalues --    0.11535   0.15379   0.16214   0.16520   0.20056
 Alpha virt. eigenvalues --    0.20138   0.25289   0.32735   0.34477   0.35100

 Mulliken charges:
               1
     1  C   -0.080150
     2  C   -0.001636
     3  N   -0.206897
     4  H    0.092478
     5  H    0.098744
     6  H    0.097461
 Sum of Mulliken charges =   0.00000

 Dipole moment (field-independent basis, Debye):
    X=             -4.1367    Y=             -0.0060    Z=              0.0060  Tot=              4.1367
 Quadrupole moment (field-independent basis, Debye-Ang):
   XX=            -20.9638   YY=            -17.6614   ZZ=            -17.8432
   XY=             -0.0287   XZ=             -0.0871   YZ=              0.0096

 Normal termination of Gaussian 09 at Wed Aug 26 15:11:53 2020.
