 Gaussian 09, Revision D.01,
 Gaussian 09:  ES64L-G09RevD.01 24-Apr-2013

 --------------------
 #p B2PLYPD3/Def2QZVP
 --------------------

 ------------
 cyanomethane
 ------------
 Symbolic Z-matrix:
 Charge =  0 Multiplicity = 1

                         Standard orientation:
 ---------------------------------------------------------------------
 Center     Atomic      Atomic             Coordinates (Angstroms)
 Number     Number       Type             X           Y           Z
 ---------------------------------------------------------------------
      1          6           0        1.183695   -0.005154   -0.005081
      2          6           0       -0.283297    0.005377   -0.009490
      3          7           0       -1.454621   -0.001259   -0.003289
      4          1           0        1.636323    1.053336   -0.182270
      5          1           0        1.680831   -0.737496   -0.658007
      6          1           0        1.462806   -0.308363    0.950719
 ---------------------------------------------------------------------

 SCF Done:  E(RB2PLYPD3) =  -132.525758768     A.U. after   12 cycles
 E2(B2PLYPD3) =    -0.1823259943D+00 E(B2PLYPD3) =    -0.13270808476218D+03

 The electronic state is 1-A.
 Alpha  occ. eigenvalues --  -14.84856 -10.67612 -10.67051  -1.03542  -0.88946
 Alpha  occ. eigenvalues --   -0.60393  -0.53497  -0.52716  -0.44999  -0.38809
 Alpha  occ. eigenvalues --   -0.38707
 Alpha virt. eigenvalues --    0.03552   0.06760   0.07834   0.10159   0.11235
 Alpha virt. eigenvalues --    0.11451   0.15289   0.15685   0.17547   0.20146
 Alpha virt. eigenvalues --    0.20260   0.25151   0.31695   0.34076   0.34824

 Mulliken charges:
               1
     1  C   -0.079606
     2  C    0.007066
     3  N   -0.212467
     4  H    0.093162
     5  H    0.093610
     6  H    0.098235
 Sum of Mulliken charges =   0.00000

 Dipole moment (field-independent basis, Debye):
    X=              4.1716    Y=             -0.0446    Z=              0.0702  Tot=              4.1724
 Quadrupole moment (field-independent basis, Debye-Ang):
   XX=            -20.7814   YY=            -17.7199   ZZ=            -18.1182
   XY=             -0.0955   XZ=             -0.0141   YZ=             -0.0126

 Normal termination of Gaussian 09 at Wed Aug 26 21:59:51 2020.
