 Gaussian 09, Revision D.01,
 Gaussian 09:  ES64L-G09RevD.01 24-Apr-2013

 --------------------
 #p B2PLYPD3/Def2QZVP
 --------------------

 ------------
 cyanomethane
 ------------
 Symbolic Z-matrix:
 Charge =  0 Multiplicity = 1

                         Standard orientation:
 ---------------------------------------------------------------------
 Center     Atomic      Atomic             Coordinates (Angstroms)
 Number     Number       Type             X           Y           Z
 ---------------------------------------------------------------------
      1          6           0       -1.184592    0.003729   -0.011423
      2          6           0        0.282551    0.020763    0.005498
      3          7           0        1.434817   -0.008421    0.000184
      4          1           0       -1.561420   -0.237540    0.986093
      5          1           0       -1.496627   -0.777803   -0.654777
      6          1           0       -1.573424    0.927341   -0.297053
 ---------------------------------------------------------------------

 SCF Done:  E(RB2PLYPD3) =  -132.534094502     A.U. after   11 cycles
 E2(B2PLYPD3) =    -0.1799982295D+00 E(B2PLYPD3) =    -0.13271409273160D+03

 The electronic state is 1-A.
 Alpha  occ. eigenvalues --  -14.84121 -10.66469 -10.66202  -1.04160  -0.89641
 Alpha  occ. eigenvalues --   -0.59793  -0.55304  -0.53610  -0.44746  -0.39308
 Alpha  occ. eigenvalues --   -0.39074
 Alpha virt. eigenvalues --    0.03854   0.08107   0.08502   0.10229   0.11210
 Alpha virt. eigenvalues --    0.11537   0.15372   0.16193   0.16530   0.20034
 Alpha virt. eigenvalues --    0.20129   0.25169   0.32776   0.34523   0.35533

 Mulliken charges:
               1
     1  C   -0.076694
     2  C   -0.002867
     3  N   -0.205848
     4  H    0.090644
     5  H    0.097393
     6  H    0.097372
 Sum of Mulliken charges =   0.00000

 Dipole moment (field-independent basis, Debye):
    X=             -4.1380    Y=              0.0004    Z=              0.0046  Tot=              4.1380
 Quadrupole moment (field-independent basis, Debye-Ang):
   XX=            -20.9348   YY=            -17.6483   ZZ=            -17.7971
   XY=              0.0240   XZ=             -0.0501   YZ=              0.0076

 Normal termination of Gaussian 09 at Wed Aug 26 10:21:30 2020.
