 Gaussian 09, Revision D.01,
 Gaussian 09:  ES64L-G09RevD.01 24-Apr-2013

 --------------------
 #p B2PLYPD3/Def2QZVP
 --------------------

 ------------
 cyanomethane
 ------------
 Symbolic Z-matrix:
 Charge =  0 Multiplicity = 1

                         Standard orientation:
 ---------------------------------------------------------------------
 Center     Atomic      Atomic             Coordinates (Angstroms)
 Number     Number       Type             X           Y           Z
 ---------------------------------------------------------------------
      1          6           0        1.175274   -0.005552    0.008923
      2          6           0       -0.275170    0.026852    0.001521
      3          7           0       -1.440882   -0.013809   -0.001985
      4          1           0        1.557444    1.019619   -0.091517
      5          1           0        1.566789   -0.591736   -0.849893
      6          1           0        1.561322   -0.459018    0.892641
 ---------------------------------------------------------------------

 SCF Done:  E(RB2PLYPD3) =  -132.533365009     A.U. after   11 cycles
 E2(B2PLYPD3) =    -0.1815800838D+00 E(B2PLYPD3) =    -0.13271494509245D+03

 The electronic state is 1-A.
 Alpha  occ. eigenvalues --  -14.84583 -10.67161 -10.66647  -1.03697  -0.89286
 Alpha  occ. eigenvalues --   -0.60197  -0.54307  -0.53210  -0.44898  -0.38853
 Alpha  occ. eigenvalues --   -0.38691
 Alpha virt. eigenvalues --    0.03711   0.07392   0.07731   0.10112   0.11273
 Alpha virt. eigenvalues --    0.11492   0.15447   0.16162   0.16612   0.20093
 Alpha virt. eigenvalues --    0.20186   0.25502   0.32617   0.34177   0.34962

 Mulliken charges:
               1
     1  C   -0.078898
     2  C    0.002052
     3  N   -0.211174
     4  H    0.095795
     5  H    0.093592
     6  H    0.098633
 Sum of Mulliken charges =   0.00000

 Dipole moment (field-independent basis, Debye):
    X=              4.1449    Y=              0.0089    Z=              0.0019  Tot=              4.1449
 Quadrupole moment (field-independent basis, Debye-Ang):
   XX=            -20.9360   YY=            -17.7713   ZZ=            -17.8577
   XY=             -0.1038   XZ=             -0.0214   YZ=             -0.0406

 Normal termination of Gaussian 09 at Thu Aug 27 00:06:46 2020.
