 Gaussian 09, Revision D.01,
 Gaussian 09:  ES64L-G09RevD.01 24-Apr-2013

 --------------------
 #p B2PLYPD3/Def2QZVP
 --------------------

 ------------
 cyanomethane
 ------------
 Symbolic Z-matrix:
 Charge =  0 Multiplicity = 1

                         Standard orientation:
 ---------------------------------------------------------------------
 Center     Atomic      Atomic             Coordinates (Angstroms)
 Number     Number       Type             X           Y           Z
 ---------------------------------------------------------------------
      1          6           0       -1.162933    0.007718   -0.018350
      2          6           0        0.280970    0.061458    0.002374
      3          7           0        1.416477   -0.019032    0.000869
      4          1           0       -1.480293   -0.445249    0.936273
      5          1           0       -1.419840   -0.785665   -0.703479
      6          1           0       -1.723428    0.949077   -0.143017
 ---------------------------------------------------------------------

 SCF Done:  E(RB2PLYPD3) =  -132.531261105     A.U. after   12 cycles
 E2(B2PLYPD3) =    -0.1793872365D+00 E(B2PLYPD3) =    -0.13271064834165D+03

 The electronic state is 1-A.
 Alpha  occ. eigenvalues --  -14.83657 -10.67104 -10.65735  -1.04801  -0.89364
 Alpha  occ. eigenvalues --   -0.59895  -0.54932  -0.52489  -0.44716  -0.39592
 Alpha  occ. eigenvalues --   -0.38982
 Alpha virt. eigenvalues --    0.03710   0.07806   0.08192   0.10247   0.11447
 Alpha virt. eigenvalues --    0.12215   0.15417   0.15796   0.17514   0.19902
 Alpha virt. eigenvalues --    0.20192   0.25684   0.32805   0.33618   0.35614

 Mulliken charges:
               1
     1  C   -0.088952
     2  C    0.000324
     3  N   -0.198955
     4  H    0.088692
     5  H    0.097898
     6  H    0.100993
 Sum of Mulliken charges =   0.00000

 Dipole moment (field-independent basis, Debye):
    X=             -4.1035    Y=             -0.0382    Z=              0.0400  Tot=              4.1039
 Quadrupole moment (field-independent basis, Debye-Ang):
   XX=            -20.9353   YY=            -17.4373   ZZ=            -18.0042
   XY=              0.0274   XZ=             -0.1139   YZ=              0.0288

 Normal termination of Gaussian 09 at Wed Aug 26 23:41:43 2020.
