 Gaussian 09, Revision D.01,
 Gaussian 09:  ES64L-G09RevD.01 24-Apr-2013

 --------------------
 #p B2PLYPD3/Def2QZVP
 --------------------

 ------------
 cyanomethane
 ------------
 Symbolic Z-matrix:
 Charge =  0 Multiplicity = 1

                         Standard orientation:
 ---------------------------------------------------------------------
 Center     Atomic      Atomic             Coordinates (Angstroms)
 Number     Number       Type             X           Y           Z
 ---------------------------------------------------------------------
      1          6           0       -1.170440    0.009133    0.002308
      2          6           0        0.273571   -0.004005    0.016703
      3          7           0        1.430951    0.002919   -0.010900
      4          1           0       -1.513241   -0.354910    0.962974
      5          1           0       -1.548697   -0.713424   -0.785967
      6          1           0       -1.573505    1.017136   -0.214780
 ---------------------------------------------------------------------

 SCF Done:  E(RB2PLYPD3) =  -132.533241288     A.U. after   12 cycles
 E2(B2PLYPD3) =    -0.1810016592D+00 E(B2PLYPD3) =    -0.13271424294708D+03

 The electronic state is 1-A.
 Alpha  occ. eigenvalues --  -14.84243 -10.67563 -10.66272  -1.04005  -0.89114
 Alpha  occ. eigenvalues --   -0.59572  -0.54297  -0.53033  -0.44791  -0.38952
 Alpha  occ. eigenvalues --   -0.38753
 Alpha virt. eigenvalues --    0.03636   0.07308   0.07898   0.10130   0.11413
 Alpha virt. eigenvalues --    0.11660   0.15436   0.15875   0.16624   0.20082
 Alpha virt. eigenvalues --    0.20152   0.25578   0.32640   0.33845   0.34695

 Mulliken charges:
               1
     1  C   -0.092315
     2  C    0.000342
     3  N   -0.207666
     4  H    0.101123
     5  H    0.096563
     6  H    0.101952
 Sum of Mulliken charges =   0.00000

 Dipole moment (field-independent basis, Debye):
    X=             -4.1159    Y=             -0.0167    Z=              0.0232  Tot=              4.1160
 Quadrupole moment (field-independent basis, Debye-Ang):
   XX=            -21.1128   YY=            -17.7014   ZZ=            -17.8050
   XY=             -0.0135   XZ=              0.0777   YZ=             -0.0455

 Normal termination of Gaussian 09 at Wed Aug 26 23:54:56 2020.
