 Gaussian 09, Revision D.01,
 Gaussian 09:  ES64L-G09RevD.01 24-Apr-2013

 --------------------
 #p B2PLYPD3/Def2QZVP
 --------------------

 ------------
 cyanomethane
 ------------
 Symbolic Z-matrix:
 Charge =  0 Multiplicity = 1

                         Standard orientation:
 ---------------------------------------------------------------------
 Center     Atomic      Atomic             Coordinates (Angstroms)
 Number     Number       Type             X           Y           Z
 ---------------------------------------------------------------------
      1          6           0        1.196314    0.000354   -0.012496
      2          6           0       -0.289751   -0.037350    0.005795
      3          7           0       -1.434368    0.020480   -0.003324
      4          1           0        1.551106    0.981448   -0.264345
      5          1           0        1.539544   -0.703781   -0.646863
      6          1           0        1.510547   -0.199048    0.974677
 ---------------------------------------------------------------------

 SCF Done:  E(RB2PLYPD3) =  -132.530463255     A.U. after   12 cycles
 E2(B2PLYPD3) =    -0.1792560465D+00 E(B2PLYPD3) =    -0.13270971930102D+03

 The electronic state is 1-A.
 Alpha  occ. eigenvalues --  -14.83918 -10.66047 -10.65996  -1.04364  -0.89842
 Alpha  occ. eigenvalues --   -0.59362  -0.55879  -0.53998  -0.44660  -0.39567
 Alpha  occ. eigenvalues --   -0.39326
 Alpha virt. eigenvalues --    0.03876   0.08423   0.09157   0.10251   0.11106
 Alpha virt. eigenvalues --    0.11465   0.15308   0.15875   0.16762   0.20003
 Alpha virt. eigenvalues --    0.20098   0.24876   0.32843   0.34760   0.35811

 Mulliken charges:
               1
     1  C   -0.076078
     2  C   -0.006198
     3  N   -0.202668
     4  H    0.094235
     5  H    0.098349
     6  H    0.092360
 Sum of Mulliken charges =   0.00000

 Dipole moment (field-independent basis, Debye):
    X=              4.1343    Y=             -0.0317    Z=              0.0240  Tot=              4.1344
 Quadrupole moment (field-independent basis, Debye-Ang):
   XX=            -20.9307   YY=            -17.6288   ZZ=            -17.7133
   XY=              0.1255   XZ=             -0.0005   YZ=              0.0570

 Normal termination of Gaussian 09 at Wed Aug 26 10:53:51 2020.
