 Gaussian 09, Revision D.01,
 Gaussian 09:  ES64L-G09RevD.01 24-Apr-2013

 --------------------
 #p B2PLYPD3/Def2QZVP
 --------------------

 ------------
 cyanomethane
 ------------
 Symbolic Z-matrix:
 Charge =  0 Multiplicity = 1

                         Standard orientation:
 ---------------------------------------------------------------------
 Center     Atomic      Atomic             Coordinates (Angstroms)
 Number     Number       Type             X           Y           Z
 ---------------------------------------------------------------------
      1          6           0       -1.177281   -0.010440   -0.012636
      2          6           0        0.279688    0.037956   -0.001396
      3          7           0        1.424233   -0.013485    0.005101
      4          1           0       -1.564665   -0.120232    0.996360
      5          1           0       -1.446626   -0.897463   -0.551614
      6          1           0       -1.572783    0.946994   -0.396255
 ---------------------------------------------------------------------

 SCF Done:  E(RB2PLYPD3) =  -132.534159965     A.U. after   11 cycles
 E2(B2PLYPD3) =    -0.1797329674D+00 E(B2PLYPD3) =    -0.13271389293284D+03

 The electronic state is 1-A.
 Alpha  occ. eigenvalues --  -14.83838 -10.67062 -10.65872  -1.04418  -0.89312
 Alpha  occ. eigenvalues --   -0.59282  -0.55215  -0.53038  -0.44659  -0.39330
 Alpha  occ. eigenvalues --   -0.39078
 Alpha virt. eigenvalues --    0.03764   0.07963   0.08311   0.10198   0.11399
 Alpha virt. eigenvalues --    0.11743   0.15277   0.16197   0.16349   0.19966
 Alpha virt. eigenvalues --    0.20138   0.25418   0.32773   0.34049   0.35207

 Mulliken charges:
               1
     1  C   -0.090327
     2  C   -0.003896
     3  N   -0.202741
     4  H    0.092769
     5  H    0.104654
     6  H    0.099542
 Sum of Mulliken charges =   0.00000

 Dipole moment (field-independent basis, Debye):
    X=             -4.1016    Y=              0.0058    Z=              0.0307  Tot=              4.1018
 Quadrupole moment (field-independent basis, Debye-Ang):
   XX=            -21.1288   YY=            -17.4613   ZZ=            -17.8957
   XY=              0.0106   XZ=             -0.1801   YZ=              0.0335

 Normal termination of Gaussian 09 at Wed Aug 26 15:58:09 2020.
