 Gaussian 09, Revision D.01,
 Gaussian 09:  ES64L-G09RevD.01 24-Apr-2013

 --------------------
 #p B2PLYPD3/Def2QZVP
 --------------------

 ------------
 cyanomethane
 ------------
 Symbolic Z-matrix:
 Charge =  0 Multiplicity = 1

                         Standard orientation:
 ---------------------------------------------------------------------
 Center     Atomic      Atomic             Coordinates (Angstroms)
 Number     Number       Type             X           Y           Z
 ---------------------------------------------------------------------
      1          6           0        1.187599   -0.001344    0.005002
      2          6           0       -0.289460   -0.037301    0.013021
      3          7           0       -1.439761    0.023405   -0.014760
      4          1           0        1.644762    0.994975   -0.346086
      5          1           0        1.592571   -0.781575   -0.627676
      6          1           0        1.452160   -0.145370    0.968944
 ---------------------------------------------------------------------

 SCF Done:  E(RB2PLYPD3) =  -132.527113774     A.U. after   12 cycles
 E2(B2PLYPD3) =    -0.1803314720D+00 E(B2PLYPD3) =    -0.13270744524562D+03

 The electronic state is 1-A.
 Alpha  occ. eigenvalues --  -14.84224 -10.67011 -10.66322  -1.04225  -0.89241
 Alpha  occ. eigenvalues --   -0.59506  -0.55291  -0.52513  -0.44816  -0.39354
 Alpha  occ. eigenvalues --   -0.39139
 Alpha virt. eigenvalues --    0.03545   0.07377   0.08912   0.10206   0.11186
 Alpha virt. eigenvalues --    0.11514   0.15340   0.15722   0.17198   0.20023
 Alpha virt. eigenvalues --    0.20149   0.25094   0.32320   0.34065   0.35407

 Mulliken charges:
               1
     1  C   -0.084414
     2  C   -0.001407
     3  N   -0.204095
     4  H    0.091398
     5  H    0.095590
     6  H    0.102928
 Sum of Mulliken charges =   0.00000

 Dipole moment (field-independent basis, Debye):
    X=              4.1282    Y=             -0.0518    Z=              0.0514  Tot=              4.1289
 Quadrupole moment (field-independent basis, Debye-Ang):
   XX=            -20.8866   YY=            -17.7606   ZZ=            -17.7923
   XY=              0.1558   XZ=             -0.1438   YZ=              0.0258

 Normal termination of Gaussian 09 at Wed Aug 26 13:33:08 2020.
