 Gaussian 09, Revision D.01,
 Gaussian 09:  ES64L-G09RevD.01 24-Apr-2013

 --------------------
 #p B2PLYPD3/Def2QZVP
 --------------------

 ------------
 cyanomethane
 ------------
 Symbolic Z-matrix:
 Charge =  0 Multiplicity = 1

                         Standard orientation:
 ---------------------------------------------------------------------
 Center     Atomic      Atomic             Coordinates (Angstroms)
 Number     Number       Type             X           Y           Z
 ---------------------------------------------------------------------
      1          6           0        1.186426   -0.016662   -0.015900
      2          6           0       -0.269719    0.040091    0.017531
      3          7           0       -1.448072   -0.013693   -0.004247
      4          1           0        1.584061   -0.109017    1.003678
      5          1           0        1.592224    0.934003   -0.417114
      6          1           0        1.459977   -0.869712   -0.566613
 ---------------------------------------------------------------------

 SCF Done:  E(RB2PLYPD3) =  -132.530213699     A.U. after   11 cycles
 E2(B2PLYPD3) =    -0.1827151275D+00 E(B2PLYPD3) =    -0.13271292882635D+03

 The electronic state is 1-A.
 Alpha  occ. eigenvalues --  -14.84885 -10.67156 -10.66984  -1.03121  -0.89422
 Alpha  occ. eigenvalues --   -0.59729  -0.55260  -0.53093  -0.44849  -0.38564
 Alpha  occ. eigenvalues --   -0.38344
 Alpha virt. eigenvalues --    0.03715   0.07281   0.07590   0.10134   0.11064
 Alpha virt. eigenvalues --    0.11308   0.15228   0.15979   0.16319   0.20128
 Alpha virt. eigenvalues --    0.20246   0.25446   0.32286   0.34008   0.35230

 Mulliken charges:
               1
     1  C   -0.083776
     2  C    0.002752
     3  N   -0.217865
     4  H    0.093876
     5  H    0.098092
     6  H    0.106922
 Sum of Mulliken charges =   0.00000

 Dipole moment (field-independent basis, Debye):
    X=              4.1626    Y=              0.0064    Z=              0.0248  Tot=              4.1626
 Quadrupole moment (field-independent basis, Debye-Ang):
   XX=            -21.0614   YY=            -17.6878   ZZ=            -17.9516
   XY=              0.0139   XZ=              0.0929   YZ=              0.0530

 Normal termination of Gaussian 09 at Wed Aug 26 16:08:29 2020.
