 Gaussian 09, Revision D.01,
 Gaussian 09:  ES64L-G09RevD.01 24-Apr-2013

 --------------------
 #p B2PLYPD3/Def2QZVP
 --------------------

 ------------
 cyanomethane
 ------------
 Symbolic Z-matrix:
 Charge =  0 Multiplicity = 1

                         Standard orientation:
 ---------------------------------------------------------------------
 Center     Atomic      Atomic             Coordinates (Angstroms)
 Number     Number       Type             X           Y           Z
 ---------------------------------------------------------------------
      1          6           0       -1.172418   -0.007665   -0.004445
      2          6           0        0.275072    0.016435   -0.013578
      3          7           0        1.440182   -0.008381    0.006258
      4          1           0       -1.586178   -0.479243   -0.885683
      5          1           0       -1.556686    1.032358    0.061270
      6          1           0       -1.554337   -0.547071    0.888747
 ---------------------------------------------------------------------

 SCF Done:  E(RB2PLYPD3) =  -132.533488378     A.U. after   11 cycles
 E2(B2PLYPD3) =    -0.1816218906D+00 E(B2PLYPD3) =    -0.13271511026904D+03

 The electronic state is 1-A.
 Alpha  occ. eigenvalues --  -14.84565 -10.67410 -10.66627  -1.03742  -0.89121
 Alpha  occ. eigenvalues --   -0.60156  -0.53921  -0.53170  -0.44908  -0.38839
 Alpha  occ. eigenvalues --   -0.38684
 Alpha virt. eigenvalues --    0.03674   0.07333   0.07563   0.10120   0.11343
 Alpha virt. eigenvalues --    0.11520   0.15449   0.16147   0.16657   0.20114
 Alpha virt. eigenvalues --    0.20160   0.25541   0.32598   0.34090   0.34764

 Mulliken charges:
               1
     1  C   -0.081403
     2  C    0.002407
     3  N   -0.210511
     4  H    0.098580
     5  H    0.094946
     6  H    0.095981
 Sum of Mulliken charges =   0.00000

 Dipole moment (field-independent basis, Debye):
    X=             -4.1420    Y=              0.0112    Z=             -0.0031  Tot=              4.1420
 Quadrupole moment (field-independent basis, Debye-Ang):
   XX=            -20.9456   YY=            -17.8298   ZZ=            -17.8198
   XY=              0.0546   XZ=             -0.0259   YZ=              0.0269

 Normal termination of Gaussian 09 at Wed Aug 26 21:23:36 2020.
