 Gaussian 09, Revision D.01,
 Gaussian 09:  ES64L-G09RevD.01 24-Apr-2013

 --------------------
 #p B2PLYPD3/Def2QZVP
 --------------------

 ------------
 cyanomethane
 ------------
 Symbolic Z-matrix:
 Charge =  0 Multiplicity = 1

                         Standard orientation:
 ---------------------------------------------------------------------
 Center     Atomic      Atomic             Coordinates (Angstroms)
 Number     Number       Type             X           Y           Z
 ---------------------------------------------------------------------
      1          6           0        1.176670    0.007701    0.017615
      2          6           0       -0.268061   -0.001389   -0.020779
      3          7           0       -1.432125   -0.004389    0.003996
      4          1           0        1.470494    1.058064   -0.040011
      5          1           0        1.611744   -0.565329   -0.870612
      6          1           0        1.490981   -0.499884    0.901634
 ---------------------------------------------------------------------

 SCF Done:  E(RB2PLYPD3) =  -132.531236018     A.U. after   12 cycles
 E2(B2PLYPD3) =    -0.1814826768D+00 E(B2PLYPD3) =    -0.13271271869531D+03

 The electronic state is 1-A.
 Alpha  occ. eigenvalues --  -14.84337 -10.67411 -10.66381  -1.03699  -0.89395
 Alpha  occ. eigenvalues --   -0.59274  -0.55264  -0.52925  -0.44719  -0.38786
 Alpha  occ. eigenvalues --   -0.38541
 Alpha virt. eigenvalues --    0.03680   0.07249   0.08031   0.10143   0.11264
 Alpha virt. eigenvalues --    0.11587   0.15260   0.15976   0.16129   0.20117
 Alpha virt. eigenvalues --    0.20189   0.25537   0.32310   0.33927   0.34900

 Mulliken charges:
               1
     1  C   -0.095799
     2  C   -0.000003
     3  N   -0.212147
     4  H    0.106928
     5  H    0.094703
     6  H    0.106318
 Sum of Mulliken charges =   0.00000

 Dipole moment (field-independent basis, Debye):
    X=              4.1202    Y=             -0.0024    Z=              0.0030  Tot=              4.1202
 Quadrupole moment (field-independent basis, Debye-Ang):
   XX=            -21.2427   YY=            -17.6220   ZZ=            -17.8337
   XY=             -0.1280   XZ=             -0.0538   YZ=             -0.0751

 Normal termination of Gaussian 09 at Wed Aug 26 14:26:02 2020.
