 Gaussian 09, Revision D.01,
 Gaussian 09:  ES64L-G09RevD.01 24-Apr-2013

 --------------------
 #p B2PLYPD3/Def2QZVP
 --------------------

 ------------
 cyanomethane
 ------------
 Symbolic Z-matrix:
 Charge =  0 Multiplicity = 1

                         Standard orientation:
 ---------------------------------------------------------------------
 Center     Atomic      Atomic             Coordinates (Angstroms)
 Number     Number       Type             X           Y           Z
 ---------------------------------------------------------------------
      1          6           0       -1.168217    0.002127    0.004306
      2          6           0        0.281563   -0.014786   -0.012239
      3          7           0        1.427928    0.005160    0.004308
      4          1           0       -1.528598    1.037412   -0.101380
      5          1           0       -1.550287   -0.403690    0.917156
      6          1           0       -1.596684   -0.593893   -0.798331
 ---------------------------------------------------------------------

 SCF Done:  E(RB2PLYPD3) =  -132.535803634     A.U. after   11 cycles
 E2(B2PLYPD3) =    -0.1797645211D+00 E(B2PLYPD3) =    -0.13271556815551D+03

 The electronic state is 1-A.
 Alpha  occ. eigenvalues --  -14.83999 -10.66887 -10.66027  -1.04476  -0.89350
 Alpha  occ. eigenvalues --   -0.60174  -0.53983  -0.53640  -0.44813  -0.39263
 Alpha  occ. eigenvalues --   -0.39234
 Alpha virt. eigenvalues --    0.03785   0.07923   0.08084   0.10188   0.11596
 Alpha virt. eigenvalues --    0.11605   0.15502   0.16512   0.16551   0.20045
 Alpha virt. eigenvalues --    0.20066   0.25522   0.32934   0.34570   0.34891

 Mulliken charges:
               1
     1  C   -0.077809
     2  C   -0.001443
     3  N   -0.202063
     4  H    0.095006
     5  H    0.094435
     6  H    0.091874
 Sum of Mulliken charges =   0.00000

 Dipole moment (field-independent basis, Debye):
    X=             -4.1181    Y=             -0.0173    Z=              0.0012  Tot=              4.1181
 Quadrupole moment (field-independent basis, Debye-Ang):
   XX=            -20.8842   YY=            -17.6840   ZZ=            -17.8066
   XY=              0.0354   XZ=             -0.0137   YZ=             -0.0147

 Normal termination of Gaussian 09 at Wed Aug 26 22:43:39 2020.
