 Gaussian 09, Revision D.01,
 Gaussian 09:  ES64L-G09RevD.01 24-Apr-2013

 --------------------
 #p B2PLYPD3/Def2QZVP
 --------------------

 ------------
 cyanomethane
 ------------
 Symbolic Z-matrix:
 Charge =  0 Multiplicity = 1

                         Standard orientation:
 ---------------------------------------------------------------------
 Center     Atomic      Atomic             Coordinates (Angstroms)
 Number     Number       Type             X           Y           Z
 ---------------------------------------------------------------------
      1          6           0        1.180950    0.002453   -0.010149
      2          6           0       -0.280225    0.020390    0.008351
      3          7           0       -1.438429   -0.012608   -0.003220
      4          1           0        1.532693    1.009689    0.016237
      5          1           0        1.564893   -0.524345   -0.859218
      6          1           0        1.567068   -0.534147    0.876308
 ---------------------------------------------------------------------

 SCF Done:  E(RB2PLYPD3) =  -132.534394459     A.U. after   11 cycles
 E2(B2PLYPD3) =    -0.1807520994D+00 E(B2PLYPD3) =    -0.13271514655827D+03

 The electronic state is 1-A.
 Alpha  occ. eigenvalues --  -14.84340 -10.66925 -10.66417  -1.03955  -0.89343
 Alpha  occ. eigenvalues --   -0.59913  -0.54800  -0.53241  -0.44821  -0.39103
 Alpha  occ. eigenvalues --   -0.38909
 Alpha virt. eigenvalues --    0.03770   0.07685   0.08167   0.10163   0.11224
 Alpha virt. eigenvalues --    0.11535   0.15390   0.16160   0.16608   0.20049
 Alpha virt. eigenvalues --    0.20160   0.25295   0.32683   0.34339   0.35197

 Mulliken charges:
               1
     1  C   -0.078678
     2  C   -0.000639
     3  N   -0.208047
     4  H    0.098523
     5  H    0.096941
     6  H    0.091901
 Sum of Mulliken charges =   0.00000

 Dipole moment (field-independent basis, Debye):
    X=              4.1398    Y=              0.0070    Z=              0.0068  Tot=              4.1398
 Quadrupole moment (field-independent basis, Debye-Ang):
   XX=            -20.9433   YY=            -17.6891   ZZ=            -17.8547
   XY=             -0.1261   XZ=             -0.0064   YZ=              0.0337

 Normal termination of Gaussian 09 at Wed Aug 26 14:28:37 2020.
