 Gaussian 09, Revision D.01,
 Gaussian 09:  ES64L-G09RevD.01 24-Apr-2013

 --------------------
 #p B2PLYPD3/Def2QZVP
 --------------------

 ------------
 cyanomethane
 ------------
 Symbolic Z-matrix:
 Charge =  0 Multiplicity = 1

                         Standard orientation:
 ---------------------------------------------------------------------
 Center     Atomic      Atomic             Coordinates (Angstroms)
 Number     Number       Type             X           Y           Z
 ---------------------------------------------------------------------
      1          6           0        1.177670    0.007318   -0.024101
      2          6           0       -0.281162    0.006857   -0.019889
      3          7           0       -1.422921   -0.009055    0.017495
      4          1           0        1.615185   -0.574338    0.877933
      5          1           0        1.467862    1.009588    0.116413
      6          1           0        1.498352   -0.456912   -0.852869
 ---------------------------------------------------------------------

 SCF Done:  E(RB2PLYPD3) =  -132.526036257     A.U. after   12 cycles
 E2(B2PLYPD3) =    -0.1793164938D+00 E(B2PLYPD3) =    -0.13270535275123D+03

 The electronic state is 1-A.
 Alpha  occ. eigenvalues --  -14.83770 -10.66521 -10.65782  -1.04567  -0.89836
 Alpha  occ. eigenvalues --   -0.59532  -0.56805  -0.52251  -0.44667  -0.39602
 Alpha  occ. eigenvalues --   -0.39051
 Alpha virt. eigenvalues --    0.03679   0.07690   0.09171   0.10226   0.11208
 Alpha virt. eigenvalues --    0.11860   0.15413   0.16073   0.16564   0.19966
 Alpha virt. eigenvalues --    0.20133   0.25293   0.32364   0.33940   0.36025

 Mulliken charges:
               1
     1  C   -0.086069
     2  C   -0.005385
     3  N   -0.200949
     4  H    0.085484
     5  H    0.102363
     6  H    0.104555
 Sum of Mulliken charges =   0.00000

 Dipole moment (field-independent basis, Debye):
    X=              4.0981    Y=              0.0198    Z=             -0.0263  Tot=              4.0982
 Quadrupole moment (field-independent basis, Debye-Ang):
   XX=            -21.0503   YY=            -17.6069   ZZ=            -17.7170
   XY=             -0.1300   XZ=              0.1858   YZ=              0.1507

 Normal termination of Gaussian 09 at Wed Aug 26 13:05:02 2020.
