 Gaussian 09, Revision D.01,
 Gaussian 09:  ES64L-G09RevD.01 24-Apr-2013

 --------------------
 #p B2PLYPD3/Def2QZVP
 --------------------

 ------------
 cyanomethane
 ------------
 Symbolic Z-matrix:
 Charge =  0 Multiplicity = 1

                         Standard orientation:
 ---------------------------------------------------------------------
 Center     Atomic      Atomic             Coordinates (Angstroms)
 Number     Number       Type             X           Y           Z
 ---------------------------------------------------------------------
      1          6           0       -1.179341    0.015212    0.013603
      2          6           0        0.290813   -0.011566   -0.023649
      3          7           0        1.431825   -0.001361    0.007897
      4          1           0       -1.500274    1.034575   -0.245884
      5          1           0       -1.543663   -0.301720    0.988843
      6          1           0       -1.647674   -0.745206   -0.737960
 ---------------------------------------------------------------------

 SCF Done:  E(RB2PLYPD3) =  -132.531519844     A.U. after   12 cycles
 E2(B2PLYPD3) =    -0.1798004479D+00 E(B2PLYPD3) =    -0.13271132029184D+03

 The electronic state is 1-A.
 Alpha  occ. eigenvalues --  -14.83869 -10.68078 -10.65962  -1.04636  -0.88325
 Alpha  occ. eigenvalues --   -0.59119  -0.54307  -0.51982  -0.44748  -0.39513
 Alpha  occ. eigenvalues --   -0.39217
 Alpha virt. eigenvalues --    0.03580   0.07390   0.08197   0.10220   0.11474
 Alpha virt. eigenvalues --    0.11813   0.15215   0.16397   0.16492   0.19960
 Alpha virt. eigenvalues --    0.20053   0.25165   0.32045   0.33902   0.34807

 Mulliken charges:
               1
     1  C   -0.096213
     2  C   -0.002477
     3  N   -0.198025
     4  H    0.104393
     5  H    0.101555
     6  H    0.090767
 Sum of Mulliken charges =   0.00000

 Dipole moment (field-independent basis, Debye):
    X=             -4.0955    Y=             -0.0016    Z=              0.0092  Tot=              4.0955
 Quadrupole moment (field-independent basis, Debye-Ang):
   XX=            -21.0695   YY=            -17.6541   ZZ=            -17.8604
   XY=              0.1266   XZ=             -0.0401   YZ=             -0.0876

 Normal termination of Gaussian 09 at Wed Aug 26 10:51:52 2020.
