 Gaussian 09, Revision D.01,
 Gaussian 09:  ES64L-G09RevD.01 24-Apr-2013

 --------------------
 #p B2PLYPD3/Def2QZVP
 --------------------

 ------------
 cyanomethane
 ------------
 Symbolic Z-matrix:
 Charge =  0 Multiplicity = 1

                         Standard orientation:
 ---------------------------------------------------------------------
 Center     Atomic      Atomic             Coordinates (Angstroms)
 Number     Number       Type             X           Y           Z
 ---------------------------------------------------------------------
      1          6           0       -1.177404   -0.023483   -0.010196
      2          6           0        0.292632    0.037920    0.018806
      3          7           0        1.440048   -0.016847   -0.010970
      4          1           0       -1.597625   -0.902233   -0.495112
      5          1           0       -1.612521    0.908461   -0.528385
      6          1           0       -1.561560    0.025081    1.048628
 ---------------------------------------------------------------------

 SCF Done:  E(RB2PLYPD3) =  -132.530792277     A.U. after   12 cycles
 E2(B2PLYPD3) =    -0.1806116430D+00 E(B2PLYPD3) =    -0.13271140392030D+03

 The electronic state is 1-A.
 Alpha  occ. eigenvalues --  -14.84233 -10.68210 -10.66351  -1.04420  -0.88120
 Alpha  occ. eigenvalues --   -0.59754  -0.53348  -0.52060  -0.44916  -0.39375
 Alpha  occ. eigenvalues --   -0.39103
 Alpha virt. eigenvalues --    0.03536   0.07328   0.07629   0.10102   0.11503
 Alpha virt. eigenvalues --    0.11659   0.15339   0.15990   0.17268   0.20034
 Alpha virt. eigenvalues --    0.20057   0.25306   0.32239   0.33541   0.34776

 Mulliken charges:
               1
     1  C   -0.088738
     2  C    0.002704
     3  N   -0.200914
     4  H    0.102297
     5  H    0.090978
     6  H    0.093673
 Sum of Mulliken charges =   0.00000

 Dipole moment (field-independent basis, Debye):
    X=             -4.1087    Y=              0.0220    Z=              0.0257  Tot=              4.1088
 Quadrupole moment (field-independent basis, Debye-Ang):
   XX=            -20.9067   YY=            -17.8182   ZZ=            -17.8776
   XY=              0.0828   XZ=              0.0741   YZ=              0.0579

 Normal termination of Gaussian 09 at Wed Aug 26 10:29:57 2020.
