 Gaussian 09, Revision D.01,
 Gaussian 09:  ES64L-G09RevD.01 24-Apr-2013

 --------------------
 #p B2PLYPD3/Def2QZVP
 --------------------

 ------------
 cyanomethane
 ------------
 Symbolic Z-matrix:
 Charge =  0 Multiplicity = 1

                         Standard orientation:
 ---------------------------------------------------------------------
 Center     Atomic      Atomic             Coordinates (Angstroms)
 Number     Number       Type             X           Y           Z
 ---------------------------------------------------------------------
      1          6           0       -1.173939   -0.002018    0.001957
      2          6           0        0.277425    0.018441    0.018345
      3          7           0        1.425623   -0.001897   -0.010892
      4          1           0       -1.496472   -0.262169    0.935879
      5          1           0       -1.470192   -0.791298   -0.678288
      6          1           0       -1.633612    0.968206   -0.303158
 ---------------------------------------------------------------------

 SCF Done:  E(RB2PLYPD3) =  -132.532026239     A.U. after   12 cycles
 E2(B2PLYPD3) =    -0.1797944167D+00 E(B2PLYPD3) =    -0.13271182065571D+03

 The electronic state is 1-A.
 Alpha  occ. eigenvalues --  -14.83955 -10.66537 -10.65986  -1.04340  -0.89813
 Alpha  occ. eigenvalues --   -0.59786  -0.54840  -0.53907  -0.44719  -0.39241
 Alpha  occ. eigenvalues --   -0.39109
 Alpha virt. eigenvalues --    0.03797   0.07766   0.08708   0.10213   0.11429
 Alpha virt. eigenvalues --    0.11622   0.15450   0.15835   0.16843   0.20061
 Alpha virt. eigenvalues --    0.20114   0.25479   0.32768   0.34578   0.35122

 Mulliken charges:
               1
     1  C   -0.084010
     2  C   -0.002604
     3  N   -0.204529
     4  H    0.098471
     5  H    0.096882
     6  H    0.095790
 Sum of Mulliken charges =   0.00000

 Dipole moment (field-independent basis, Debye):
    X=             -4.1172    Y=             -0.0303    Z=              0.0371  Tot=              4.1175
 Quadrupole moment (field-independent basis, Debye-Ang):
   XX=            -20.9968   YY=            -17.5976   ZZ=            -17.7830
   XY=             -0.0423   XZ=              0.0286   YZ=             -0.0145

 Normal termination of Gaussian 09 at Wed Aug 26 15:39:23 2020.
