 Gaussian 09, Revision D.01,
 Gaussian 09:  ES64L-G09RevD.01 24-Apr-2013

 --------------------
 #p B2PLYPD3/Def2QZVP
 --------------------

 ------------
 cyanomethane
 ------------
 Symbolic Z-matrix:
 Charge =  0 Multiplicity = 1

                         Standard orientation:
 ---------------------------------------------------------------------
 Center     Atomic      Atomic             Coordinates (Angstroms)
 Number     Number       Type             X           Y           Z
 ---------------------------------------------------------------------
      1          6           0        1.174395    0.001020   -0.001849
      2          6           0       -0.282092   -0.013185   -0.003581
      3          7           0       -1.433573    0.010949    0.003119
      4          1           0        1.608007    0.955102   -0.350327
      5          1           0        1.507965   -0.789805   -0.636364
      6          1           0        1.565218   -0.168949    0.997437
 ---------------------------------------------------------------------

 SCF Done:  E(RB2PLYPD3) =  -132.534994126     A.U. after   12 cycles
 E2(B2PLYPD3) =    -0.1802198792D+00 E(B2PLYPD3) =    -0.13271521400480D+03

 The electronic state is 1-A.
 Alpha  occ. eigenvalues --  -14.84158 -10.66978 -10.66218  -1.04260  -0.89282
 Alpha  occ. eigenvalues --   -0.60010  -0.54334  -0.53321  -0.44827  -0.39184
 Alpha  occ. eigenvalues --   -0.39127
 Alpha virt. eigenvalues --    0.03761   0.07650   0.08257   0.10177   0.11429
 Alpha virt. eigenvalues --    0.11576   0.15450   0.16113   0.16871   0.20044
 Alpha virt. eigenvalues --    0.20122   0.25388   0.32792   0.34614   0.34850

 Mulliken charges:
               1
     1  C   -0.078918
     2  C   -0.000998
     3  N   -0.204465
     4  H    0.093704
     5  H    0.097013
     6  H    0.093664
 Sum of Mulliken charges =   0.00000

 Dipole moment (field-independent basis, Debye):
    X=              4.1287    Y=             -0.0267    Z=              0.0007  Tot=              4.1288
 Quadrupole moment (field-independent basis, Debye-Ang):
   XX=            -20.8966   YY=            -17.7396   ZZ=            -17.7935
   XY=              0.1088   XZ=              0.0499   YZ=              0.0301

 Normal termination of Gaussian 09 at Thu Aug 27 00:02:35 2020.
