 Gaussian 09, Revision D.01,
 Gaussian 09:  ES64L-G09RevD.01 24-Apr-2013

 --------------------
 #p B2PLYPD3/Def2QZVP
 --------------------

 ------------
 cyanomethane
 ------------
 Symbolic Z-matrix:
 Charge =  0 Multiplicity = 1

                         Standard orientation:
 ---------------------------------------------------------------------
 Center     Atomic      Atomic             Coordinates (Angstroms)
 Number     Number       Type             X           Y           Z
 ---------------------------------------------------------------------
      1          6           0       -1.177780   -0.000201    0.008384
      2          6           0        0.267961   -0.001866   -0.020348
      3          7           0        1.433270    0.000577    0.007409
      4          1           0       -1.553866   -0.578312   -0.823654
      5          1           0       -1.521719    1.019067   -0.077035
      6          1           0       -1.498393   -0.432400    0.920612
 ---------------------------------------------------------------------

 SCF Done:  E(RB2PLYPD3) =  -132.534032098     A.U. after   11 cycles
 E2(B2PLYPD3) =    -0.1811931438D+00 E(B2PLYPD3) =    -0.13271522524207D+03

 The electronic state is 1-A.
 Alpha  occ. eigenvalues --  -14.84390 -10.66574 -10.66420  -1.03656  -0.89912
 Alpha  occ. eigenvalues --   -0.59735  -0.54935  -0.54354  -0.44746  -0.38756
 Alpha  occ. eigenvalues --   -0.38701
 Alpha virt. eigenvalues --    0.03839   0.07892   0.07991   0.10151   0.11322
 Alpha virt. eigenvalues --    0.11344   0.15446   0.16044   0.16160   0.20162
 Alpha virt. eigenvalues --    0.20168   0.25538   0.32802   0.34640   0.34970

 Mulliken charges:
               1
     1  C   -0.082931
     2  C   -0.001065
     3  N   -0.213036
     4  H    0.096950
     5  H    0.098985
     6  H    0.101097
 Sum of Mulliken charges =   0.00000

 Dipole moment (field-independent basis, Debye):
    X=             -4.1396    Y=             -0.0030    Z=             -0.0072  Tot=              4.1396
 Quadrupole moment (field-independent basis, Debye-Ang):
   XX=            -21.0960   YY=            -17.7070   ZZ=            -17.7269
   XY=              0.0100   XZ=             -0.0015   YZ=             -0.0206

 Normal termination of Gaussian 09 at Wed Aug 26 09:52:31 2020.
