 Gaussian 09, Revision D.01,
 Gaussian 09:  ES64L-G09RevD.01 24-Apr-2013

 --------------------
 #p B2PLYPD3/Def2QZVP
 --------------------

 ------------
 cyanomethane
 ------------
 Symbolic Z-matrix:
 Charge =  0 Multiplicity = 1

                         Standard orientation:
 ---------------------------------------------------------------------
 Center     Atomic      Atomic             Coordinates (Angstroms)
 Number     Number       Type             X           Y           Z
 ---------------------------------------------------------------------
      1          6           0       -1.180319   -0.014474    0.003459
      2          6           0        0.283351    0.045560    0.001422
      3          7           0        1.420897   -0.019579   -0.004531
      4          1           0       -1.461748   -0.385845    0.908670
      5          1           0       -1.534431   -0.640799   -0.763578
      6          1           0       -1.568291    0.977176   -0.142660
 ---------------------------------------------------------------------

 SCF Done:  E(RB2PLYPD3) =  -132.532140932     A.U. after   12 cycles
 E2(B2PLYPD3) =    -0.1786956109D+00 E(B2PLYPD3) =    -0.13271083654279D+03

 The electronic state is 1-A.
 Alpha  occ. eigenvalues --  -14.83672 -10.65853 -10.65676  -1.04673  -0.90091
 Alpha  occ. eigenvalues --   -0.59574  -0.55543  -0.54428  -0.44643  -0.39551
 Alpha  occ. eigenvalues --   -0.39466
 Alpha virt. eigenvalues --    0.03948   0.08510   0.08995   0.10215   0.11464
 Alpha virt. eigenvalues --    0.11519   0.15503   0.16014   0.16629   0.19995
 Alpha virt. eigenvalues --    0.20067   0.25362   0.33052   0.35097   0.35577

 Mulliken charges:
               1
     1  C   -0.077791
     2  C   -0.006594
     3  N   -0.199783
     4  H    0.098060
     5  H    0.094135
     6  H    0.091973
 Sum of Mulliken charges =   0.00000

 Dipole moment (field-independent basis, Debye):
    X=             -4.1022    Y=              0.0174    Z=              0.0138  Tot=              4.1022
 Quadrupole moment (field-independent basis, Debye-Ang):
   XX=            -20.9681   YY=            -17.5981   ZZ=            -17.6450
   XY=              0.0915   XZ=              0.0705   YZ=             -0.0186

 Normal termination of Gaussian 09 at Wed Aug 26 13:08:44 2020.
