 Gaussian 09, Revision D.01,
 Gaussian 09:  ES64L-G09RevD.01 24-Apr-2013

 --------------------
 #p B2PLYPD3/Def2QZVP
 --------------------

 ------------
 cyanomethane
 ------------
 Symbolic Z-matrix:
 Charge =  0 Multiplicity = 1

                         Standard orientation:
 ---------------------------------------------------------------------
 Center     Atomic      Atomic             Coordinates (Angstroms)
 Number     Number       Type             X           Y           Z
 ---------------------------------------------------------------------
      1          6           0       -1.179791    0.000416    0.006323
      2          6           0        0.279291    0.012166   -0.006696
      3          7           0        1.430230   -0.003685    0.002095
      4          1           0       -1.519258   -0.211540    0.993296
      5          1           0       -1.515710   -0.815633   -0.665724
      6          1           0       -1.573640    0.977475   -0.339997
 ---------------------------------------------------------------------

 SCF Done:  E(RB2PLYPD3) =  -132.534920826     A.U. after   11 cycles
 E2(B2PLYPD3) =    -0.1802077502D+00 E(B2PLYPD3) =    -0.13271512857580D+03

 The electronic state is 1-A.
 Alpha  occ. eigenvalues --  -14.84022 -10.67296 -10.66082  -1.04206  -0.89142
 Alpha  occ. eigenvalues --   -0.59279  -0.54249  -0.53688  -0.44701  -0.39151
 Alpha  occ. eigenvalues --   -0.39040
 Alpha virt. eigenvalues --    0.03734   0.07857   0.08146   0.10188   0.11435
 Alpha virt. eigenvalues --    0.11565   0.15350   0.16053   0.16361   0.20057
 Alpha virt. eigenvalues --    0.20108   0.25299   0.32630   0.34208   0.34810

 Mulliken charges:
               1
     1  C   -0.092412
     2  C   -0.002858
     3  N   -0.204858
     4  H    0.101458
     5  H    0.098894
     6  H    0.099777
 Sum of Mulliken charges =   0.00000

 Dipole moment (field-independent basis, Debye):
    X=             -4.1129    Y=             -0.0083    Z=              0.0101  Tot=              4.1129
 Quadrupole moment (field-independent basis, Debye-Ang):
   XX=            -21.1356   YY=            -17.6514   ZZ=            -17.7648
   XY=              0.0054   XZ=             -0.0290   YZ=             -0.0182

 Normal termination of Gaussian 09 at Thu Aug 27 00:10:49 2020.
