 Gaussian 09, Revision D.01,
 Gaussian 09:  ES64L-G09RevD.01 24-Apr-2013

 --------------------
 #p B2PLYPD3/Def2QZVP
 --------------------

 ------------
 cyanomethane
 ------------
 Symbolic Z-matrix:
 Charge =  0 Multiplicity = 1

                         Standard orientation:
 ---------------------------------------------------------------------
 Center     Atomic      Atomic             Coordinates (Angstroms)
 Number     Number       Type             X           Y           Z
 ---------------------------------------------------------------------
      1          6           0       -1.186024    0.004412    0.004454
      2          6           0        0.277644   -0.017812   -0.009565
      3          7           0        1.437689    0.008384    0.001162
      4          1           0       -1.495456   -0.301721    0.972385
      5          1           0       -1.576590   -0.685266   -0.738088
      6          1           0       -1.541491    1.008699   -0.211763
 ---------------------------------------------------------------------

 SCF Done:  E(RB2PLYPD3) =  -132.534734936     A.U. after   12 cycles
 E2(B2PLYPD3) =    -0.1808138271D+00 E(B2PLYPD3) =    -0.13271554876326D+03

 The electronic state is 1-A.
 Alpha  occ. eigenvalues --  -14.84307 -10.66892 -10.66390  -1.03837  -0.89442
 Alpha  occ. eigenvalues --   -0.59463  -0.54646  -0.54016  -0.44740  -0.38956
 Alpha  occ. eigenvalues --   -0.38930
 Alpha virt. eigenvalues --    0.03795   0.07865   0.08211   0.10194   0.11303
 Alpha virt. eigenvalues --    0.11337   0.15323   0.15998   0.16382   0.20117
 Alpha virt. eigenvalues --    0.20126   0.25224   0.32634   0.34690   0.34882

 Mulliken charges:
               1
     1  C   -0.084684
     2  C   -0.002038
     3  N   -0.209631
     4  H    0.100528
     5  H    0.096676
     6  H    0.099149
 Sum of Mulliken charges =   0.00000

 Dipole moment (field-independent basis, Debye):
    X=             -4.1392    Y=             -0.0151    Z=              0.0062  Tot=              4.1392
 Quadrupole moment (field-independent basis, Debye-Ang):
   XX=            -21.0615   YY=            -17.7213   ZZ=            -17.7505
   XY=             -0.0271   XZ=              0.0371   YZ=             -0.0184

 Normal termination of Gaussian 09 at Wed Aug 26 17:22:54 2020.
