 Gaussian 09, Revision D.01,
 Gaussian 09:  ES64L-G09RevD.01 24-Apr-2013

 --------------------
 #p B2PLYPD3/Def2QZVP
 --------------------

 ------------
 cyanomethane
 ------------
 Symbolic Z-matrix:
 Charge =  0 Multiplicity = 1

                         Standard orientation:
 ---------------------------------------------------------------------
 Center     Atomic      Atomic             Coordinates (Angstroms)
 Number     Number       Type             X           Y           Z
 ---------------------------------------------------------------------
      1          6           0       -1.153870   -0.007657   -0.006365
      2          6           0        0.282827    0.032095    0.019977
      3          7           0        1.419438   -0.010942   -0.006715
      4          1           0       -1.607110   -0.093369    1.051548
      5          1           0       -1.493199   -0.956572   -0.597947
      6          1           0       -1.609495    0.979908   -0.488262
 ---------------------------------------------------------------------

 SCF Done:  E(RB2PLYPD3) =  -132.523010653     A.U. after   12 cycles
 E2(B2PLYPD3) =    -0.1802925610D+00 E(B2PLYPD3) =    -0.13270330321430D+03

 The electronic state is 1-A.
 Alpha  occ. eigenvalues --  -14.83780 -10.69198 -10.65764  -1.04896  -0.87863
 Alpha  occ. eigenvalues --   -0.59030  -0.52490  -0.51886  -0.44819  -0.39184
 Alpha  occ. eigenvalues --   -0.39120
 Alpha virt. eigenvalues --    0.03264   0.06861   0.07070   0.10139   0.11988
 Alpha virt. eigenvalues --    0.12062   0.15350   0.16364   0.16547   0.19965
 Alpha virt. eigenvalues --    0.20028   0.25742   0.32011   0.33220   0.33430

 Mulliken charges:
               1
     1  C   -0.112931
     2  C    0.003117
     3  N   -0.194452
     4  H    0.099307
     5  H    0.105051
     6  H    0.099908
 Sum of Mulliken charges =   0.00000

 Dipole moment (field-independent basis, Debye):
    X=             -4.0457    Y=              0.0018    Z=              0.0311  Tot=              4.0459
 Quadrupole moment (field-independent basis, Debye-Ang):
   XX=            -21.1898   YY=            -17.6484   ZZ=            -17.8936
   XY=              0.0100   XZ=             -0.0636   YZ=              0.0151

 Normal termination of Gaussian 09 at Wed Aug 26 21:37:25 2020.
