 Gaussian 09, Revision D.01,
 Gaussian 09:  ES64L-G09RevD.01 24-Apr-2013

 --------------------
 #p B2PLYPD3/Def2QZVP
 --------------------

 ------------
 cyanomethane
 ------------
 Symbolic Z-matrix:
 Charge =  0 Multiplicity = 1

                         Standard orientation:
 ---------------------------------------------------------------------
 Center     Atomic      Atomic             Coordinates (Angstroms)
 Number     Number       Type             X           Y           Z
 ---------------------------------------------------------------------
      1          6           0       -1.214075    0.018302   -0.001938
      2          6           0        0.277420    0.049076   -0.007815
      3          7           0        1.445241   -0.041441    0.009163
      4          1           0       -1.290339    0.937938   -0.271880
      5          1           0       -1.614376   -0.274233    0.927825
      6          1           0       -1.592040   -0.777883   -0.661563
 ---------------------------------------------------------------------

 SCF Done:  E(RB2PLYPD3) =  -132.506824087     A.U. after   12 cycles
 E2(B2PLYPD3) =    -0.1820175503D+00 E(B2PLYPD3) =    -0.13268884163687D+03

 The electronic state is 1-A.
 Alpha  occ. eigenvalues --  -14.84594 -10.66732 -10.66034  -1.03388  -0.90609
 Alpha  occ. eigenvalues --   -0.60775  -0.56320  -0.52705  -0.44606  -0.38835
 Alpha  occ. eigenvalues --   -0.38632
 Alpha virt. eigenvalues --    0.03682   0.07326   0.09531   0.09834   0.10746
 Alpha virt. eigenvalues --    0.11434   0.14543   0.15649   0.16774   0.20013
 Alpha virt. eigenvalues --    0.20331   0.24677   0.32266   0.34141   0.36418

 Mulliken charges:
               1
     1  C   -0.094749
     2  C   -0.003504
     3  N   -0.215091
     4  H    0.121450
     5  H    0.095996
     6  H    0.095897
 Sum of Mulliken charges =   0.00000

 Dipole moment (field-independent basis, Debye):
    X=             -4.1371    Y=              0.0095    Z=              0.0135  Tot=              4.1371
 Quadrupole moment (field-independent basis, Debye-Ang):
   XX=            -21.1200   YY=            -17.4880   ZZ=            -17.9717
   XY=              0.5810   XZ=             -0.1960   YZ=             -0.0940

 Normal termination of Gaussian 09 at Wed Aug 26 23:07:59 2020.
