 Gaussian 09, Revision D.01,
 Gaussian 09:  ES64L-G09RevD.01 24-Apr-2013

 --------------------
 #p B2PLYPD3/Def2QZVP
 --------------------

 ------------
 cyanomethane
 ------------
 Symbolic Z-matrix:
 Charge =  0 Multiplicity = 1

                         Standard orientation:
 ---------------------------------------------------------------------
 Center     Atomic      Atomic             Coordinates (Angstroms)
 Number     Number       Type             X           Y           Z
 ---------------------------------------------------------------------
      1          6           0        1.175077   -0.000398   -0.000087
      2          6           0       -0.285732    0.018591   -0.008374
      3          7           0       -1.433170   -0.007236    0.004654
      4          1           0        1.545963   -0.531981   -0.890282
      5          1           0        1.550397   -0.548150    0.892203
      6          1           0        1.599754    1.021630    0.016266
 ---------------------------------------------------------------------

 SCF Done:  E(RB2PLYPD3) =  -132.535124679     A.U. after   11 cycles
 E2(B2PLYPD3) =    -0.1801326578D+00 E(B2PLYPD3) =    -0.13271525733675D+03

 The electronic state is 1-A.
 Alpha  occ. eigenvalues --  -14.84058 -10.67647 -10.66132  -1.04408  -0.88699
 Alpha  occ. eigenvalues --   -0.59606  -0.53563  -0.53169  -0.44808  -0.39266
 Alpha  occ. eigenvalues --   -0.39179
 Alpha virt. eigenvalues --    0.03667   0.07716   0.07874   0.10190   0.11509
 Alpha virt. eigenvalues --    0.11649   0.15381   0.16364   0.16570   0.20021
 Alpha virt. eigenvalues --    0.20070   0.25310   0.32626   0.34240   0.34587

 Mulliken charges:
               1
     1  C   -0.087806
     2  C   -0.001346
     3  N   -0.201604
     4  H    0.097373
     5  H    0.096471
     6  H    0.096912
 Sum of Mulliken charges =   0.00000

 Dipole moment (field-independent basis, Debye):
    X=              4.1137    Y=             -0.0006    Z=             -0.0067  Tot=              4.1137
 Quadrupole moment (field-independent basis, Debye-Ang):
   XX=            -20.9805   YY=            -17.7411   ZZ=            -17.8035
   XY=             -0.0257   XZ=              0.0323   YZ=              0.0115

 Normal termination of Gaussian 09 at Thu Aug 27 00:06:23 2020.
