 Gaussian 09, Revision D.01,
 Gaussian 09:  ES64L-G09RevD.01 24-Apr-2013

 --------------------
 #p B2PLYPD3/Def2QZVP
 --------------------

 ------------
 cyanomethane
 ------------
 Symbolic Z-matrix:
 Charge =  0 Multiplicity = 1

                         Standard orientation:
 ---------------------------------------------------------------------
 Center     Atomic      Atomic             Coordinates (Angstroms)
 Number     Number       Type             X           Y           Z
 ---------------------------------------------------------------------
      1          6           0        1.191614    0.000937    0.018508
      2          6           0       -0.275307   -0.006126   -0.042159
      3          7           0       -1.443030    0.002997    0.019012
      4          1           0        1.536228    1.020076   -0.206738
      5          1           0        1.546767   -0.687947   -0.760275
      6          1           0        1.520375   -0.321972    0.975839
 ---------------------------------------------------------------------

 SCF Done:  E(RB2PLYPD3) =  -132.532718274     A.U. after   12 cycles
 E2(B2PLYPD3) =    -0.1817652088D+00 E(B2PLYPD3) =    -0.13271448348264D+03

 The electronic state is 1-A.
 Alpha  occ. eigenvalues --  -14.84559 -10.67250 -10.66658  -1.03469  -0.89210
 Alpha  occ. eigenvalues --   -0.59251  -0.54593  -0.53805  -0.44750  -0.38779
 Alpha  occ. eigenvalues --   -0.38642
 Alpha virt. eigenvalues --    0.03712   0.07719   0.07846   0.10116   0.11206
 Alpha virt. eigenvalues --    0.11229   0.15251   0.15685   0.16425   0.20134
 Alpha virt. eigenvalues --    0.20163   0.25250   0.32415   0.34182   0.34961

 Mulliken charges:
               1
     1  C   -0.090626
     2  C    0.000228
     3  N   -0.213578
     4  H    0.100848
     5  H    0.098294
     6  H    0.104834
 Sum of Mulliken charges =   0.00000

 Dipole moment (field-independent basis, Debye):
    X=              4.1394    Y=             -0.0080    Z=             -0.0234  Tot=              4.1395
 Quadrupole moment (field-independent basis, Debye-Ang):
   XX=            -21.1643   YY=            -17.7581   ZZ=            -17.7609
   XY=              0.0037   XZ=              0.0774   YZ=             -0.0307

 Normal termination of Gaussian 09 at Wed Aug 26 15:12:35 2020.
