 Gaussian 09, Revision D.01,
 Gaussian 09:  ES64L-G09RevD.01 24-Apr-2013

 --------------------
 #p B2PLYPD3/Def2QZVP
 --------------------

 ------------
 cyanomethane
 ------------
 Symbolic Z-matrix:
 Charge =  0 Multiplicity = 1

                         Standard orientation:
 ---------------------------------------------------------------------
 Center     Atomic      Atomic             Coordinates (Angstroms)
 Number     Number       Type             X           Y           Z
 ---------------------------------------------------------------------
      1          6           0        1.200690    0.017497    0.005120
      2          6           0       -0.279548   -0.055929    0.036454
      3          7           0       -1.439069    0.033212   -0.017760
      4          1           0        1.530753   -0.110785    0.918893
      5          1           0        1.575013    0.949605   -0.424557
      6          1           0        1.440867   -0.840713   -0.619457
 ---------------------------------------------------------------------

 SCF Done:  E(RB2PLYPD3) =  -132.522624744     A.U. after   13 cycles
 E2(B2PLYPD3) =    -0.1811055161D+00 E(B2PLYPD3) =    -0.13270373026054D+03

 The electronic state is 1-A.
 Alpha  occ. eigenvalues --  -14.84406 -10.66497 -10.66313  -1.03659  -0.89942
 Alpha  occ. eigenvalues --   -0.59531  -0.55656  -0.53955  -0.44685  -0.39058
 Alpha  occ. eigenvalues --   -0.38767
 Alpha virt. eigenvalues --    0.03617   0.07733   0.09097   0.10100   0.10965
 Alpha virt. eigenvalues --    0.11295   0.15005   0.15458   0.16863   0.20115
 Alpha virt. eigenvalues --    0.20176   0.25191   0.32678   0.34208   0.35254

 Mulliken charges:
               1
     1  C   -0.089918
     2  C   -0.000652
     3  N   -0.212163
     4  H    0.103515
     5  H    0.100530
     6  H    0.098687
 Sum of Mulliken charges =   0.00000

 Dipole moment (field-independent basis, Debye):
    X=              4.1279    Y=             -0.0583    Z=              0.0368  Tot=              4.1285
 Quadrupole moment (field-independent basis, Debye-Ang):
   XX=            -21.1019   YY=            -17.6185   ZZ=            -17.7840
   XY=              0.2424   XZ=             -0.0187   YZ=             -0.0025

 Normal termination of Gaussian 09 at Wed Aug 26 23:09:52 2020.
