 Gaussian 09, Revision D.01,
 Gaussian 09:  ES64L-G09RevD.01 24-Apr-2013

 --------------------
 #p B2PLYPD3/Def2QZVP
 --------------------

 ------------
 cyanomethane
 ------------
 Symbolic Z-matrix:
 Charge =  0 Multiplicity = 1

                         Standard orientation:
 ---------------------------------------------------------------------
 Center     Atomic      Atomic             Coordinates (Angstroms)
 Number     Number       Type             X           Y           Z
 ---------------------------------------------------------------------
      1          6           0       -1.176923    0.010147    0.002845
      2          6           0        0.277352   -0.016293    0.005154
      3          7           0        1.438418    0.007989   -0.002884
      4          1           0       -1.557780   -0.168446    0.993606
      5          1           0       -1.550301   -0.801506   -0.650033
      6          1           0       -1.563415    0.950901   -0.371379
 ---------------------------------------------------------------------

 SCF Done:  E(RB2PLYPD3) =  -132.534699105     A.U. after   12 cycles
 E2(B2PLYPD3) =    -0.1810654220D+00 E(B2PLYPD3) =    -0.13271576452678D+03

 The electronic state is 1-A.
 Alpha  occ. eigenvalues --  -14.84414 -10.67099 -10.66483  -1.03870  -0.89282
 Alpha  occ. eigenvalues --   -0.59992  -0.54241  -0.53495  -0.44848  -0.38972
 Alpha  occ. eigenvalues --   -0.38833
 Alpha virt. eigenvalues --    0.03748   0.07640   0.07852   0.10149   0.11344
 Alpha virt. eigenvalues --    0.11468   0.15427   0.16087   0.16651   0.20113
 Alpha virt. eigenvalues --    0.20130   0.25418   0.32667   0.34310   0.34965

 Mulliken charges:
               1
     1  C   -0.080352
     2  C    0.000515
     3  N   -0.209181
     4  H    0.096946
     5  H    0.093919
     6  H    0.098153
 Sum of Mulliken charges =   0.00000

 Dipole moment (field-independent basis, Debye):
    X=             -4.1403    Y=             -0.0159    Z=              0.0059  Tot=              4.1404
 Quadrupole moment (field-independent basis, Debye-Ang):
   XX=            -20.9564   YY=            -17.7739   ZZ=            -17.7993
   XY=             -0.0377   XZ=              0.0102   YZ=             -0.0282

 Normal termination of Gaussian 09 at Wed Aug 26 09:46:28 2020.
