 Gaussian 09, Revision D.01,
 Gaussian 09:  ES64L-G09RevD.01 24-Apr-2013

 --------------------
 #p B2PLYPD3/Def2QZVP
 --------------------

 ------------
 cyanomethane
 ------------
 Symbolic Z-matrix:
 Charge =  0 Multiplicity = 1

                         Standard orientation:
 ---------------------------------------------------------------------
 Center     Atomic      Atomic             Coordinates (Angstroms)
 Number     Number       Type             X           Y           Z
 ---------------------------------------------------------------------
      1          6           0        1.165854   -0.007446   -0.000322
      2          6           0       -0.277711   -0.032311    0.001112
      3          7           0       -1.427884    0.019424   -0.004352
      4          1           0        1.588744    1.016591   -0.195277
      5          1           0        1.582035   -0.644627   -0.689817
      6          1           0        1.495548   -0.269389    0.910818
 ---------------------------------------------------------------------

 SCF Done:  E(RB2PLYPD3) =  -132.527082260     A.U. after   12 cycles
 E2(B2PLYPD3) =    -0.1798372979D+00 E(B2PLYPD3) =    -0.13270691955787D+03

 The electronic state is 1-A.
 Alpha  occ. eigenvalues --  -14.84158 -10.66155 -10.65715  -1.04341  -0.90395
 Alpha  occ. eigenvalues --   -0.60987  -0.55661  -0.53365  -0.44875  -0.39334
 Alpha  occ. eigenvalues --   -0.39078
 Alpha virt. eigenvalues --    0.03772   0.07774   0.08822   0.10178   0.11331
 Alpha virt. eigenvalues --    0.11639   0.15666   0.16164   0.17074   0.20050
 Alpha virt. eigenvalues --    0.20145   0.25665   0.33005   0.34433   0.35898

 Mulliken charges:
               1
     1  C   -0.063156
     2  C    0.001245
     3  N   -0.205302
     4  H    0.085587
     5  H    0.089700
     6  H    0.091926
 Sum of Mulliken charges =   0.00000

 Dipole moment (field-independent basis, Debye):
    X=              4.1339    Y=             -0.0506    Z=              0.0334  Tot=              4.1343
 Quadrupole moment (field-independent basis, Debye-Ang):
   XX=            -20.7021   YY=            -17.6960   ZZ=            -17.7755
   XY=              0.0913   XZ=             -0.0268   YZ=              0.0260

 Normal termination of Gaussian 09 at Wed Aug 26 13:45:56 2020.
