 Gaussian 09, Revision D.01,
 Gaussian 09:  ES64L-G09RevD.01 24-Apr-2013

 --------------------
 #p B2PLYPD3/Def2QZVP
 --------------------

 ------------
 cyanomethane
 ------------
 Symbolic Z-matrix:
 Charge =  0 Multiplicity = 1

                         Standard orientation:
 ---------------------------------------------------------------------
 Center     Atomic      Atomic             Coordinates (Angstroms)
 Number     Number       Type             X           Y           Z
 ---------------------------------------------------------------------
      1          6           0        1.173601    0.016983   -0.000358
      2          6           0       -0.276714    0.034109   -0.005391
      3          7           0       -1.440361   -0.021516   -0.000144
      4          1           0        1.548181    0.991353   -0.078599
      5          1           0        1.613433   -0.654386   -0.837769
      6          1           0        1.539586   -0.492911    0.951868
 ---------------------------------------------------------------------

 SCF Done:  E(RB2PLYPD3) =  -132.527817521     A.U. after   12 cycles
 E2(B2PLYPD3) =    -0.1818470432D+00 E(B2PLYPD3) =    -0.13270966456380D+03

 The electronic state is 1-A.
 Alpha  occ. eigenvalues --  -14.84566 -10.67852 -10.66629  -1.03767  -0.88865
 Alpha  occ. eigenvalues --   -0.59868  -0.54838  -0.51722  -0.44908  -0.38968
 Alpha  occ. eigenvalues --   -0.38498
 Alpha virt. eigenvalues --    0.03455   0.06668   0.07983   0.10118   0.11087
 Alpha virt. eigenvalues --    0.11787   0.15383   0.16180   0.16587   0.20006
 Alpha virt. eigenvalues --    0.20233   0.25476   0.32325   0.33187   0.34894

 Mulliken charges:
               1
     1  C   -0.088030
     2  C    0.002744
     3  N   -0.209542
     4  H    0.105583
     5  H    0.093342
     6  H    0.095904
 Sum of Mulliken charges =   0.00000

 Dipole moment (field-independent basis, Debye):
    X=              4.1285    Y=              0.0180    Z=              0.0120  Tot=              4.1285
 Quadrupole moment (field-independent basis, Debye-Ang):
   XX=            -21.0134   YY=            -17.7015   ZZ=            -17.9683
   XY=             -0.1812   XZ=             -0.0263   YZ=             -0.0336

 Normal termination of Gaussian 09 at Wed Aug 26 13:15:04 2020.
