 Gaussian 09, Revision D.01,
 Gaussian 09:  ES64L-G09RevD.01 24-Apr-2013

 --------------------
 #p B2PLYPD3/Def2QZVP
 --------------------

 ------------
 cyanomethane
 ------------
 Symbolic Z-matrix:
 Charge =  0 Multiplicity = 1

                         Standard orientation:
 ---------------------------------------------------------------------
 Center     Atomic      Atomic             Coordinates (Angstroms)
 Number     Number       Type             X           Y           Z
 ---------------------------------------------------------------------
      1          6           0       -1.175603   -0.000136   -0.003019
      2          6           0        0.277489    0.010697   -0.004700
      3          7           0        1.427562   -0.002247    0.004012
      4          1           0       -1.531506   -0.444679    0.940680
      5          1           0       -1.495306   -0.621461   -0.828179
      6          1           0       -1.577431    1.018506   -0.094274
 ---------------------------------------------------------------------

 SCF Done:  E(RB2PLYPD3) =  -132.535585358     A.U. after   11 cycles
 E2(B2PLYPD3) =    -0.1801225176D+00 E(B2PLYPD3) =    -0.13271570787589D+03

 The electronic state is 1-A.
 Alpha  occ. eigenvalues --  -14.83985 -10.67219 -10.66025  -1.04255  -0.89241
 Alpha  occ. eigenvalues --   -0.59347  -0.54348  -0.53679  -0.44704  -0.39136
 Alpha  occ. eigenvalues --   -0.39043
 Alpha virt. eigenvalues --    0.03749   0.07843   0.08142   0.10188   0.11477
 Alpha virt. eigenvalues --    0.11607   0.15397   0.16034   0.16413   0.20063
 Alpha virt. eigenvalues --    0.20107   0.25406   0.32770   0.34322   0.34737

 Mulliken charges:
               1
     1  C   -0.091601
     2  C   -0.002932
     3  N   -0.204544
     4  H    0.098295
     5  H    0.101375
     6  H    0.099408
 Sum of Mulliken charges =   0.00000

 Dipole moment (field-independent basis, Debye):
    X=             -4.1105    Y=             -0.0080    Z=             -0.0042  Tot=              4.1105
 Quadrupole moment (field-independent basis, Debye-Ang):
   XX=            -21.1235   YY=            -17.6709   ZZ=            -17.7341
   XY=             -0.0197   XZ=             -0.0503   YZ=              0.0216

 Normal termination of Gaussian 09 at Thu Aug 27 00:12:35 2020.
