 Gaussian 09, Revision D.01,
 Gaussian 09:  ES64L-G09RevD.01 24-Apr-2013

 --------------------
 #p B2PLYPD3/Def2QZVP
 --------------------

 ------------
 cyanomethane
 ------------
 Symbolic Z-matrix:
 Charge =  0 Multiplicity = 1

                         Standard orientation:
 ---------------------------------------------------------------------
 Center     Atomic      Atomic             Coordinates (Angstroms)
 Number     Number       Type             X           Y           Z
 ---------------------------------------------------------------------
      1          6           0        1.181672   -0.036411    0.014940
      2          6           0       -0.281864   -0.062899    0.012798
      3          7           0       -1.416013    0.044704   -0.011326
      4          1           0        1.626179    0.959234   -0.494805
      5          1           0        1.430221   -0.761427   -0.533424
      6          1           0        1.456842    0.085125    0.941080
 ---------------------------------------------------------------------

 SCF Done:  E(RB2PLYPD3) =  -132.496036860     A.U. after   12 cycles
 E2(B2PLYPD3) =    -0.1790989483D+00 E(B2PLYPD3) =    -0.13267513580842D+03

 The electronic state is 1-A.
 Alpha  occ. eigenvalues --  -14.83714 -10.65634 -10.65512  -1.04738  -0.90971
 Alpha  occ. eigenvalues --   -0.60273  -0.59188  -0.51137  -0.44659  -0.39923
 Alpha  occ. eigenvalues --   -0.38915
 Alpha virt. eigenvalues --    0.03212   0.07827   0.10071   0.10220   0.10865
 Alpha virt. eigenvalues --    0.11900   0.15504   0.15959   0.16689   0.19882
 Alpha virt. eigenvalues --    0.20150   0.25282   0.31301   0.33996   0.37430

 Mulliken charges:
               1
     1  C   -0.095337
     2  C   -0.005320
     3  N   -0.199123
     4  H    0.076472
     5  H    0.115685
     6  H    0.107622
 Sum of Mulliken charges =   0.00000

 Dipole moment (field-independent basis, Debye):
    X=              4.0603    Y=             -0.0632    Z=              0.0432  Tot=              4.0611
 Quadrupole moment (field-independent basis, Debye-Ang):
   XX=            -21.0168   YY=            -17.6552   ZZ=            -17.5648
   XY=              0.4193   XZ=             -0.0742   YZ=              0.2577

 Normal termination of Gaussian 09 at Wed Aug 26 22:19:50 2020.
