 Gaussian 09, Revision D.01,
 Gaussian 09:  ES64L-G09RevD.01 24-Apr-2013

 --------------------
 #p B2PLYPD3/Def2QZVP
 --------------------

 ------------
 cyanomethane
 ------------
 Symbolic Z-matrix:
 Charge =  0 Multiplicity = 1

                         Standard orientation:
 ---------------------------------------------------------------------
 Center     Atomic      Atomic             Coordinates (Angstroms)
 Number     Number       Type             X           Y           Z
 ---------------------------------------------------------------------
      1          6           0       -1.171427    0.011729    0.000536
      2          6           0        0.263656   -0.073329   -0.016682
      3          7           0        1.453650    0.038533    0.001687
      4          1           0       -1.473377   -0.260691    0.963997
      5          1           0       -1.633235   -0.658916   -0.678938
      6          1           0       -1.622310    1.019478   -0.199995
 ---------------------------------------------------------------------

 SCF Done:  E(RB2PLYPD3) =  -132.523413538     A.U. after   13 cycles
 E2(B2PLYPD3) =    -0.1842666282D+00 E(B2PLYPD3) =    -0.13270768016650D+03

 The electronic state is 1-A.
 Alpha  occ. eigenvalues --  -14.85501 -10.67544 -10.66584  -1.02720  -0.89924
 Alpha  occ. eigenvalues --   -0.61225  -0.54708  -0.53175  -0.45139  -0.38196
 Alpha  occ. eigenvalues --   -0.38083
 Alpha virt. eigenvalues --    0.03393   0.06487   0.07518   0.09955   0.11022
 Alpha virt. eigenvalues --    0.11394   0.15518   0.15791   0.17183   0.20214
 Alpha virt. eigenvalues --    0.20396   0.26039   0.32621   0.34184   0.35124

 Mulliken charges:
               1
     1  C   -0.064599
     2  C    0.009669
     3  N   -0.221825
     4  H    0.094805
     5  H    0.090304
     6  H    0.091645
 Sum of Mulliken charges =   0.00000

 Dipole moment (field-independent basis, Debye):
    X=             -4.1832    Y=             -0.0605    Z=              0.0280  Tot=              4.1837
 Quadrupole moment (field-independent basis, Debye-Ang):
   XX=            -20.7062   YY=            -17.9109   ZZ=            -17.9689
   XY=             -0.1763   XZ=              0.0471   YZ=             -0.0005

 Normal termination of Gaussian 09 at Wed Aug 26 16:24:56 2020.
