 Gaussian 09, Revision D.01,
 Gaussian 09:  ES64L-G09RevD.01 24-Apr-2013

 --------------------
 #p B2PLYPD3/Def2QZVP
 --------------------

 ------------
 cyanomethane
 ------------
 Symbolic Z-matrix:
 Charge =  0 Multiplicity = 1

                         Standard orientation:
 ---------------------------------------------------------------------
 Center     Atomic      Atomic             Coordinates (Angstroms)
 Number     Number       Type             X           Y           Z
 ---------------------------------------------------------------------
      1          6           0        1.193514   -0.008267   -0.003991
      2          6           0       -0.275012   -0.012410   -0.005081
      3          7           0       -1.441973    0.013758    0.006443
      4          1           0        1.429224   -0.891310   -0.504298
      5          1           0        1.574239    0.009200    1.019256
      6          1           0        1.579339    0.909868   -0.505633
 ---------------------------------------------------------------------

 SCF Done:  E(RB2PLYPD3) =  -132.530454846     A.U. after   12 cycles
 E2(B2PLYPD3) =    -0.1815642777D+00 E(B2PLYPD3) =    -0.13271201912403D+03

 The electronic state is 1-A.
 Alpha  occ. eigenvalues --  -14.84461 -10.67139 -10.66575  -1.03530  -0.89421
 Alpha  occ. eigenvalues --   -0.59101  -0.55547  -0.53197  -0.44698  -0.38815
 Alpha  occ. eigenvalues --   -0.38667
 Alpha virt. eigenvalues --    0.03715   0.07405   0.08466   0.10174   0.11044
 Alpha virt. eigenvalues --    0.11394   0.15117   0.15718   0.16409   0.20107
 Alpha virt. eigenvalues --    0.20213   0.25084   0.32376   0.34155   0.35121

 Mulliken charges:
               1
     1  C   -0.091929
     2  C   -0.001757
     3  N   -0.213166
     4  H    0.108408
     5  H    0.099160
     6  H    0.099283
 Sum of Mulliken charges =   0.00000

 Dipole moment (field-independent basis, Debye):
    X=              4.1437    Y=             -0.0186    Z=              0.0017  Tot=              4.1437
 Quadrupole moment (field-independent basis, Debye-Ang):
   XX=            -21.1778   YY=            -17.6671   ZZ=            -17.8219
   XY=              0.1938   XZ=              0.1232   YZ=              0.0651

 Normal termination of Gaussian 09 at Wed Aug 26 14:39:59 2020.
