 Gaussian 09, Revision D.01,
 Gaussian 09:  ES64L-G09RevD.01 24-Apr-2013

 --------------------
 #p B2PLYPD3/Def2QZVP
 --------------------

 ------------
 cyanomethane
 ------------
 Symbolic Z-matrix:
 Charge =  0 Multiplicity = 1

                         Standard orientation:
 ---------------------------------------------------------------------
 Center     Atomic      Atomic             Coordinates (Angstroms)
 Number     Number       Type             X           Y           Z
 ---------------------------------------------------------------------
      1          6           0       -1.179111    0.018887    0.029100
      2          6           0        0.306598   -0.042888   -0.033518
      3          7           0        1.433187    0.020228    0.011980
      4          1           0       -1.609504    0.847666   -0.489324
      5          1           0       -1.560645   -0.020938    0.942575
      6          1           0       -1.627080   -0.824318   -0.510605
 ---------------------------------------------------------------------

 SCF Done:  E(RB2PLYPD3) =  -132.525642335     A.U. after   11 cycles
 E2(B2PLYPD3) =    -0.1781652598D+00 E(B2PLYPD3) =    -0.13270380759434D+03

 The electronic state is 1-A.
 Alpha  occ. eigenvalues --  -14.83736 -10.66088 -10.65864  -1.05253  -0.89442
 Alpha  occ. eigenvalues --   -0.60824  -0.55193  -0.52315  -0.44906  -0.40245
 Alpha  occ. eigenvalues --   -0.39780
 Alpha virt. eigenvalues --    0.03852   0.08344   0.08839   0.10208   0.11388
 Alpha virt. eigenvalues --    0.11771   0.15474   0.16386   0.17889   0.19894
 Alpha virt. eigenvalues --    0.20034   0.25088   0.32791   0.34541   0.36114

 Mulliken charges:
               1
     1  C   -0.057247
     2  C    0.001201
     3  N   -0.191605
     4  H    0.082708
     5  H    0.091312
     6  H    0.073630
 Sum of Mulliken charges =   0.00000

 Dipole moment (field-independent basis, Debye):
    X=             -4.1171    Y=             -0.0430    Z=             -0.0306  Tot=              4.1174
 Quadrupole moment (field-independent basis, Debye-Ang):
   XX=            -20.4654   YY=            -17.8715   ZZ=            -17.6922
   XY=             -0.0900   XZ=              0.0046   YZ=             -0.0546

 Normal termination of Gaussian 09 at Wed Aug 26 23:23:36 2020.
