 Gaussian 09, Revision D.01,
 Gaussian 09:  ES64L-G09RevD.01 24-Apr-2013

 --------------------
 #p B2PLYPD3/Def2QZVP
 --------------------

 ------------
 cyanomethane
 ------------
 Symbolic Z-matrix:
 Charge =  0 Multiplicity = 1

                         Standard orientation:
 ---------------------------------------------------------------------
 Center     Atomic      Atomic             Coordinates (Angstroms)
 Number     Number       Type             X           Y           Z
 ---------------------------------------------------------------------
      1          6           0       -1.194714    0.000149    0.011233
      2          6           0        0.293687    0.039329    0.001180
      3          7           0        1.433941   -0.021088   -0.004140
      4          1           0       -1.512678   -0.199808    1.005227
      5          1           0       -1.566813   -0.857451   -0.666717
      6          1           0       -1.551930    0.968004   -0.384011
 ---------------------------------------------------------------------

 SCF Done:  E(RB2PLYPD3) =  -132.531641191     A.U. after   12 cycles
 E2(B2PLYPD3) =    -0.1796768400D+00 E(B2PLYPD3) =    -0.13271131803100D+03

 The electronic state is 1-A.
 Alpha  occ. eigenvalues --  -14.83804 -10.67962 -10.65919  -1.04521  -0.88329
 Alpha  occ. eigenvalues --   -0.58467  -0.54601  -0.52510  -0.44629  -0.39539
 Alpha  occ. eigenvalues --   -0.39279
 Alpha virt. eigenvalues --    0.03545   0.07739   0.08583   0.10222   0.11309
 Alpha virt. eigenvalues --    0.11632   0.15128   0.16002   0.16417   0.19953
 Alpha virt. eigenvalues --    0.20061   0.24837   0.32267   0.33592   0.34989

 Mulliken charges:
               1
     1  C   -0.101650
     2  C   -0.005682
     3  N   -0.198612
     4  H    0.105905
     5  H    0.097072
     6  H    0.102968
 Sum of Mulliken charges =   0.00000

 Dipole moment (field-independent basis, Debye):
    X=             -4.0978    Y=              0.0257    Z=              0.0193  Tot=              4.0979
 Quadrupole moment (field-independent basis, Debye-Ang):
   XX=            -21.2033   YY=            -17.6688   ZZ=            -17.7401
   XY=              0.1466   XZ=              0.0391   YZ=             -0.0692

 Normal termination of Gaussian 09 at Wed Aug 26 10:43:50 2020.
