 Gaussian 09, Revision D.01,
 Gaussian 09:  ES64L-G09RevD.01 24-Apr-2013

 --------------------
 #p B2PLYPD3/Def2QZVP
 --------------------

 ------------
 cyanomethane
 ------------
 Symbolic Z-matrix:
 Charge =  0 Multiplicity = 1

                         Standard orientation:
 ---------------------------------------------------------------------
 Center     Atomic      Atomic             Coordinates (Angstroms)
 Number     Number       Type             X           Y           Z
 ---------------------------------------------------------------------
      1          6           0        1.173140   -0.001471   -0.010816
      2          6           0       -0.273351    0.006052   -0.014158
      3          7           0       -1.432875   -0.003252    0.007290
      4          1           0        1.542580    1.024142   -0.081322
      5          1           0        1.559918   -0.616919   -0.771179
      6          1           0        1.528890   -0.411942    0.951311
 ---------------------------------------------------------------------

 SCF Done:  E(RB2PLYPD3) =  -132.534075508     A.U. after   11 cycles
 E2(B2PLYPD3) =    -0.1808413129D+00 E(B2PLYPD3) =    -0.13271491682110D+03

 The electronic state is 1-A.
 Alpha  occ. eigenvalues --  -14.84305 -10.66837 -10.66343  -1.03925  -0.89600
 Alpha  occ. eigenvalues --   -0.60059  -0.54902  -0.53367  -0.44804  -0.39014
 Alpha  occ. eigenvalues --   -0.38754
 Alpha virt. eigenvalues --    0.03774   0.07670   0.08047   0.10152   0.11273
 Alpha virt. eigenvalues --    0.11611   0.15478   0.16104   0.16525   0.20079
 Alpha virt. eigenvalues --    0.20174   0.25528   0.32819   0.34093   0.35220

 Mulliken charges:
               1
     1  C   -0.080572
     2  C   -0.000189
     3  N   -0.209253
     4  H    0.097704
     5  H    0.099212
     6  H    0.093099
 Sum of Mulliken charges =   0.00000

 Dipole moment (field-independent basis, Debye):
    X=              4.1349    Y=             -0.0070    Z=              0.0039  Tot=              4.1349
 Quadrupole moment (field-independent basis, Debye-Ang):
   XX=            -20.9967   YY=            -17.6722   ZZ=            -17.8256
   XY=             -0.0516   XZ=              0.0557   YZ=              0.0505

 Normal termination of Gaussian 09 at Thu Aug 27 00:08:50 2020.
