 Gaussian 09, Revision D.01,
 Gaussian 09:  ES64L-G09RevD.01 24-Apr-2013

 --------------------
 #p B2PLYPD3/Def2QZVP
 --------------------

 ------------
 cyanomethane
 ------------
 Symbolic Z-matrix:
 Charge =  0 Multiplicity = 1

                         Standard orientation:
 ---------------------------------------------------------------------
 Center     Atomic      Atomic             Coordinates (Angstroms)
 Number     Number       Type             X           Y           Z
 ---------------------------------------------------------------------
      1          6           0        1.198049   -0.021266   -0.029340
      2          6           0       -0.298735    0.019039   -0.056473
      3          7           0       -1.439261   -0.004395    0.045535
      4          1           0        1.734345   -0.166885    0.994031
      5          1           0        1.540043    1.002163   -0.257214
      6          1           0        1.404560   -0.791153   -0.540688
 ---------------------------------------------------------------------

 SCF Done:  E(RB2PLYPD3) =  -132.504802711     A.U. after   12 cycles
 E2(B2PLYPD3) =    -0.1801165184D+00 E(B2PLYPD3) =    -0.13268491922946D+03

 The electronic state is 1-A.
 Alpha  occ. eigenvalues --  -14.84064 -10.66904 -10.66148  -1.04497  -0.89476
 Alpha  occ. eigenvalues --   -0.59267  -0.58098  -0.50089  -0.44753  -0.39849
 Alpha  occ. eigenvalues --   -0.38930
 Alpha virt. eigenvalues --    0.03316   0.06920   0.09558   0.10235   0.10761
 Alpha virt. eigenvalues --    0.11825   0.15237   0.16059   0.17119   0.19847
 Alpha virt. eigenvalues --    0.20225   0.24769   0.31832   0.33003   0.36174

 Mulliken charges:
               1
     1  C   -0.095724
     2  C   -0.002096
     3  N   -0.199718
     4  H    0.078733
     5  H    0.101442
     6  H    0.117364
 Sum of Mulliken charges =   0.00000

 Dipole moment (field-independent basis, Debye):
    X=              4.1123    Y=              0.0225    Z=             -0.0361  Tot=              4.1125
 Quadrupole moment (field-independent basis, Debye-Ang):
   XX=            -20.8555   YY=            -17.4277   ZZ=            -18.1442
   XY=              0.0639   XZ=              0.5629   YZ=              0.1866

 Normal termination of Gaussian 09 at Wed Aug 26 16:31:03 2020.
