 Gaussian 09, Revision D.01,
 Gaussian 09:  ES64L-G09RevD.01 24-Apr-2013

 --------------------
 #p B2PLYPD3/Def2QZVP
 --------------------

 ------------
 cyanomethane
 ------------
 Symbolic Z-matrix:
 Charge =  0 Multiplicity = 1

                         Standard orientation:
 ---------------------------------------------------------------------
 Center     Atomic      Atomic             Coordinates (Angstroms)
 Number     Number       Type             X           Y           Z
 ---------------------------------------------------------------------
      1          6           0        1.189645   -0.005612   -0.005674
      2          6           0       -0.277880    0.019852    0.001392
      3          7           0       -1.443473   -0.002851    0.003590
      4          1           0        1.547193   -0.494616    0.901424
      5          1           0        1.636076    1.008364   -0.048018
      6          1           0        1.450452   -0.579227   -0.852849
 ---------------------------------------------------------------------

 SCF Done:  E(RB2PLYPD3) =  -132.532748439     A.U. after   12 cycles
 E2(B2PLYPD3) =    -0.1814178225D+00 E(B2PLYPD3) =    -0.13271416626161D+03

 The electronic state is 1-A.
 Alpha  occ. eigenvalues --  -14.84484 -10.67172 -10.66612  -1.03627  -0.89270
 Alpha  occ. eigenvalues --   -0.59417  -0.54809  -0.53454  -0.44768  -0.38854
 Alpha  occ. eigenvalues --   -0.38784
 Alpha virt. eigenvalues --    0.03748   0.07502   0.08177   0.10212   0.11212
 Alpha virt. eigenvalues --    0.11336   0.15214   0.15858   0.16539   0.20118
 Alpha virt. eigenvalues --    0.20166   0.25135   0.32335   0.34466   0.34965

 Mulliken charges:
               1
     1  C   -0.087317
     2  C   -0.000498
     3  N   -0.211842
     4  H    0.098197
     5  H    0.097230
     6  H    0.104231
 Sum of Mulliken charges =   0.00000

 Dipole moment (field-independent basis, Debye):
    X=              4.1509    Y=             -0.0150    Z=             -0.0052  Tot=              4.1510
 Quadrupole moment (field-independent basis, Debye-Ang):
   XX=            -21.0565   YY=            -17.7644   ZZ=            -17.7914
   XY=              0.0669   XZ=              0.0905   YZ=              0.0387

 Normal termination of Gaussian 09 at Wed Aug 26 15:02:15 2020.
