 Gaussian 09, Revision D.01,
 Gaussian 09:  ES64L-G09RevD.01 24-Apr-2013

 --------------------
 #p B2PLYPD3/Def2QZVP
 --------------------

 ------------
 cyanomethane
 ------------
 Symbolic Z-matrix:
 Charge =  0 Multiplicity = 1

                         Standard orientation:
 ---------------------------------------------------------------------
 Center     Atomic      Atomic             Coordinates (Angstroms)
 Number     Number       Type             X           Y           Z
 ---------------------------------------------------------------------
      1          6           0       -1.190919   -0.003234    0.007187
      2          6           0        0.292162   -0.008363   -0.049531
      3          7           0        1.436268    0.005439    0.024483
      4          1           0       -1.539000   -0.081227    0.998125
      5          1           0       -1.554254   -0.821796   -0.531396
      6          1           0       -1.568079    0.934533   -0.384046
 ---------------------------------------------------------------------

 SCF Done:  E(RB2PLYPD3) =  -132.533515850     A.U. after   11 cycles
 E2(B2PLYPD3) =    -0.1794922484D+00 E(B2PLYPD3) =    -0.13271300809875D+03

 The electronic state is 1-A.
 Alpha  occ. eigenvalues --  -14.84023 -10.66462 -10.66114  -1.04406  -0.89389
 Alpha  occ. eigenvalues --   -0.59662  -0.54902  -0.53733  -0.44756  -0.39509
 Alpha  occ. eigenvalues --   -0.39383
 Alpha virt. eigenvalues --    0.03826   0.08191   0.08737   0.10211   0.11191
 Alpha virt. eigenvalues --    0.11513   0.15359   0.16259   0.16659   0.19972
 Alpha virt. eigenvalues --    0.20077   0.25023   0.32760   0.34913   0.35389

 Mulliken charges:
               1
     1  C   -0.074143
     2  C   -0.003716
     3  N   -0.201881
     4  H    0.092577
     5  H    0.094707
     6  H    0.092456
 Sum of Mulliken charges =   0.00000

 Dipole moment (field-independent basis, Debye):
    X=             -4.1281    Y=             -0.0129    Z=             -0.0150  Tot=              4.1281
 Quadrupole moment (field-independent basis, Debye-Ang):
   XX=            -20.8669   YY=            -17.6378   ZZ=            -17.8098
   XY=             -0.0313   XZ=             -0.1752   YZ=              0.0242

 Normal termination of Gaussian 09 at Wed Aug 26 11:47:43 2020.
