 Gaussian 09, Revision D.01,
 Gaussian 09:  ES64L-G09RevD.01 24-Apr-2013

 --------------------
 #p B2PLYPD3/Def2QZVP
 --------------------

 ------------
 cyanomethane
 ------------
 Symbolic Z-matrix:
 Charge =  0 Multiplicity = 1

                         Standard orientation:
 ---------------------------------------------------------------------
 Center     Atomic      Atomic             Coordinates (Angstroms)
 Number     Number       Type             X           Y           Z
 ---------------------------------------------------------------------
      1          6           0        1.190049   -0.011224   -0.007410
      2          6           0       -0.286494   -0.022375    0.004732
      3          7           0       -1.433309    0.014108   -0.003624
      4          1           0        1.562001    0.971881   -0.303176
      5          1           0        1.542086   -0.714776   -0.621410
      6          1           0        1.507745   -0.154267    0.966019
 ---------------------------------------------------------------------

 SCF Done:  E(RB2PLYPD3) =  -132.528560950     A.U. after   12 cycles
 E2(B2PLYPD3) =    -0.1793040822D+00 E(B2PLYPD3) =    -0.13270786503179D+03

 The electronic state is 1-A.
 Alpha  occ. eigenvalues --  -14.83968 -10.66051 -10.65785  -1.04347  -0.90124
 Alpha  occ. eigenvalues --   -0.59827  -0.56220  -0.53754  -0.44704  -0.39549
 Alpha  occ. eigenvalues --   -0.39255
 Alpha virt. eigenvalues --    0.03900   0.08358   0.09127   0.10257   0.11115
 Alpha virt. eigenvalues --    0.11522   0.15398   0.16074   0.16710   0.20008
 Alpha virt. eigenvalues --    0.20118   0.24984   0.32870   0.34651   0.36014

 Mulliken charges:
               1
     1  C   -0.071115
     2  C   -0.004696
     3  N   -0.203548
     4  H    0.089168
     5  H    0.097444
     6  H    0.092746
 Sum of Mulliken charges =   0.00000

 Dipole moment (field-independent basis, Debye):
    X=              4.1386    Y=             -0.0191    Z=              0.0247  Tot=              4.1387
 Quadrupole moment (field-independent basis, Debye-Ang):
   XX=            -20.8658   YY=            -17.6637   ZZ=            -17.6946
   XY=              0.1067   XZ=             -0.0089   YZ=              0.0710

 Normal termination of Gaussian 09 at Wed Aug 26 12:04:50 2020.
