 Gaussian 09, Revision D.01,
 Gaussian 09:  ES64L-G09RevD.01 24-Apr-2013

 --------------------
 #p B2PLYPD3/Def2QZVP
 --------------------

 ------------
 cyanomethane
 ------------
 Symbolic Z-matrix:
 Charge =  0 Multiplicity = 1

                         Standard orientation:
 ---------------------------------------------------------------------
 Center     Atomic      Atomic             Coordinates (Angstroms)
 Number     Number       Type             X           Y           Z
 ---------------------------------------------------------------------
      1          6           0        1.150860   -0.023944   -0.010112
      2          6           0       -0.263859    0.079615    0.003787
      3          7           0       -1.426317   -0.039325    0.001861
      4          1           0        1.547461    1.091266   -0.011523
      5          1           0        1.526245   -0.592287   -0.872698
      6          1           0        1.588509   -0.557735    0.909146
 ---------------------------------------------------------------------

 SCF Done:  E(RB2PLYPD3) =  -132.522363409     A.U. after   12 cycles
 E2(B2PLYPD3) =    -0.1827405419D+00 E(B2PLYPD3) =    -0.13270510395126D+03

 The electronic state is 1-A.
 Alpha  occ. eigenvalues --  -14.84654 -10.68327 -10.66548  -1.03757  -0.88833
 Alpha  occ. eigenvalues --   -0.60143  -0.53329  -0.52189  -0.44987  -0.38515
 Alpha  occ. eigenvalues --   -0.38262
 Alpha virt. eigenvalues --    0.03355   0.06408   0.06814   0.09790   0.11536
 Alpha virt. eigenvalues --    0.11776   0.15359   0.15910   0.16974   0.19959
 Alpha virt. eigenvalues --    0.20294   0.26324   0.31712   0.33466   0.34518

 Mulliken charges:
               1
     1  C   -0.100932
     2  C    0.010252
     3  N   -0.210793
     4  H    0.095902
     5  H    0.106575
     6  H    0.098997
 Sum of Mulliken charges =   0.00000

 Dipole moment (field-independent basis, Debye):
    X=              4.0670    Y=              0.0093    Z=             -0.0045  Tot=              4.0670
 Quadrupole moment (field-independent basis, Debye-Ang):
   XX=            -21.1802   YY=            -17.6694   ZZ=            -17.9698
   XY=             -0.3154   XZ=              0.0600   YZ=              0.0507

 Normal termination of Gaussian 09 at Wed Aug 26 16:25:51 2020.
