 Gaussian 09, Revision D.01,
 Gaussian 09:  ES64L-G09RevD.01 24-Apr-2013

 --------------------
 #p B2PLYPD3/Def2QZVP
 --------------------

 ------------
 cyanomethane
 ------------
 Symbolic Z-matrix:
 Charge =  0 Multiplicity = 1

                         Standard orientation:
 ---------------------------------------------------------------------
 Center     Atomic      Atomic             Coordinates (Angstroms)
 Number     Number       Type             X           Y           Z
 ---------------------------------------------------------------------
      1          6           0       -1.176511    0.003078   -0.006820
      2          6           0        0.275035   -0.000693    0.008279
      3          7           0        1.431465    0.001875   -0.002996
      4          1           0       -1.543557   -0.104550    0.994655
      5          1           0       -1.512132   -0.856219   -0.570609
      6          1           0       -1.555713    0.933340   -0.411828
 ---------------------------------------------------------------------

 SCF Done:  E(RB2PLYPD3) =  -132.535314474     A.U. after   11 cycles
 E2(B2PLYPD3) =    -0.1804805616D+00 E(B2PLYPD3) =    -0.13271579503516D+03

 The electronic state is 1-A.
 Alpha  occ. eigenvalues --  -14.84183 -10.66755 -10.66224  -1.04021  -0.89613
 Alpha  occ. eigenvalues --   -0.59763  -0.54656  -0.53945  -0.44750  -0.39042
 Alpha  occ. eigenvalues --   -0.38921
 Alpha virt. eigenvalues --    0.03816   0.07964   0.08099   0.10177   0.11356
 Alpha virt. eigenvalues --    0.11516   0.15418   0.16016   0.16525   0.20084
 Alpha virt. eigenvalues --    0.20146   0.25441   0.32854   0.34549   0.34968

 Mulliken charges:
               1
     1  C   -0.082294
     2  C   -0.001880
     3  N   -0.208030
     4  H    0.094691
     5  H    0.098504
     6  H    0.099009
 Sum of Mulliken charges =   0.00000

 Dipole moment (field-independent basis, Debye):
    X=             -4.1312    Y=             -0.0116    Z=              0.0240  Tot=              4.1313
 Quadrupole moment (field-independent basis, Debye-Ang):
   XX=            -21.0313   YY=            -17.6192   ZZ=            -17.8222
   XY=             -0.0208   XZ=             -0.0445   YZ=             -0.0002

 Normal termination of Gaussian 09 at Wed Aug 26 15:53:21 2020.
