 Gaussian 09, Revision D.01,
 Gaussian 09:  ES64L-G09RevD.01 24-Apr-2013

 --------------------
 #p B2PLYPD3/Def2QZVP
 --------------------

 ------------
 cyanomethane
 ------------
 Symbolic Z-matrix:
 Charge =  0 Multiplicity = 1

                         Standard orientation:
 ---------------------------------------------------------------------
 Center     Atomic      Atomic             Coordinates (Angstroms)
 Number     Number       Type             X           Y           Z
 ---------------------------------------------------------------------
      1          6           0        1.177707    0.025931    0.019906
      2          6           0       -0.245974   -0.060858    0.005898
      3          7           0       -1.431767    0.031487   -0.005133
      4          1           0        1.452805   -0.702023   -0.722335
      5          1           0        1.462107   -0.252487    0.899848
      6          1           0        1.517052    0.943665   -0.296406
 ---------------------------------------------------------------------

 SCF Done:  E(RB2PLYPD3) =  -132.512339359     A.U. after   13 cycles
 E2(B2PLYPD3) =    -0.1830172417D+00 E(B2PLYPD3) =    -0.13269535660085D+03

 The electronic state is 1-A.
 Alpha  occ. eigenvalues --  -14.84910 -10.66905 -10.64925  -1.02855  -0.91693
 Alpha  occ. eigenvalues --   -0.60435  -0.57999  -0.54638  -0.44745  -0.38315
 Alpha  occ. eigenvalues --   -0.37855
 Alpha virt. eigenvalues --    0.03869   0.07428   0.08544   0.09938   0.10841
 Alpha virt. eigenvalues --    0.11389   0.15008   0.15671   0.16638   0.20271
 Alpha virt. eigenvalues --    0.20376   0.26071   0.32822   0.34425   0.36109

 Mulliken charges:
               1
     1  C   -0.078286
     2  C    0.004644
     3  N   -0.226485
     4  H    0.093363
     5  H    0.106163
     6  H    0.100601
 Sum of Mulliken charges =   0.00000

 Dipole moment (field-independent basis, Debye):
    X=              4.1553    Y=             -0.0500    Z=             -0.0166  Tot=              4.1556
 Quadrupole moment (field-independent basis, Debye-Ang):
   XX=            -21.1418   YY=            -17.6896   ZZ=            -17.6507
   XY=              0.1576   XZ=             -0.0715   YZ=             -0.0770

 Normal termination of Gaussian 09 at Wed Aug 26 21:42:33 2020.
