 Gaussian 09, Revision D.01,
 Gaussian 09:  ES64L-G09RevD.01 24-Apr-2013

 --------------------
 #p B2PLYPD3/Def2QZVP
 --------------------

 ------------
 cyanomethane
 ------------
 Symbolic Z-matrix:
 Charge =  0 Multiplicity = 1

                         Standard orientation:
 ---------------------------------------------------------------------
 Center     Atomic      Atomic             Coordinates (Angstroms)
 Number     Number       Type             X           Y           Z
 ---------------------------------------------------------------------
      1          6           0       -1.185574    0.023914   -0.002670
      2          6           0        0.265294   -0.056692   -0.006759
      3          7           0        1.445402    0.030837   -0.000268
      4          1           0       -1.460492   -0.216459    0.908827
      5          1           0       -1.533185   -0.745848   -0.590226
      6          1           0       -1.602453    0.943119   -0.260151
 ---------------------------------------------------------------------

 SCF Done:  E(RB2PLYPD3) =  -132.516704636     A.U. after   13 cycles
 E2(B2PLYPD3) =    -0.1824193186D+00 E(B2PLYPD3) =    -0.13269912395501D+03

 The electronic state is 1-A.
 Alpha  occ. eigenvalues --  -14.85003 -10.67063 -10.64908  -1.03070  -0.91256
 Alpha  occ. eigenvalues --   -0.60875  -0.55930  -0.55333  -0.44908  -0.38603
 Alpha  occ. eigenvalues --   -0.38399
 Alpha virt. eigenvalues --    0.03840   0.07517   0.08563   0.09989   0.11096
 Alpha virt. eigenvalues --    0.11230   0.15257   0.15610   0.17346   0.20245
 Alpha virt. eigenvalues --    0.20340   0.25682   0.32856   0.35501   0.35643

 Mulliken charges:
               1
     1  C   -0.061531
     2  C    0.006178
     3  N   -0.220747
     4  H    0.093268
     5  H    0.088043
     6  H    0.094788
 Sum of Mulliken charges =   0.00000

 Dipole moment (field-independent basis, Debye):
    X=             -4.1859    Y=             -0.0738    Z=              0.0452  Tot=              4.1868
 Quadrupole moment (field-independent basis, Debye-Ang):
   XX=            -20.7517   YY=            -17.6007   ZZ=            -17.9350
   XY=             -0.1211   XZ=             -0.0361   YZ=             -0.0234

 Normal termination of Gaussian 09 at Wed Aug 26 23:07:49 2020.
