 Gaussian 09, Revision D.01,
 Gaussian 09:  ES64L-G09RevD.01 24-Apr-2013

 --------------------
 #p B2PLYPD3/Def2QZVP
 --------------------

 ------------
 cyanomethane
 ------------
 Symbolic Z-matrix:
 Charge =  0 Multiplicity = 1

                         Standard orientation:
 ---------------------------------------------------------------------
 Center     Atomic      Atomic             Coordinates (Angstroms)
 Number     Number       Type             X           Y           Z
 ---------------------------------------------------------------------
      1          6           0        1.170789   -0.015024    0.000343
      2          6           0       -0.282611    0.011197   -0.013074
      3          7           0       -1.426950   -0.002781    0.007296
      4          1           0        1.533103   -0.897632   -0.491221
      5          1           0        1.559367    0.034868    1.042652
      6          1           0        1.567109    0.905194   -0.526119
 ---------------------------------------------------------------------

 SCF Done:  E(RB2PLYPD3) =  -132.534337032     A.U. after   11 cycles
 E2(B2PLYPD3) =    -0.1798473231D+00 E(B2PLYPD3) =    -0.13271418435531D+03

 The electronic state is 1-A.
 Alpha  occ. eigenvalues --  -14.83911 -10.67542 -10.65945  -1.04526  -0.88888
 Alpha  occ. eigenvalues --   -0.59538  -0.54310  -0.52746  -0.44762  -0.39362
 Alpha  occ. eigenvalues --   -0.39108
 Alpha virt. eigenvalues --    0.03678   0.07617   0.08088   0.10173   0.11516
 Alpha virt. eigenvalues --    0.11785   0.15427   0.16187   0.16627   0.20008
 Alpha virt. eigenvalues --    0.20077   0.25443   0.32649   0.33883   0.34922

 Mulliken charges:
               1
     1  C   -0.090636
     2  C   -0.002204
     3  N   -0.200519
     4  H    0.102407
     5  H    0.097067
     6  H    0.093884
 Sum of Mulliken charges =   0.00000

 Dipole moment (field-independent basis, Debye):
    X=              4.0995    Y=              0.0055    Z=             -0.0068  Tot=              4.0995
 Quadrupole moment (field-independent basis, Debye-Ang):
   XX=            -21.0470   YY=            -17.7026   ZZ=            -17.7623
   XY=              0.0177   XZ=              0.0607   YZ=              0.0583

 Normal termination of Gaussian 09 at Thu Aug 27 00:07:59 2020.
