 Gaussian 09, Revision D.01,
 Gaussian 09:  ES64L-G09RevD.01 24-Apr-2013

 --------------------
 #p B2PLYPD3/Def2QZVP
 --------------------

 ------------
 cyanomethane
 ------------
 Symbolic Z-matrix:
 Charge =  0 Multiplicity = 1

                         Standard orientation:
 ---------------------------------------------------------------------
 Center     Atomic      Atomic             Coordinates (Angstroms)
 Number     Number       Type             X           Y           Z
 ---------------------------------------------------------------------
      1          6           0       -1.175341    0.000070    0.004449
      2          6           0        0.285612    0.009831   -0.005268
      3          7           0        1.434188   -0.001686    0.003349
      4          1           0       -1.569975   -0.263044    0.992292
      5          1           0       -1.523031   -0.777047   -0.714647
      6          1           0       -1.607934    0.992492   -0.296173
 ---------------------------------------------------------------------

 SCF Done:  E(RB2PLYPD3) =  -132.534358093     A.U. after   12 cycles
 E2(B2PLYPD3) =    -0.1802743732D+00 E(B2PLYPD3) =    -0.13271463246639D+03

 The electronic state is 1-A.
 Alpha  occ. eigenvalues --  -14.84086 -10.67788 -10.66170  -1.04375  -0.88616
 Alpha  occ. eigenvalues --   -0.59587  -0.53330  -0.53186  -0.44813  -0.39229
 Alpha  occ. eigenvalues --   -0.39150
 Alpha virt. eigenvalues --    0.03646   0.07613   0.07824   0.10187   0.11549
 Alpha virt. eigenvalues --    0.11623   0.15358   0.16212   0.16715   0.20039
 Alpha virt. eigenvalues --    0.20067   0.25293   0.32526   0.34127   0.34534

 Mulliken charges:
               1
     1  C   -0.089765
     2  C   -0.000675
     3  N   -0.201989
     4  H    0.098234
     5  H    0.097420
     6  H    0.096775
 Sum of Mulliken charges =   0.00000

 Dipole moment (field-independent basis, Debye):
    X=             -4.1144    Y=             -0.0119    Z=              0.0007  Tot=              4.1144
 Quadrupole moment (field-independent basis, Debye-Ang):
   XX=            -20.9946   YY=            -17.7445   ZZ=            -17.8177
   XY=             -0.0168   XZ=             -0.0501   YZ=             -0.0047

 Normal termination of Gaussian 09 at Thu Aug 27 00:13:15 2020.
