 Gaussian 09, Revision D.01,
 Gaussian 09:  ES64L-G09RevD.01 24-Apr-2013

 --------------------
 #p B2PLYPD3/Def2QZVP
 --------------------

 ------------
 cyanomethane
 ------------
 Symbolic Z-matrix:
 Charge =  0 Multiplicity = 1

                         Standard orientation:
 ---------------------------------------------------------------------
 Center     Atomic      Atomic             Coordinates (Angstroms)
 Number     Number       Type             X           Y           Z
 ---------------------------------------------------------------------
      1          6           0        1.166303   -0.005059    0.007802
      2          6           0       -0.271550   -0.001157   -0.020822
      3          7           0       -1.433872    0.002209    0.007708
      4          1           0        1.578981    0.996094   -0.288916
      5          1           0        1.567818   -0.749554   -0.682326
      6          1           0        1.521788   -0.224711    0.995408
 ---------------------------------------------------------------------

 SCF Done:  E(RB2PLYPD3) =  -132.533791147     A.U. after   11 cycles
 E2(B2PLYPD3) =    -0.1812747232D+00 E(B2PLYPD3) =    -0.13271506587017D+03

 The electronic state is 1-A.
 Alpha  occ. eigenvalues --  -14.84438 -10.67122 -10.66452  -1.03864  -0.89437
 Alpha  occ. eigenvalues --   -0.60252  -0.54221  -0.53342  -0.44880  -0.38836
 Alpha  occ. eigenvalues --   -0.38730
 Alpha virt. eigenvalues --    0.03725   0.07372   0.07704   0.10120   0.11440
 Alpha virt. eigenvalues --    0.11547   0.15531   0.16335   0.16419   0.20118
 Alpha virt. eigenvalues --    0.20150   0.25711   0.32696   0.34249   0.34842

 Mulliken charges:
               1
     1  C   -0.080324
     2  C    0.001585
     3  N   -0.209860
     4  H    0.093687
     5  H    0.096120
     6  H    0.098791
 Sum of Mulliken charges =   0.00000

 Dipole moment (field-independent basis, Debye):
    X=              4.1340    Y=             -0.0103    Z=              0.0002  Tot=              4.1340
 Quadrupole moment (field-independent basis, Debye-Ang):
   XX=            -20.9564   YY=            -17.7840   ZZ=            -17.7943
   XY=              0.0158   XZ=              0.0237   YZ=              0.0074

 Normal termination of Gaussian 09 at Thu Aug 27 00:07:18 2020.
