 Gaussian 09, Revision D.01,
 Gaussian 09:  ES64L-G09RevD.01 24-Apr-2013

 --------------------
 #p B2PLYPD3/Def2QZVP
 --------------------

 ------------
 cyanomethane
 ------------
 Symbolic Z-matrix:
 Charge =  0 Multiplicity = 1

                         Standard orientation:
 ---------------------------------------------------------------------
 Center     Atomic      Atomic             Coordinates (Angstroms)
 Number     Number       Type             X           Y           Z
 ---------------------------------------------------------------------
      1          6           0        1.189152   -0.001859   -0.026147
      2          6           0       -0.284986    0.006961   -0.025784
      3          7           0       -1.434426   -0.006114    0.019787
      4          1           0        1.591666   -0.049133    1.032195
      5          1           0        1.482959    0.899464   -0.384273
      6          1           0        1.541359   -0.838147   -0.474841
 ---------------------------------------------------------------------

 SCF Done:  E(RB2PLYPD3) =  -132.525139459     A.U. after   11 cycles
 E2(B2PLYPD3) =    -0.1798006798D+00 E(B2PLYPD3) =    -0.13270494013903D+03

 The electronic state is 1-A.
 Alpha  occ. eigenvalues --  -14.84062 -10.66172 -10.66119  -1.04241  -0.89968
 Alpha  occ. eigenvalues --   -0.59740  -0.57226  -0.52359  -0.44723  -0.39543
 Alpha  occ. eigenvalues --   -0.38985
 Alpha virt. eigenvalues --    0.03750   0.07913   0.09147   0.10229   0.10939
 Alpha virt. eigenvalues --    0.11699   0.15342   0.16177   0.16633   0.19961
 Alpha virt. eigenvalues --    0.20171   0.25008   0.32515   0.33898   0.36489

 Mulliken charges:
               1
     1  C   -0.074852
     2  C   -0.003637
     3  N   -0.204781
     4  H    0.081938
     5  H    0.101162
     6  H    0.100171
 Sum of Mulliken charges =   0.00000

 Dipole moment (field-independent basis, Debye):
    X=              4.1346    Y=              0.0111    Z=             -0.0121  Tot=              4.1346
 Quadrupole moment (field-independent basis, Debye-Ang):
   XX=            -20.9168   YY=            -17.5122   ZZ=            -17.9032
   XY=             -0.0770   XZ=              0.2264   YZ=              0.0161

 Normal termination of Gaussian 09 at Wed Aug 26 11:48:36 2020.
