 Gaussian 09, Revision D.01,
 Gaussian 09:  ES64L-G09RevD.01 24-Apr-2013

 --------------------
 #p B2PLYPD3/Def2QZVP
 --------------------

 ------------
 cyanomethane
 ------------
 Symbolic Z-matrix:
 Charge =  0 Multiplicity = 1

                         Standard orientation:
 ---------------------------------------------------------------------
 Center     Atomic      Atomic             Coordinates (Angstroms)
 Number     Number       Type             X           Y           Z
 ---------------------------------------------------------------------
      1          6           0       -1.164987    0.013395    0.025766
      2          6           0        0.279114    0.026182   -0.060711
      3          7           0        1.456411   -0.013220    0.022118
      4          1           0       -1.673736   -0.761085   -0.719954
      5          1           0       -1.681016    0.958846   -0.209698
      6          1           0       -1.524884   -0.342678    0.984495
 ---------------------------------------------------------------------

 SCF Done:  E(RB2PLYPD3) =  -132.522830936     A.U. after   12 cycles
 E2(B2PLYPD3) =    -0.1836939396D+00 E(B2PLYPD3) =    -0.13270652487530D+03

 The electronic state is 1-A.
 Alpha  occ. eigenvalues --  -14.85313 -10.68105 -10.67416  -1.03354  -0.88551
 Alpha  occ. eigenvalues --   -0.61190  -0.53719  -0.51056  -0.45262  -0.38706
 Alpha  occ. eigenvalues --   -0.38254
 Alpha virt. eigenvalues --    0.03399   0.06076   0.06805   0.10045   0.11198
 Alpha virt. eigenvalues --    0.11681   0.15437   0.16465   0.17220   0.20131
 Alpha virt. eigenvalues --    0.20217   0.25804   0.31598   0.33483   0.35108

 Mulliken charges:
               1
     1  C   -0.070695
     2  C    0.012860
     3  N   -0.213868
     4  H    0.079977
     5  H    0.093889
     6  H    0.097837
 Sum of Mulliken charges =   0.00000

 Dipole moment (field-independent basis, Debye):
    X=             -4.1545    Y=              0.0062    Z=              0.0033  Tot=              4.1545
 Quadrupole moment (field-independent basis, Debye-Ang):
   XX=            -20.6126   YY=            -18.0060   ZZ=            -18.0920
   XY=              0.0696   XZ=             -0.0565   YZ=             -0.1045

 Normal termination of Gaussian 09 at Wed Aug 26 21:46:48 2020.
