 Gaussian 09, Revision D.01,
 Gaussian 09:  ES64L-G09RevD.01 24-Apr-2013

 --------------------
 #p B2PLYPD3/Def2QZVP
 --------------------

 ------------
 cyanomethane
 ------------
 Symbolic Z-matrix:
 Charge =  0 Multiplicity = 1

                         Standard orientation:
 ---------------------------------------------------------------------
 Center     Atomic      Atomic             Coordinates (Angstroms)
 Number     Number       Type             X           Y           Z
 ---------------------------------------------------------------------
      1          6           0       -1.176581    0.001932    0.004041
      2          6           0        0.279445   -0.002449    0.022782
      3          7           0        1.438900    0.002866   -0.012221
      4          1           0       -1.559835   -0.270571    0.973533
      5          1           0       -1.544080   -0.748545   -0.751201
      6          1           0       -1.585568    1.002153   -0.297724
 ---------------------------------------------------------------------

 SCF Done:  E(RB2PLYPD3) =  -132.533191824     A.U. after   12 cycles
 E2(B2PLYPD3) =    -0.1812224626D+00 E(B2PLYPD3) =    -0.13271441428707D+03

 The electronic state is 1-A.
 Alpha  occ. eigenvalues --  -14.84398 -10.67703 -10.66475  -1.03928  -0.88824
 Alpha  occ. eigenvalues --   -0.59696  -0.53990  -0.52852  -0.44853  -0.38985
 Alpha  occ. eigenvalues --   -0.38814
 Alpha virt. eigenvalues --    0.03607   0.07263   0.07840   0.10153   0.11324
 Alpha virt. eigenvalues --    0.11584   0.15369   0.16165   0.16548   0.20064
 Alpha virt. eigenvalues --    0.20143   0.25382   0.32510   0.33899   0.34665

 Mulliken charges:
               1
     1  C   -0.088215
     2  C    0.001080
     3  N   -0.207717
     4  H    0.100426
     5  H    0.096729
     6  H    0.097697
 Sum of Mulliken charges =   0.00000

 Dipole moment (field-independent basis, Debye):
    X=             -4.1289    Y=             -0.0112    Z=              0.0176  Tot=              4.1290
 Quadrupole moment (field-independent basis, Debye-Ang):
   XX=            -21.0177   YY=            -17.8113   ZZ=            -17.7963
   XY=             -0.0289   XZ=              0.0655   YZ=             -0.0274

 Normal termination of Gaussian 09 at Wed Aug 26 10:00:48 2020.
