 Gaussian 09, Revision D.01,
 Gaussian 09:  ES64L-G09RevD.01 24-Apr-2013

 --------------------
 #p B2PLYPD3/Def2QZVP
 --------------------

 ------------
 cyanomethane
 ------------
 Symbolic Z-matrix:
 Charge =  0 Multiplicity = 1

                         Standard orientation:
 ---------------------------------------------------------------------
 Center     Atomic      Atomic             Coordinates (Angstroms)
 Number     Number       Type             X           Y           Z
 ---------------------------------------------------------------------
      1          6           0       -1.183325   -0.004637   -0.002919
      2          6           0        0.282254    0.007135    0.003190
      3          7           0        1.433617    0.001546   -0.001331
      4          1           0       -1.531099   -0.213948    0.987114
      5          1           0       -1.494698   -0.798005   -0.659607
      6          1           0       -1.603094    0.986140   -0.319815
 ---------------------------------------------------------------------

 SCF Done:  E(RB2PLYPD3) =  -132.534649006     A.U. after   12 cycles
 E2(B2PLYPD3) =    -0.1801842926D+00 E(B2PLYPD3) =    -0.13271483329811D+03

 The electronic state is 1-A.
 Alpha  occ. eigenvalues --  -14.84063 -10.67201 -10.66146  -1.04196  -0.89145
 Alpha  occ. eigenvalues --   -0.59315  -0.54434  -0.53555  -0.44717  -0.39174
 Alpha  occ. eigenvalues --   -0.39118
 Alpha virt. eigenvalues --    0.03745   0.07798   0.08337   0.10214   0.11412
 Alpha virt. eigenvalues --    0.11496   0.15304   0.15986   0.16561   0.20056
 Alpha virt. eigenvalues --    0.20103   0.25181   0.32552   0.34497   0.34795

 Mulliken charges:
               1
     1  C   -0.088903
     2  C   -0.003107
     3  N   -0.204811
     4  H    0.098097
     5  H    0.101441
     6  H    0.097283
 Sum of Mulliken charges =   0.00000

 Dipole moment (field-independent basis, Debye):
    X=             -4.1230    Y=             -0.0203    Z=              0.0209  Tot=              4.1231
 Quadrupole moment (field-independent basis, Debye-Ang):
   XX=            -21.0708   YY=            -17.6455   ZZ=            -17.8033
   XY=             -0.0524   XZ=             -0.0408   YZ=              0.0265

 Normal termination of Gaussian 09 at Wed Aug 26 23:57:34 2020.
