 Gaussian 09, Revision D.01,
 Gaussian 09:  ES64L-G09RevD.01 24-Apr-2013

 --------------------
 #p B2PLYPD3/Def2QZVP
 --------------------

 ------------
 cyanomethane
 ------------
 Symbolic Z-matrix:
 Charge =  0 Multiplicity = 1

                         Standard orientation:
 ---------------------------------------------------------------------
 Center     Atomic      Atomic             Coordinates (Angstroms)
 Number     Number       Type             X           Y           Z
 ---------------------------------------------------------------------
      1          6           0       -1.177216    0.014242    0.000067
      2          6           0        0.284016    0.005732   -0.016081
      3          7           0        1.434156   -0.006320    0.009030
      4          1           0       -1.537024    1.030690    0.012522
      5          1           0       -1.577890   -0.553538    0.905147
      6          1           0       -1.564982   -0.552754   -0.884796
 ---------------------------------------------------------------------

 SCF Done:  E(RB2PLYPD3) =  -132.532936348     A.U. after   11 cycles
 E2(B2PLYPD3) =    -0.1804677374D+00 E(B2PLYPD3) =    -0.13271340408556D+03

 The electronic state is 1-A.
 Alpha  occ. eigenvalues --  -14.84109 -10.67864 -10.66184  -1.04282  -0.88624
 Alpha  occ. eigenvalues --   -0.59362  -0.54401  -0.52296  -0.44788  -0.39275
 Alpha  occ. eigenvalues --   -0.38959
 Alpha virt. eigenvalues --    0.03595   0.07371   0.08035   0.10178   0.11351
 Alpha virt. eigenvalues --    0.11751   0.15323   0.16205   0.16548   0.19998
 Alpha virt. eigenvalues --    0.20118   0.25281   0.32486   0.33596   0.34891

 Mulliken charges:
               1
     1  C   -0.092358
     2  C   -0.001111
     3  N   -0.203008
     4  H    0.104472
     5  H    0.095072
     6  H    0.096933
 Sum of Mulliken charges =   0.00000

 Dipole moment (field-independent basis, Debye):
    X=             -4.1116    Y=             -0.0023    Z=             -0.0143  Tot=              4.1116
 Quadrupole moment (field-independent basis, Debye-Ang):
   XX=            -21.0654   YY=            -17.6528   ZZ=            -17.8873
   XY=              0.1011   XZ=             -0.0613   YZ=              0.0207

 Normal termination of Gaussian 09 at Wed Aug 26 14:34:31 2020.
