 Gaussian 09, Revision D.01,
 Gaussian 09:  ES64L-G09RevD.01 24-Apr-2013

 --------------------
 #p B2PLYPD3/Def2QZVP
 --------------------

 ------------
 cyanomethane
 ------------
 Symbolic Z-matrix:
 Charge =  0 Multiplicity = 1

                         Standard orientation:
 ---------------------------------------------------------------------
 Center     Atomic      Atomic             Coordinates (Angstroms)
 Number     Number       Type             X           Y           Z
 ---------------------------------------------------------------------
      1          6           0       -1.171206    0.005822   -0.000728
      2          6           0        0.278736    0.004262   -0.010027
      3          7           0        1.428702   -0.005810    0.006388
      4          1           0       -1.507984    1.019241   -0.082359
      5          1           0       -1.578350   -0.440272    0.918851
      6          1           0       -1.559765   -0.598798   -0.816684
 ---------------------------------------------------------------------

 SCF Done:  E(RB2PLYPD3) =  -132.535491411     A.U. after   11 cycles
 E2(B2PLYPD3) =    -0.1800503107D+00 E(B2PLYPD3) =    -0.13271554172137D+03

 The electronic state is 1-A.
 Alpha  occ. eigenvalues --  -14.84053 -10.66918 -10.66080  -1.04309  -0.89410
 Alpha  occ. eigenvalues --   -0.59909  -0.54680  -0.53282  -0.44781  -0.39211
 Alpha  occ. eigenvalues --   -0.39061
 Alpha virt. eigenvalues --    0.03783   0.07754   0.08225   0.10179   0.11429
 Alpha virt. eigenvalues --    0.11664   0.15470   0.16280   0.16541   0.20035
 Alpha virt. eigenvalues --    0.20122   0.25489   0.32897   0.34433   0.34971

 Mulliken charges:
               1
     1  C   -0.081389
     2  C   -0.002044
     3  N   -0.204156
     4  H    0.099325
     5  H    0.093310
     6  H    0.094953
 Sum of Mulliken charges =   0.00000

 Dipole moment (field-independent basis, Debye):
    X=             -4.1199    Y=              0.0004    Z=             -0.0079  Tot=              4.1199
 Quadrupole moment (field-independent basis, Debye-Ang):
   XX=            -20.9670   YY=            -17.6445   ZZ=            -17.8204
   XY=              0.1074   XZ=             -0.0591   YZ=              0.0073

 Normal termination of Gaussian 09 at Wed Aug 26 10:19:22 2020.
