 Gaussian 09, Revision D.01,
 Gaussian 09:  ES64L-G09RevD.01 24-Apr-2013

 --------------------
 #p B2PLYPD3/Def2QZVP
 --------------------

 ------------
 cyanomethane
 ------------
 Symbolic Z-matrix:
 Charge =  0 Multiplicity = 1

                         Standard orientation:
 ---------------------------------------------------------------------
 Center     Atomic      Atomic             Coordinates (Angstroms)
 Number     Number       Type             X           Y           Z
 ---------------------------------------------------------------------
      1          6           0       -1.184187   -0.005319    0.014816
      2          6           0        0.284827    0.010645   -0.056214
      3          7           0        1.412231   -0.006938    0.024014
      4          1           0       -1.442378   -0.118687    0.996298
      5          1           0       -1.549886   -0.834488   -0.560783
      6          1           0       -1.497194    0.969784   -0.355223
 ---------------------------------------------------------------------

 SCF Done:  E(RB2PLYPD3) =  -132.531742606     A.U. after   11 cycles
 E2(B2PLYPD3) =    -0.1781345582D+00 E(B2PLYPD3) =    -0.13270987716469D+03

 The electronic state is 1-A.
 Alpha  occ. eigenvalues --  -14.83302 -10.66314 -10.65297  -1.04960  -0.89752
 Alpha  occ. eigenvalues --   -0.58804  -0.55007  -0.54742  -0.44490  -0.39691
 Alpha  occ. eigenvalues --   -0.39609
 Alpha virt. eigenvalues --    0.03903   0.08816   0.08850   0.10208   0.11582
 Alpha virt. eigenvalues --    0.11660   0.15417   0.15890   0.16321   0.19980
 Alpha virt. eigenvalues --    0.20016   0.25327   0.32906   0.34797   0.35346

 Mulliken charges:
               1
     1  C   -0.093815
     2  C   -0.010600
     3  N   -0.195115
     4  H    0.102027
     5  H    0.098555
     6  H    0.098947
 Sum of Mulliken charges =   0.00000

 Dipole moment (field-independent basis, Debye):
    X=             -4.0624    Y=              0.0061    Z=             -0.0099  Tot=              4.0624
 Quadrupole moment (field-independent basis, Debye-Ang):
   XX=            -21.2158   YY=            -17.4388   ZZ=            -17.6563
   XY=              0.0875   XZ=             -0.1384   YZ=              0.0044

 Normal termination of Gaussian 09 at Thu Aug 27 00:49:35 2020.
