 Gaussian 09, Revision D.01,
 Gaussian 09:  ES64L-G09RevD.01 24-Apr-2013

 --------------------
 #p B2PLYPD3/Def2QZVP
 --------------------

 ------------
 cyanomethane
 ------------
 Symbolic Z-matrix:
 Charge =  0 Multiplicity = 1

                         Standard orientation:
 ---------------------------------------------------------------------
 Center     Atomic      Atomic             Coordinates (Angstroms)
 Number     Number       Type             X           Y           Z
 ---------------------------------------------------------------------
      1          6           0        1.185616    0.004587   -0.018128
      2          6           0       -0.285618    0.005286   -0.041929
      3          7           0       -1.435444   -0.006549    0.038854
      4          1           0        1.760410   -0.155871    1.018824
      5          1           0        1.433045    1.028323   -0.345753
      6          1           0        1.454670   -0.885848   -0.584706
 ---------------------------------------------------------------------

 SCF Done:  E(RB2PLYPD3) =  -132.518428971     A.U. after   13 cycles
 E2(B2PLYPD3) =    -0.1813517322D+00 E(B2PLYPD3) =    -0.13269978070312D+03

 The electronic state is 1-A.
 Alpha  occ. eigenvalues --  -14.84163 -10.68466 -10.66267  -1.04187  -0.88390
 Alpha  occ. eigenvalues --   -0.58712  -0.55936  -0.50218  -0.44730  -0.39266
 Alpha  occ. eigenvalues --   -0.38586
 Alpha virt. eigenvalues --    0.03198   0.06292   0.08615   0.10156   0.11136
 Alpha virt. eigenvalues --    0.11898   0.15053   0.15555   0.17112   0.19959
 Alpha virt. eigenvalues --    0.20253   0.25159   0.31654   0.32825   0.35177

 Mulliken charges:
               1
     1  C   -0.104614
     2  C    0.001166
     3  N   -0.204009
     4  H    0.088656
     5  H    0.110289
     6  H    0.108511
 Sum of Mulliken charges =   0.00000

 Dipole moment (field-independent basis, Debye):
    X=              4.0896    Y=             -0.0036    Z=             -0.0441  Tot=              4.0898
 Quadrupole moment (field-independent basis, Debye-Ang):
   XX=            -21.1930   YY=            -17.4088   ZZ=            -18.2068
   XY=             -0.1339   XZ=              0.5157   YZ=              0.0441

 Normal termination of Gaussian 09 at Wed Aug 26 21:18:55 2020.
