 Gaussian 09, Revision D.01,
 Gaussian 09:  ES64L-G09RevD.01 24-Apr-2013

 --------------------
 #p B2PLYPD3/Def2QZVP
 --------------------

 ------------
 cyanomethane
 ------------
 Symbolic Z-matrix:
 Charge =  0 Multiplicity = 1

                         Standard orientation:
 ---------------------------------------------------------------------
 Center     Atomic      Atomic             Coordinates (Angstroms)
 Number     Number       Type             X           Y           Z
 ---------------------------------------------------------------------
      1          6           0        1.207684    0.002507   -0.003888
      2          6           0       -0.280665   -0.066243   -0.015753
      3          7           0       -1.437195    0.032035    0.008351
      4          1           0        1.471697    1.002977   -0.284520
      5          1           0        1.523108   -0.681434   -0.643697
      6          1           0        1.503440   -0.163371    0.987607
 ---------------------------------------------------------------------

 SCF Done:  E(RB2PLYPD3) =  -132.524932017     A.U. after   12 cycles
 E2(B2PLYPD3) =    -0.1805061709D+00 E(B2PLYPD3) =    -0.13270543818794D+03

 The electronic state is 1-A.
 Alpha  occ. eigenvalues --  -14.84238 -10.66316 -10.65873  -1.03720  -0.90204
 Alpha  occ. eigenvalues --   -0.58722  -0.56818  -0.54492  -0.44579  -0.39150
 Alpha  occ. eigenvalues --   -0.38915
 Alpha virt. eigenvalues --    0.03782   0.08290   0.09223   0.10215   0.10784
 Alpha virt. eigenvalues --    0.11294   0.15189   0.15676   0.16141   0.20033
 Alpha virt. eigenvalues --    0.20187   0.24922   0.32744   0.34620   0.35873

 Mulliken charges:
               1
     1  C   -0.085294
     2  C   -0.005710
     3  N   -0.211236
     4  H    0.099663
     5  H    0.103623
     6  H    0.098955
 Sum of Mulliken charges =   0.00000

 Dipole moment (field-independent basis, Debye):
    X=              4.1343    Y=             -0.0327    Z=             -0.0020  Tot=              4.1345
 Quadrupole moment (field-independent basis, Debye-Ang):
   XX=            -21.1381   YY=            -17.6353   ZZ=            -17.6573
   XY=              0.1438   XZ=              0.0559   YZ=              0.0529

 Normal termination of Gaussian 09 at Wed Aug 26 22:46:43 2020.
