 Gaussian 09, Revision D.01,
 Gaussian 09:  ES64L-G09RevD.01 24-Apr-2013

 --------------------
 #p B2PLYPD3/Def2QZVP
 --------------------

 ------------
 cyanomethane
 ------------
 Symbolic Z-matrix:
 Charge =  0 Multiplicity = 1

                         Standard orientation:
 ---------------------------------------------------------------------
 Center     Atomic      Atomic             Coordinates (Angstroms)
 Number     Number       Type             X           Y           Z
 ---------------------------------------------------------------------
      1          6           0        1.173311   -0.002265   -0.003617
      2          6           0       -0.284530    0.002035    0.029117
      3          7           0       -1.431379   -0.000665   -0.016298
      4          1           0        1.566857    1.025405   -0.144160
      5          1           0        1.575508   -0.627162   -0.802793
      6          1           0        1.544606   -0.392208    0.908036
 ---------------------------------------------------------------------

 SCF Done:  E(RB2PLYPD3) =  -132.534968619     A.U. after   11 cycles
 E2(B2PLYPD3) =    -0.1798896406D+00 E(B2PLYPD3) =    -0.13271485825929D+03

 The electronic state is 1-A.
 Alpha  occ. eigenvalues --  -14.84061 -10.66979 -10.66108  -1.04427  -0.89210
 Alpha  occ. eigenvalues --   -0.60016  -0.54127  -0.53385  -0.44825  -0.39295
 Alpha  occ. eigenvalues --   -0.39240
 Alpha virt. eigenvalues --    0.03739   0.07717   0.08322   0.10173   0.11463
 Alpha virt. eigenvalues --    0.11612   0.15476   0.16188   0.16869   0.20019
 Alpha virt. eigenvalues --    0.20088   0.25412   0.32850   0.34556   0.34862

 Mulliken charges:
               1
     1  C   -0.078622
     2  C   -0.001382
     3  N   -0.202185
     4  H    0.093816
     5  H    0.093630
     6  H    0.094743
 Sum of Mulliken charges =   0.00000

 Dipole moment (field-independent basis, Debye):
    X=              4.1189    Y=             -0.0139    Z=              0.0329  Tot=              4.1191
 Quadrupole moment (field-independent basis, Debye-Ang):
   XX=            -20.8828   YY=            -17.7068   ZZ=            -17.8069
   XY=             -0.0363   XZ=             -0.0966   YZ=             -0.0169

 Normal termination of Gaussian 09 at Wed Aug 26 19:10:31 2020.
