 Gaussian 09, Revision D.01,
 Gaussian 09:  ES64L-G09RevD.01 24-Apr-2013

 --------------------
 #p B2PLYPD3/Def2QZVP
 --------------------

 ------------
 cyanomethane
 ------------
 Symbolic Z-matrix:
 Charge =  0 Multiplicity = 1

                         Standard orientation:
 ---------------------------------------------------------------------
 Center     Atomic      Atomic             Coordinates (Angstroms)
 Number     Number       Type             X           Y           Z
 ---------------------------------------------------------------------
      1          6           0        1.169498   -0.012887   -0.005100
      2          6           0       -0.282826    0.031392   -0.012314
      3          7           0       -1.421525   -0.007752    0.002502
      4          1           0        1.531141   -0.658778   -0.771038
      5          1           0        1.448855   -0.404040    0.970921
      6          1           0        1.650649    1.006052   -0.112907
 ---------------------------------------------------------------------

 SCF Done:  E(RB2PLYPD3) =  -132.534203637     A.U. after   12 cycles
 E2(B2PLYPD3) =    -0.1792798710D+00 E(B2PLYPD3) =    -0.13271348350767D+03

 The electronic state is 1-A.
 Alpha  occ. eigenvalues --  -14.83721 -10.67175 -10.65756  -1.04726  -0.89175
 Alpha  occ. eigenvalues --   -0.59558  -0.54485  -0.53125  -0.44712  -0.39463
 Alpha  occ. eigenvalues --   -0.39265
 Alpha virt. eigenvalues --    0.03753   0.07750   0.08402   0.10226   0.11599
 Alpha virt. eigenvalues --    0.11818   0.15421   0.16057   0.16802   0.20005
 Alpha virt. eigenvalues --    0.20055   0.25500   0.32601   0.34356   0.35024

 Mulliken charges:
               1
     1  C   -0.090170
     2  C   -0.003361
     3  N   -0.198597
     4  H    0.100567
     5  H    0.098875
     6  H    0.092686
 Sum of Mulliken charges =   0.00000

 Dipole moment (field-independent basis, Debye):
    X=              4.0934    Y=             -0.0100    Z=              0.0123  Tot=              4.0935
 Quadrupole moment (field-independent basis, Debye-Ang):
   XX=            -21.0210   YY=            -17.6984   ZZ=            -17.7000
   XY=              0.0319   XZ=             -0.0257   YZ=              0.0366

 Normal termination of Gaussian 09 at Wed Aug 26 12:44:40 2020.
