 Gaussian 09, Revision D.01,
 Gaussian 09:  ES64L-G09RevD.01 24-Apr-2013

 --------------------
 #p B2PLYPD3/Def2QZVP
 --------------------

 ------------
 cyanomethane
 ------------
 Symbolic Z-matrix:
 Charge =  0 Multiplicity = 1

                         Standard orientation:
 ---------------------------------------------------------------------
 Center     Atomic      Atomic             Coordinates (Angstroms)
 Number     Number       Type             X           Y           Z
 ---------------------------------------------------------------------
      1          6           0        1.215591    0.010514   -0.006278
      2          6           0       -0.291920   -0.072184    0.003221
      3          7           0       -1.442716    0.042976    0.002099
      4          1           0        1.537541   -0.282040    0.965366
      5          1           0        1.587905    1.034412   -0.223336
      6          1           0        1.431535   -0.683184   -0.738386
 ---------------------------------------------------------------------

 SCF Done:  E(RB2PLYPD3) =  -132.526600426     A.U. after   12 cycles
 E2(B2PLYPD3) =    -0.1807041033D+00 E(B2PLYPD3) =    -0.13270730452910D+03

 The electronic state is 1-A.
 Alpha  occ. eigenvalues --  -14.84200 -10.67072 -10.66308  -1.03879  -0.89090
 Alpha  occ. eigenvalues --   -0.58260  -0.55521  -0.53527  -0.44575  -0.39186
 Alpha  occ. eigenvalues --   -0.39115
 Alpha virt. eigenvalues --    0.03515   0.07798   0.09303   0.10093   0.10918
 Alpha virt. eigenvalues --    0.11217   0.14925   0.15242   0.16806   0.20028
 Alpha virt. eigenvalues --    0.20138   0.24735   0.32392   0.34391   0.35317

 Mulliken charges:
               1
     1  C   -0.097606
     2  C   -0.005619
     3  N   -0.207093
     4  H    0.100982
     5  H    0.101588
     6  H    0.107748
 Sum of Mulliken charges =   0.00000

 Dipole moment (field-independent basis, Debye):
    X=              4.1202    Y=             -0.0669    Z=              0.0063  Tot=              4.1207
 Quadrupole moment (field-independent basis, Debye-Ang):
   XX=            -21.2047   YY=            -17.6556   ZZ=            -17.7383
   XY=              0.3207   XZ=              0.0949   YZ=              0.0538

 Normal termination of Gaussian 09 at Wed Aug 26 19:09:23 2020.
