 Gaussian 09, Revision D.01,
 Gaussian 09:  ES64L-G09RevD.01 24-Apr-2013

 --------------------
 #p B2PLYPD3/Def2QZVP
 --------------------

 ------------
 cyanomethane
 ------------
 Symbolic Z-matrix:
 Charge =  0 Multiplicity = 1

                         Standard orientation:
 ---------------------------------------------------------------------
 Center     Atomic      Atomic             Coordinates (Angstroms)
 Number     Number       Type             X           Y           Z
 ---------------------------------------------------------------------
      1          6           0        1.168635    0.001606   -0.012295
      2          6           0       -0.283406    0.010261    0.022169
      3          7           0       -1.428269   -0.001681   -0.010248
      4          1           0        1.613467    0.996495   -0.205090
      5          1           0        1.525838   -0.716292   -0.735156
      6          1           0        1.547202   -0.339634    0.952737
 ---------------------------------------------------------------------

 SCF Done:  E(RB2PLYPD3) =  -132.535321500     A.U. after   12 cycles
 E2(B2PLYPD3) =    -0.1797722125D+00 E(B2PLYPD3) =    -0.13271509371251D+03

 The electronic state is 1-A.
 Alpha  occ. eigenvalues --  -14.83978 -10.67101 -10.66016  -1.04530  -0.89165
 Alpha  occ. eigenvalues --   -0.60018  -0.54009  -0.53290  -0.44817  -0.39365
 Alpha  occ. eigenvalues --   -0.39184
 Alpha virt. eigenvalues --    0.03749   0.07806   0.08087   0.10176   0.11532
 Alpha virt. eigenvalues --    0.11716   0.15491   0.16087   0.17040   0.20034
 Alpha virt. eigenvalues --    0.20070   0.25510   0.32853   0.34324   0.34996

 Mulliken charges:
               1
     1  C   -0.080535
     2  C   -0.001164
     3  N   -0.201099
     4  H    0.095333
     5  H    0.096462
     6  H    0.091003
 Sum of Mulliken charges =   0.00000

 Dipole moment (field-independent basis, Debye):
    X=              4.1145    Y=             -0.0221    Z=              0.0315  Tot=              4.1146
 Quadrupole moment (field-independent basis, Debye-Ang):
   XX=            -20.8928   YY=            -17.6559   ZZ=            -17.8521
   XY=             -0.0020   XZ=             -0.0164   YZ=              0.0199

 Normal termination of Gaussian 09 at Wed Aug 26 12:24:16 2020.
