 Gaussian 09, Revision D.01,
 Gaussian 09:  ES64L-G09RevD.01 24-Apr-2013

 --------------------
 #p B2PLYPD3/Def2QZVP
 --------------------

 ------------
 cyanomethane
 ------------
 Symbolic Z-matrix:
 Charge =  0 Multiplicity = 1

                         Standard orientation:
 ---------------------------------------------------------------------
 Center     Atomic      Atomic             Coordinates (Angstroms)
 Number     Number       Type             X           Y           Z
 ---------------------------------------------------------------------
      1          6           0        1.159216   -0.011071    0.002821
      2          6           0       -0.267675    0.012573   -0.016217
      3          7           0       -1.433057   -0.004890    0.002878
      4          1           0        1.583443    1.023582   -0.210344
      5          1           0        1.610810   -0.709256   -0.702227
      6          1           0        1.487898   -0.289108    0.972802
 ---------------------------------------------------------------------

 SCF Done:  E(RB2PLYPD3) =  -132.531559740     A.U. after   12 cycles
 E2(B2PLYPD3) =    -0.1816006235D+00 E(B2PLYPD3) =    -0.13271316036359D+03

 The electronic state is 1-A.
 Alpha  occ. eigenvalues --  -14.84535 -10.67034 -10.66529  -1.03796  -0.89645
 Alpha  occ. eigenvalues --   -0.60694  -0.54215  -0.53197  -0.44932  -0.38734
 Alpha  occ. eigenvalues --   -0.38598
 Alpha virt. eigenvalues --    0.03717   0.07091   0.07630   0.10091   0.11496
 Alpha virt. eigenvalues --    0.11587   0.15604   0.16104   0.16799   0.20152
 Alpha virt. eigenvalues --    0.20173   0.25900   0.32555   0.34230   0.34925

 Mulliken charges:
               1
     1  C   -0.077280
     2  C    0.003551
     3  N   -0.211358
     4  H    0.091722
     5  H    0.095395
     6  H    0.097970
 Sum of Mulliken charges =   0.00000

 Dipole moment (field-independent basis, Debye):
    X=              4.1401    Y=             -0.0105    Z=              0.0233  Tot=              4.1401
 Quadrupole moment (field-independent basis, Debye-Ang):
   XX=            -20.8945   YY=            -17.7618   ZZ=            -17.8622
   XY=             -0.0542   XZ=             -0.0139   YZ=              0.0061

 Normal termination of Gaussian 09 at Wed Aug 26 11:07:52 2020.
