 Gaussian 09, Revision D.01,
 Gaussian 09:  ES64L-G09RevD.01 24-Apr-2013

 --------------------
 #p B2PLYPD3/Def2QZVP
 --------------------

 ------------
 cyanomethane
 ------------
 Symbolic Z-matrix:
 Charge =  0 Multiplicity = 1

                         Standard orientation:
 ---------------------------------------------------------------------
 Center     Atomic      Atomic             Coordinates (Angstroms)
 Number     Number       Type             X           Y           Z
 ---------------------------------------------------------------------
      1          6           0       -1.181228    0.014611    0.005407
      2          6           0        0.276655   -0.013434    0.014287
      3          7           0        1.438740    0.006342   -0.009857
      4          1           0       -1.520714   -0.461495    0.904003
      5          1           0       -1.561805   -0.601014   -0.857292
      6          1           0       -1.561223    1.011057   -0.095876
 ---------------------------------------------------------------------

 SCF Done:  E(RB2PLYPD3) =  -132.533342947     A.U. after   12 cycles
 E2(B2PLYPD3) =    -0.1811888805D+00 E(B2PLYPD3) =    -0.13271453182771D+03

 The electronic state is 1-A.
 Alpha  occ. eigenvalues --  -14.84408 -10.67184 -10.66486  -1.03791  -0.89267
 Alpha  occ. eigenvalues --   -0.59689  -0.54872  -0.53082  -0.44802  -0.38984
 Alpha  occ. eigenvalues --   -0.38729
 Alpha virt. eigenvalues --    0.03713   0.07507   0.08065   0.10143   0.11216
 Alpha virt. eigenvalues --    0.11518   0.15366   0.15888   0.16642   0.20085
 Alpha virt. eigenvalues --    0.20172   0.25342   0.32549   0.33985   0.35180

 Mulliken charges:
               1
     1  C   -0.085090
     2  C   -0.000015
     3  N   -0.210028
     4  H    0.099667
     5  H    0.093521
     6  H    0.101946
 Sum of Mulliken charges =   0.00000

 Dipole moment (field-independent basis, Debye):
    X=             -4.1376    Y=             -0.0178    Z=              0.0160  Tot=              4.1377
 Quadrupole moment (field-independent basis, Debye-Ang):
   XX=            -21.0420   YY=            -17.7159   ZZ=            -17.8250
   XY=             -0.0216   XZ=              0.0836   YZ=             -0.0537

 Normal termination of Gaussian 09 at Wed Aug 26 09:55:43 2020.
