 Gaussian 09, Revision D.01,
 Gaussian 09:  ES64L-G09RevD.01 24-Apr-2013

 --------------------
 #p B2PLYPD3/Def2QZVP
 --------------------

 ------------
 cyanomethane
 ------------
 Symbolic Z-matrix:
 Charge =  0 Multiplicity = 1

                         Standard orientation:
 ---------------------------------------------------------------------
 Center     Atomic      Atomic             Coordinates (Angstroms)
 Number     Number       Type             X           Y           Z
 ---------------------------------------------------------------------
      1          6           0       -1.172248    0.006496    0.002499
      2          6           0        0.272999    0.079399   -0.011324
      3          7           0        1.453180   -0.042079   -0.003712
      4          1           0       -1.595321    1.072800    0.045175
      5          1           0       -1.482253   -0.658990    0.937172
      6          1           0       -1.699190   -0.634623   -0.903415
 ---------------------------------------------------------------------

 SCF Done:  E(RB2PLYPD3) =  -132.508134025     A.U. after   13 cycles
 E2(B2PLYPD3) =    -0.1851799291D+00 E(B2PLYPD3) =    -0.13269331395400D+03

 The electronic state is 1-A.
 Alpha  occ. eigenvalues --  -14.85304 -10.69953 -10.67391  -1.03026  -0.87531
 Alpha  occ. eigenvalues --   -0.59107  -0.53322  -0.50156  -0.45089  -0.38326
 Alpha  occ. eigenvalues --   -0.37795
 Alpha virt. eigenvalues --    0.02745   0.05144   0.06681   0.09871   0.10948
 Alpha virt. eigenvalues --    0.11897   0.15149   0.15766   0.16883   0.19929
 Alpha virt. eigenvalues --    0.20411   0.25684   0.31085   0.32136   0.33568

 Mulliken charges:
               1
     1  C   -0.110939
     2  C    0.013173
     3  N   -0.214447
     4  H    0.109288
     5  H    0.104680
     6  H    0.098246
 Sum of Mulliken charges =   0.00000

 Dipole moment (field-independent basis, Debye):
    X=             -4.1067    Y=              0.0091    Z=              0.0308  Tot=              4.1068
 Quadrupole moment (field-independent basis, Debye-Ang):
   XX=            -21.1930   YY=            -17.6912   ZZ=            -18.2827
   XY=              0.3156   XZ=              0.1262   YZ=             -0.0303

 Normal termination of Gaussian 09 at Wed Aug 26 18:50:02 2020.
