 Gaussian 09, Revision D.01,
 Gaussian 09:  ES64L-G09RevD.01 24-Apr-2013

 --------------------
 #p B2PLYPD3/Def2QZVP
 --------------------

 ------------
 cyanomethane
 ------------
 Symbolic Z-matrix:
 Charge =  0 Multiplicity = 1

                         Standard orientation:
 ---------------------------------------------------------------------
 Center     Atomic      Atomic             Coordinates (Angstroms)
 Number     Number       Type             X           Y           Z
 ---------------------------------------------------------------------
      1          6           0        1.149131   -0.021500    0.020462
      2          6           0       -0.281306    0.031243   -0.061813
      3          7           0       -1.421546   -0.018755    0.039606
      4          1           0        1.720655   -0.188772    0.975975
      5          1           0        1.480833    1.045182   -0.319298
      6          1           0        1.542386   -0.783580   -0.685811
 ---------------------------------------------------------------------

 SCF Done:  E(RB2PLYPD3) =  -132.522577097     A.U. after   12 cycles
 E2(B2PLYPD3) =    -0.1808948352D+00 E(B2PLYPD3) =    -0.13270347193191D+03

 The electronic state is 1-A.
 Alpha  occ. eigenvalues --  -14.84138 -10.68122 -10.66129  -1.04697  -0.88594
 Alpha  occ. eigenvalues --   -0.60649  -0.53368  -0.51421  -0.45009  -0.39211
 Alpha  occ. eigenvalues --   -0.38775
 Alpha virt. eigenvalues --    0.03400   0.06372   0.07751   0.09831   0.11714
 Alpha virt. eigenvalues --    0.12043   0.15341   0.15780   0.17953   0.19981
 Alpha virt. eigenvalues --    0.20572   0.26232   0.32214   0.33551   0.34320

 Mulliken charges:
               1
     1  C   -0.096914
     2  C    0.011722
     3  N   -0.199623
     4  H    0.098293
     5  H    0.088991
     6  H    0.097532
 Sum of Mulliken charges =   0.00000

 Dipole moment (field-independent basis, Debye):
    X=              4.0648    Y=              0.0259    Z=             -0.0540  Tot=              4.0652
 Quadrupole moment (field-independent basis, Debye-Ang):
   XX=            -20.8525   YY=            -17.7371   ZZ=            -17.9787
   XY=             -0.1895   XZ=              0.3908   YZ=              0.0685

 Normal termination of Gaussian 09 at Wed Aug 26 23:47:23 2020.
