 Gaussian 09, Revision D.01,
 Gaussian 09:  ES64L-G09RevD.01 24-Apr-2013

 --------------------
 #p B2PLYPD3/Def2QZVP
 --------------------

 ------------
 cyanomethane
 ------------
 Symbolic Z-matrix:
 Charge =  0 Multiplicity = 1

                         Standard orientation:
 ---------------------------------------------------------------------
 Center     Atomic      Atomic             Coordinates (Angstroms)
 Number     Number       Type             X           Y           Z
 ---------------------------------------------------------------------
      1          6           0       -1.163849   -0.023057   -0.012022
      2          6           0        0.256521    0.035668    0.039068
      3          7           0        1.423624   -0.014028   -0.020406
      4          1           0       -1.535819    0.993480   -0.023454
      5          1           0       -1.475306   -0.477569    0.838581
      6          1           0       -1.510274   -0.493379   -0.834559
 ---------------------------------------------------------------------

 SCF Done:  E(RB2PLYPD3) =  -132.524253275     A.U. after   12 cycles
 E2(B2PLYPD3) =    -0.1812311540D+00 E(B2PLYPD3) =    -0.13270548442919D+03

 The electronic state is 1-A.
 Alpha  occ. eigenvalues --  -14.84470 -10.66395 -10.65106  -1.03618  -0.91236
 Alpha  occ. eigenvalues --   -0.60906  -0.56501  -0.54634  -0.44802  -0.38717
 Alpha  occ. eigenvalues --   -0.38476
 Alpha virt. eigenvalues --    0.03963   0.07748   0.08449   0.10026   0.11233
 Alpha virt. eigenvalues --    0.11485   0.15624   0.15776   0.16680   0.20192
 Alpha virt. eigenvalues --    0.20228   0.26149   0.33066   0.34868   0.35852

 Mulliken charges:
               1
     1  C   -0.066865
     2  C    0.002813
     3  N   -0.216645
     4  H    0.088694
     5  H    0.096047
     6  H    0.095956
 Sum of Mulliken charges =   0.00000

 Dipole moment (field-independent basis, Debye):
    X=             -4.1372    Y=              0.0163    Z=              0.0296  Tot=              4.1373
 Quadrupole moment (field-independent basis, Debye-Ang):
   XX=            -20.9517   YY=            -17.6939   ZZ=            -17.6455
   XY=              0.0364   XZ=              0.1195   YZ=             -0.0089

 Normal termination of Gaussian 09 at Wed Aug 26 22:19:36 2020.
