 Gaussian 09, Revision D.01,
 Gaussian 09:  ES64L-G09RevD.01 24-Apr-2013

 --------------------
 #p B2PLYPD3/Def2QZVP
 --------------------

 ------------
 cyanomethane
 ------------
 Symbolic Z-matrix:
 Charge =  0 Multiplicity = 1

                         Standard orientation:
 ---------------------------------------------------------------------
 Center     Atomic      Atomic             Coordinates (Angstroms)
 Number     Number       Type             X           Y           Z
 ---------------------------------------------------------------------
      1          6           0       -1.175260   -0.005249   -0.023462
      2          6           0        0.277180    0.024397    0.015991
      3          7           0        1.427274   -0.006770   -0.003322
      4          1           0       -1.545133   -0.342913    0.955177
      5          1           0       -1.456596   -0.686507   -0.714391
      6          1           0       -1.600702    0.961924   -0.172705
 ---------------------------------------------------------------------

 SCF Done:  E(RB2PLYPD3) =  -132.531091054     A.U. after   11 cycles
 E2(B2PLYPD3) =    -0.1797942923D+00 E(B2PLYPD3) =    -0.13271088534630D+03

 The electronic state is 1-A.
 Alpha  occ. eigenvalues --  -14.84025 -10.66127 -10.66043  -1.04271  -0.90081
 Alpha  occ. eigenvalues --   -0.60018  -0.56106  -0.53332  -0.44740  -0.39350
 Alpha  occ. eigenvalues --   -0.38991
 Alpha virt. eigenvalues --    0.03897   0.08037   0.08589   0.10214   0.11267
 Alpha virt. eigenvalues --    0.11667   0.15479   0.16038   0.16718   0.20026
 Alpha virt. eigenvalues --    0.20146   0.25486   0.32856   0.34268   0.35968

 Mulliken charges:
               1
     1  C   -0.075699
     2  C   -0.002208
     3  N   -0.205746
     4  H    0.087439
     5  H    0.101638
     6  H    0.094576
 Sum of Mulliken charges =   0.00000

 Dipole moment (field-independent basis, Debye):
    X=             -4.1272    Y=             -0.0031    Z=              0.0198  Tot=              4.1273
 Quadrupole moment (field-independent basis, Debye-Ang):
   XX=            -20.9265   YY=            -17.6193   ZZ=            -17.7689
   XY=             -0.0277   XZ=             -0.0702   YZ=              0.0810

 Normal termination of Gaussian 09 at Wed Aug 26 13:50:13 2020.
