 Gaussian 09, Revision D.01,
 Gaussian 09:  ES64L-G09RevD.01 24-Apr-2013

 --------------------
 #p B2PLYPD3/Def2QZVP
 --------------------

 ------------
 cyanomethane
 ------------
 Symbolic Z-matrix:
 Charge =  0 Multiplicity = 1

                         Standard orientation:
 ---------------------------------------------------------------------
 Center     Atomic      Atomic             Coordinates (Angstroms)
 Number     Number       Type             X           Y           Z
 ---------------------------------------------------------------------
      1          6           0        1.171639   -0.021744    0.003578
      2          6           0       -0.288427   -0.028766   -0.006879
      3          7           0       -1.437209    0.023657    0.003532
      4          1           0        1.662734    1.013759   -0.298459
      5          1           0        1.524596   -0.703063   -0.664580
      6          1           0        1.573868   -0.173238    0.958118
 ---------------------------------------------------------------------

 SCF Done:  E(RB2PLYPD3) =  -132.524743080     A.U. after   12 cycles
 E2(B2PLYPD3) =    -0.1802209320D+00 E(B2PLYPD3) =    -0.13270496401167D+03

 The electronic state is 1-A.
 Alpha  occ. eigenvalues --  -14.84269 -10.66833 -10.66327  -1.04428  -0.89405
 Alpha  occ. eigenvalues --   -0.60634  -0.55768  -0.51410  -0.44960  -0.39556
 Alpha  occ. eigenvalues --   -0.38993
 Alpha virt. eigenvalues --    0.03469   0.07191   0.08694   0.10169   0.11151
 Alpha virt. eigenvalues --    0.11853   0.15500   0.16559   0.17016   0.19926
 Alpha virt. eigenvalues --    0.20191   0.25335   0.32053   0.33828   0.35941

 Mulliken charges:
               1
     1  C   -0.069872
     2  C    0.001704
     3  N   -0.202317
     4  H    0.079728
     5  H    0.097660
     6  H    0.093097
 Sum of Mulliken charges =   0.00000

 Dipole moment (field-independent basis, Debye):
    X=              4.1251    Y=             -0.0590    Z=              0.0141  Tot=              4.1256
 Quadrupole moment (field-independent basis, Debye-Ang):
   XX=            -20.6882   YY=            -17.8652   ZZ=            -17.7958
   XY=              0.1990   XZ=              0.0659   YZ=              0.1133

 Normal termination of Gaussian 09 at Wed Aug 26 14:04:18 2020.
