 Gaussian 09, Revision D.01,
 Gaussian 09:  ES64L-G09RevD.01 24-Apr-2013

 --------------------
 #p B2PLYPD3/Def2QZVP
 --------------------

 ------------
 cyanomethane
 ------------
 Symbolic Z-matrix:
 Charge =  0 Multiplicity = 1

                         Standard orientation:
 ---------------------------------------------------------------------
 Center     Atomic      Atomic             Coordinates (Angstroms)
 Number     Number       Type             X           Y           Z
 ---------------------------------------------------------------------
      1          6           0       -1.168261    0.008524    0.006791
      2          6           0        0.287403   -0.010429   -0.029892
      3          7           0        1.425649    0.001973    0.011741
      4          1           0       -1.535875    1.026766   -0.104782
      5          1           0       -1.535009   -0.404460    0.934974
      6          1           0       -1.623507   -0.624686   -0.773776
 ---------------------------------------------------------------------

 SCF Done:  E(RB2PLYPD3) =  -132.535656818     A.U. after   11 cycles
 E2(B2PLYPD3) =    -0.1792111154D+00 E(B2PLYPD3) =    -0.13271486793344D+03

 The electronic state is 1-A.
 Alpha  occ. eigenvalues --  -14.83812 -10.67050 -10.65847  -1.04785  -0.89087
 Alpha  occ. eigenvalues --   -0.60022  -0.54172  -0.53050  -0.44800  -0.39536
 Alpha  occ. eigenvalues --   -0.39383
 Alpha virt. eigenvalues --    0.03768   0.07969   0.08178   0.10208   0.11582
 Alpha virt. eigenvalues --    0.11773   0.15474   0.16526   0.16731   0.19973
 Alpha virt. eigenvalues --    0.20043   0.25468   0.32867   0.34617   0.34897

 Mulliken charges:
               1
     1  C   -0.079141
     2  C   -0.002518
     3  N   -0.197531
     4  H    0.096450
     5  H    0.093565
     6  H    0.089176
 Sum of Mulliken charges =   0.00000

 Dipole moment (field-independent basis, Debye):
    X=             -4.1050    Y=             -0.0173    Z=             -0.0040  Tot=              4.1050
 Quadrupole moment (field-independent basis, Debye-Ang):
   XX=            -20.8594   YY=            -17.6384   ZZ=            -17.8443
   XY=              0.0697   XZ=             -0.0476   YZ=             -0.0283

 Normal termination of Gaussian 09 at Wed Aug 26 16:09:19 2020.
