 Gaussian 09, Revision D.01,
 Gaussian 09:  ES64L-G09RevD.01 24-Apr-2013

 --------------------
 #p B2PLYPD3/Def2QZVP
 --------------------

 ------------
 cyanomethane
 ------------
 Symbolic Z-matrix:
 Charge =  0 Multiplicity = 1

                         Standard orientation:
 ---------------------------------------------------------------------
 Center     Atomic      Atomic             Coordinates (Angstroms)
 Number     Number       Type             X           Y           Z
 ---------------------------------------------------------------------
      1          6           0        1.178907    0.001767    0.028221
      2          6           0       -0.272655   -0.001067   -0.036101
      3          7           0       -1.448273    0.000527    0.012256
      4          1           0        1.578278    1.023944   -0.198927
      5          1           0        1.603038   -0.685202   -0.764162
      6          1           0        1.519081   -0.346635    0.924578
 ---------------------------------------------------------------------

 SCF Done:  E(RB2PLYPD3) =  -132.527431973     A.U. after   12 cycles
 E2(B2PLYPD3) =    -0.1825359972D+00 E(B2PLYPD3) =    -0.13270996797067D+03

 The electronic state is 1-A.
 Alpha  occ. eigenvalues --  -14.84905 -10.67182 -10.66988  -1.03319  -0.89379
 Alpha  occ. eigenvalues --   -0.60474  -0.54864  -0.52591  -0.44958  -0.38720
 Alpha  occ. eigenvalues --   -0.38393
 Alpha virt. eigenvalues --    0.03687   0.07021   0.07546   0.10087   0.11166
 Alpha virt. eigenvalues --    0.11414   0.15392   0.16039   0.16709   0.20151
 Alpha virt. eigenvalues --    0.20198   0.25525   0.32181   0.33706   0.35287

 Mulliken charges:
               1
     1  C   -0.078127
     2  C    0.005099
     3  N   -0.215481
     4  H    0.096376
     5  H    0.088822
     6  H    0.103312
 Sum of Mulliken charges =   0.00000

 Dipole moment (field-independent basis, Debye):
    X=              4.1564    Y=             -0.0168    Z=             -0.0069  Tot=              4.1564
 Quadrupole moment (field-independent basis, Debye-Ang):
   XX=            -20.9261   YY=            -17.8074   ZZ=            -17.9063
   XY=             -0.0350   XZ=              0.0094   YZ=             -0.0848

 Normal termination of Gaussian 09 at Wed Aug 26 15:18:28 2020.
