 Gaussian 09, Revision D.01,
 Gaussian 09:  ES64L-G09RevD.01 24-Apr-2013

 --------------------
 #p B2PLYPD3/Def2QZVP
 --------------------

 ------------
 cyanomethane
 ------------
 Symbolic Z-matrix:
 Charge =  0 Multiplicity = 1

                         Standard orientation:
 ---------------------------------------------------------------------
 Center     Atomic      Atomic             Coordinates (Angstroms)
 Number     Number       Type             X           Y           Z
 ---------------------------------------------------------------------
      1          6           0       -1.182956    0.015883   -0.022790
      2          6           0        0.292647   -0.026868   -0.075313
      3          7           0        1.433094    0.018592    0.045947
      4          1           0       -1.610533   -0.087776    1.024461
      5          1           0       -1.466423   -0.887769   -0.424810
      6          1           0       -1.612848    0.911312   -0.332662
 ---------------------------------------------------------------------

 SCF Done:  E(RB2PLYPD3) =  -132.521717058     A.U. after   12 cycles
 E2(B2PLYPD3) =    -0.1801751443D+00 E(B2PLYPD3) =    -0.13270189220203D+03

 The electronic state is 1-A.
 Alpha  occ. eigenvalues --  -14.84158 -10.66599 -10.66210  -1.04461  -0.89440
 Alpha  occ. eigenvalues --   -0.60309  -0.56745  -0.50945  -0.44874  -0.39715
 Alpha  occ. eigenvalues --   -0.38892
 Alpha virt. eigenvalues --    0.03450   0.07408   0.09026   0.09969   0.10921
 Alpha virt. eigenvalues --    0.11915   0.15407   0.16065   0.17597   0.19822
 Alpha virt. eigenvalues --    0.20228   0.25343   0.32792   0.33300   0.36446

 Mulliken charges:
               1
     1  C   -0.071716
     2  C    0.002299
     3  N   -0.201217
     4  H    0.075069
     5  H    0.095973
     6  H    0.099592
 Sum of Mulliken charges =   0.00000

 Dipole moment (field-independent basis, Debye):
    X=             -4.1085    Y=             -0.0494    Z=             -0.0153  Tot=              4.1088
 Quadrupole moment (field-independent basis, Debye-Ang):
   XX=            -20.7695   YY=            -17.4319   ZZ=            -18.1470
   XY=             -0.1554   XZ=             -0.4745   YZ=             -0.0022

 Normal termination of Gaussian 09 at Wed Aug 26 22:49:25 2020.
