 Gaussian 09, Revision D.01,
 Gaussian 09:  ES64L-G09RevD.01 24-Apr-2013

 --------------------
 #p B2PLYPD3/Def2QZVP
 --------------------

 ------------
 cyanomethane
 ------------
 Symbolic Z-matrix:
 Charge =  0 Multiplicity = 1

                         Standard orientation:
 ---------------------------------------------------------------------
 Center     Atomic      Atomic             Coordinates (Angstroms)
 Number     Number       Type             X           Y           Z
 ---------------------------------------------------------------------
      1          6           0        1.188788   -0.002758   -0.007708
      2          6           0       -0.282888   -0.075047    0.030040
      3          7           0       -1.416428    0.042793   -0.024338
      4          1           0        1.585072    0.991511   -0.360220
      5          1           0        1.536391   -0.760840   -0.577802
      6          1           0        1.358130   -0.063385    0.974395
 ---------------------------------------------------------------------

 SCF Done:  E(RB2PLYPD3) =  -132.518569323     A.U. after   12 cycles
 E2(B2PLYPD3) =    -0.1791873929D+00 E(B2PLYPD3) =    -0.13269775671612D+03

 The electronic state is 1-A.
 Alpha  occ. eigenvalues --  -14.83698 -10.65823 -10.65666  -1.04620  -0.90379
 Alpha  occ. eigenvalues --   -0.59096  -0.56974  -0.53298  -0.44593  -0.39637
 Alpha  occ. eigenvalues --   -0.39195
 Alpha virt. eigenvalues --    0.03545   0.08066   0.09826   0.10217   0.11177
 Alpha virt. eigenvalues --    0.11536   0.15007   0.15519   0.17185   0.20024
 Alpha virt. eigenvalues --    0.20101   0.25477   0.33019   0.34201   0.36330

 Mulliken charges:
               1
     1  C   -0.095379
     2  C   -0.006191
     3  N   -0.200434
     4  H    0.093055
     5  H    0.102713
     6  H    0.106235
 Sum of Mulliken charges =   0.00000

 Dipole moment (field-independent basis, Debye):
    X=              4.0617    Y=             -0.0645    Z=              0.0723  Tot=              4.0629
 Quadrupole moment (field-independent basis, Debye-Ang):
   XX=            -21.1115   YY=            -17.5577   ZZ=            -17.6198
   XY=              0.2954   XZ=             -0.2267   YZ=              0.1064

 Normal termination of Gaussian 09 at Wed Aug 26 18:20:30 2020.
