 Gaussian 09, Revision D.01,
 Gaussian 09:  ES64L-G09RevD.01 24-Apr-2013

 --------------------
 #p B2PLYPD3/Def2QZVP
 --------------------

 ------------
 cyanomethane
 ------------
 Symbolic Z-matrix:
 Charge =  0 Multiplicity = 1

                         Standard orientation:
 ---------------------------------------------------------------------
 Center     Atomic      Atomic             Coordinates (Angstroms)
 Number     Number       Type             X           Y           Z
 ---------------------------------------------------------------------
      1          6           0       -1.174039    0.008740    0.003891
      2          6           0        0.278893    0.012059   -0.010411
      3          7           0        1.428072   -0.004454    0.006000
      4          1           0       -1.548477   -0.203673    0.984417
      5          1           0       -1.504572   -0.829351   -0.638133
      6          1           0       -1.572585    0.939404   -0.349159
 ---------------------------------------------------------------------

 SCF Done:  E(RB2PLYPD3) =  -132.535338501     A.U. after   11 cycles
 E2(B2PLYPD3) =    -0.1799443166D+00 E(B2PLYPD3) =    -0.13271528281800D+03

 The electronic state is 1-A.
 Alpha  occ. eigenvalues --  -14.84003 -10.66865 -10.66045  -1.04313  -0.89447
 Alpha  occ. eigenvalues --   -0.59824  -0.54694  -0.53483  -0.44745  -0.39274
 Alpha  occ. eigenvalues --   -0.39031
 Alpha virt. eigenvalues --    0.03798   0.08007   0.08164   0.10184   0.11381
 Alpha virt. eigenvalues --    0.11690   0.15456   0.16057   0.16667   0.20030
 Alpha virt. eigenvalues --    0.20128   0.25430   0.32873   0.34203   0.35219

 Mulliken charges:
               1
     1  C   -0.083355
     2  C   -0.002246
     3  N   -0.204164
     4  H    0.095991
     5  H    0.094660
     6  H    0.099113
 Sum of Mulliken charges =   0.00000

 Dipole moment (field-independent basis, Debye):
    X=             -4.1187    Y=             -0.0103    Z=              0.0030  Tot=              4.1187
 Quadrupole moment (field-independent basis, Debye-Ang):
   XX=            -21.0056   YY=            -17.6286   ZZ=            -17.8008
   XY=              0.0183   XZ=             -0.0782   YZ=             -0.0363

 Normal termination of Gaussian 09 at Wed Aug 26 09:51:52 2020.
