 Gaussian 09, Revision D.01,
 Gaussian 09:  ES64L-G09RevD.01 24-Apr-2013

 --------------------
 #p B2PLYPD3/Def2QZVP
 --------------------

 ------------
 cyanomethane
 ------------
 Symbolic Z-matrix:
 Charge =  0 Multiplicity = 1

                         Standard orientation:
 ---------------------------------------------------------------------
 Center     Atomic      Atomic             Coordinates (Angstroms)
 Number     Number       Type             X           Y           Z
 ---------------------------------------------------------------------
      1          6           0        1.172357    0.001840   -0.008887
      2          6           0       -0.282327    0.014689   -0.005362
      3          7           0       -1.436696   -0.009801    0.007744
      4          1           0        1.631294   -0.384731    0.960525
      5          1           0        1.539483    1.014568   -0.145094
      6          1           0        1.545917   -0.660404   -0.784146
 ---------------------------------------------------------------------

 SCF Done:  E(RB2PLYPD3) =  -132.533177065     A.U. after   12 cycles
 E2(B2PLYPD3) =    -0.1807429037D+00 E(B2PLYPD3) =    -0.13271391996906D+03

 The electronic state is 1-A.
 Alpha  occ. eigenvalues --  -14.84291 -10.67507 -10.66356  -1.04173  -0.88913
 Alpha  occ. eigenvalues --   -0.59976  -0.54391  -0.52379  -0.44882  -0.39169
 Alpha  occ. eigenvalues --   -0.38933
 Alpha virt. eigenvalues --    0.03640   0.07242   0.08017   0.10159   0.11354
 Alpha virt. eigenvalues --    0.11698   0.15417   0.16320   0.16726   0.20017
 Alpha virt. eigenvalues --    0.20148   0.25415   0.32543   0.34024   0.34912

 Mulliken charges:
               1
     1  C   -0.082193
     2  C    0.000593
     3  N   -0.204988
     4  H    0.090162
     5  H    0.098340
     6  H    0.098086
 Sum of Mulliken charges =   0.00000

 Dipole moment (field-independent basis, Debye):
    X=              4.1267    Y=              0.0102    Z=             -0.0157  Tot=              4.1267
 Quadrupole moment (field-independent basis, Debye-Ang):
   XX=            -20.9081   YY=            -17.7233   ZZ=            -17.8998
   XY=             -0.0994   XZ=              0.1071   YZ=              0.0422

 Normal termination of Gaussian 09 at Wed Aug 26 23:55:39 2020.
