 Gaussian 09, Revision D.01,
 Gaussian 09:  ES64L-G09RevD.01 24-Apr-2013

 --------------------
 #p B2PLYPD3/Def2QZVP
 --------------------

 ------------
 cyanomethane
 ------------
 Symbolic Z-matrix:
 Charge =  0 Multiplicity = 1

                         Standard orientation:
 ---------------------------------------------------------------------
 Center     Atomic      Atomic             Coordinates (Angstroms)
 Number     Number       Type             X           Y           Z
 ---------------------------------------------------------------------
      1          6           0        1.173929   -0.012708    0.006454
      2          6           0       -0.289122   -0.017032    0.013341
      3          7           0       -1.437303    0.017439   -0.006306
      4          1           0        1.669552    1.015428   -0.285347
      5          1           0        1.502142   -0.713847   -0.734152
      6          1           0        1.580587   -0.245218    0.944865
 ---------------------------------------------------------------------

 SCF Done:  E(RB2PLYPD3) =  -132.529047697     A.U. after   12 cycles
 E2(B2PLYPD3) =    -0.1802627314D+00 E(B2PLYPD3) =    -0.13270931042872D+03

 The electronic state is 1-A.
 Alpha  occ. eigenvalues --  -14.84197 -10.67390 -10.66283  -1.04437  -0.88923
 Alpha  occ. eigenvalues --   -0.60168  -0.54799  -0.51759  -0.44909  -0.39451
 Alpha  occ. eigenvalues --   -0.39078
 Alpha virt. eigenvalues --    0.03508   0.07169   0.08450   0.10197   0.11317
 Alpha virt. eigenvalues --    0.11768   0.15406   0.16292   0.17071   0.19973
 Alpha virt. eigenvalues --    0.20146   0.25277   0.32159   0.33863   0.35321

 Mulliken charges:
               1
     1  C   -0.079118
     2  C    0.000728
     3  N   -0.201625
     4  H    0.085535
     5  H    0.097370
     6  H    0.097110
 Sum of Mulliken charges =   0.00000

 Dipole moment (field-independent basis, Debye):
    X=              4.1213    Y=             -0.0542    Z=              0.0165  Tot=              4.1217
 Quadrupole moment (field-independent basis, Debye-Ang):
   XX=            -20.7992   YY=            -17.8686   ZZ=            -17.7828
   XY=              0.1658   XZ=              0.0034   YZ=              0.0532

 Normal termination of Gaussian 09 at Wed Aug 26 10:29:04 2020.
