 Gaussian 09, Revision D.01,
 Gaussian 09:  ES64L-G09RevD.01 24-Apr-2013

 --------------------
 #p B2PLYPD3/Def2QZVP
 --------------------

 ------------
 cyanomethane
 ------------
 Symbolic Z-matrix:
 Charge =  0 Multiplicity = 1

                         Standard orientation:
 ---------------------------------------------------------------------
 Center     Atomic      Atomic             Coordinates (Angstroms)
 Number     Number       Type             X           Y           Z
 ---------------------------------------------------------------------
      1          6           0       -1.199022    0.012682   -0.002753
      2          6           0        0.271993    0.008255    0.030653
      3          7           0        1.444851   -0.010739   -0.012448
      4          1           0       -1.440468    1.003628   -0.184617
      5          1           0       -1.583401   -0.388130    0.908994
      6          1           0       -1.527916   -0.665946   -0.804646
 ---------------------------------------------------------------------

 SCF Done:  E(RB2PLYPD3) =  -132.529432733     A.U. after   12 cycles
 E2(B2PLYPD3) =    -0.1819529996D+00 E(B2PLYPD3) =    -0.13271138573252D+03

 The electronic state is 1-A.
 Alpha  occ. eigenvalues --  -14.84608 -10.66775 -10.66717  -1.03253  -0.89734
 Alpha  occ. eigenvalues --   -0.59122  -0.56102  -0.53570  -0.44677  -0.38721
 Alpha  occ. eigenvalues --   -0.38499
 Alpha virt. eigenvalues --    0.03761   0.07632   0.08420   0.10187   0.10882
 Alpha virt. eigenvalues --    0.11292   0.15097   0.15837   0.16059   0.20139
 Alpha virt. eigenvalues --    0.20233   0.25050   0.32416   0.34152   0.35486

 Mulliken charges:
               1
     1  C   -0.088357
     2  C   -0.001656
     3  N   -0.216739
     4  H    0.108800
     5  H    0.099439
     6  H    0.098514
 Sum of Mulliken charges =   0.00000

 Dipole moment (field-independent basis, Debye):
    X=             -4.1573    Y=             -0.0019    Z=              0.0142  Tot=              4.1573
 Quadrupole moment (field-independent basis, Debye-Ang):
   XX=            -21.1884   YY=            -17.6179   ZZ=            -17.8575
   XY=              0.1952   XZ=              0.0081   YZ=             -0.0479

 Normal termination of Gaussian 09 at Wed Aug 26 14:52:52 2020.
