 Gaussian 09, Revision D.01,
 Gaussian 09:  ES64L-G09RevD.01 24-Apr-2013

 --------------------
 #p B2PLYPD3/Def2QZVP
 --------------------

 ------------
 cyanomethane
 ------------
 Symbolic Z-matrix:
 Charge =  0 Multiplicity = 1

                         Standard orientation:
 ---------------------------------------------------------------------
 Center     Atomic      Atomic             Coordinates (Angstroms)
 Number     Number       Type             X           Y           Z
 ---------------------------------------------------------------------
      1          6           0       -1.176757    0.000821   -0.037929
      2          6           0        0.292799    0.066556    0.008044
      3          7           0        1.416311   -0.026842    0.003579
      4          1           0       -1.550222   -0.407066    0.962432
      5          1           0       -1.419427   -0.737146   -0.684256
      6          1           0       -1.640780    0.927838   -0.123918
 ---------------------------------------------------------------------

 SCF Done:  E(RB2PLYPD3) =  -132.525421088     A.U. after   12 cycles
 E2(B2PLYPD3) =    -0.1781066166D+00 E(B2PLYPD3) =    -0.13270352770431D+03

 The electronic state is 1-A.
 Alpha  occ. eigenvalues --  -14.83381 -10.66391 -10.65432  -1.05192  -0.89604
 Alpha  occ. eigenvalues --   -0.59586  -0.56977  -0.51846  -0.44648  -0.40143
 Alpha  occ. eigenvalues --   -0.39377
 Alpha virt. eigenvalues --    0.03736   0.08200   0.09082   0.10288   0.11295
 Alpha virt. eigenvalues --    0.12143   0.15388   0.16173   0.17144   0.19775
 Alpha virt. eigenvalues --    0.20109   0.25344   0.32524   0.33668   0.36683

 Mulliken charges:
               1
     1  C   -0.081158
     2  C   -0.005755
     3  N   -0.192018
     4  H    0.078044
     5  H    0.102646
     6  H    0.098241
 Sum of Mulliken charges =   0.00000

 Dipole moment (field-independent basis, Debye):
    X=             -4.0856    Y=              0.0136    Z=              0.0225  Tot=              4.0857
 Quadrupole moment (field-independent basis, Debye-Ang):
   XX=            -20.8929   YY=            -17.4330   ZZ=            -17.8805
   XY=              0.0856   XZ=             -0.1725   YZ=              0.1171

 Normal termination of Gaussian 09 at Wed Aug 26 18:27:31 2020.
