 Gaussian 09, Revision D.01,
 Gaussian 09:  ES64L-G09RevD.01 24-Apr-2013

 --------------------
 #p B2PLYPD3/Def2QZVP
 --------------------

 ------------
 cyanomethane
 ------------
 Symbolic Z-matrix:
 Charge =  0 Multiplicity = 1

                         Standard orientation:
 ---------------------------------------------------------------------
 Center     Atomic      Atomic             Coordinates (Angstroms)
 Number     Number       Type             X           Y           Z
 ---------------------------------------------------------------------
      1          6           0        1.176042   -0.005833    0.006581
      2          6           0       -0.273540    0.036082   -0.005460
      3          7           0       -1.446277   -0.018477    0.000807
      4          1           0        1.568802    1.013720   -0.128994
      5          1           0        1.585954   -0.643391   -0.821850
      6          1           0        1.554174   -0.422483    0.938475
 ---------------------------------------------------------------------

 SCF Done:  E(RB2PLYPD3) =  -132.531761694     A.U. after   12 cycles
 E2(B2PLYPD3) =    -0.1824489233D+00 E(B2PLYPD3) =    -0.13271421061688D+03

 The electronic state is 1-A.
 Alpha  occ. eigenvalues --  -14.84832 -10.67555 -10.66906  -1.03417  -0.89028
 Alpha  occ. eigenvalues --   -0.60124  -0.53943  -0.53010  -0.44954  -0.38632
 Alpha  occ. eigenvalues --   -0.38528
 Alpha virt. eigenvalues --    0.03614   0.07029   0.07450   0.10077   0.11227
 Alpha virt. eigenvalues --    0.11444   0.15415   0.16101   0.16618   0.20106
 Alpha virt. eigenvalues --    0.20222   0.25544   0.32445   0.34103   0.34643

 Mulliken charges:
               1
     1  C   -0.081763
     2  C    0.003911
     3  N   -0.213724
     4  H    0.096929
     5  H    0.095276
     6  H    0.099371
 Sum of Mulliken charges =   0.00000

 Dipole moment (field-independent basis, Debye):
    X=              4.1505    Y=              0.0171    Z=              0.0035  Tot=              4.1506
 Quadrupole moment (field-independent basis, Debye-Ang):
   XX=            -20.9543   YY=            -17.8263   ZZ=            -17.8937
   XY=             -0.1172   XZ=             -0.0127   YZ=             -0.0303

 Normal termination of Gaussian 09 at Wed Aug 26 14:17:50 2020.
