 Gaussian 09, Revision D.01,
 Gaussian 09:  ES64L-G09RevD.01 24-Apr-2013

 --------------------
 #p B2PLYPD3/Def2QZVP
 --------------------

 ------------
 cyanomethane
 ------------
 Symbolic Z-matrix:
 Charge =  0 Multiplicity = 1

                         Standard orientation:
 ---------------------------------------------------------------------
 Center     Atomic      Atomic             Coordinates (Angstroms)
 Number     Number       Type             X           Y           Z
 ---------------------------------------------------------------------
      1          6           0       -1.162405   -0.005232   -0.007065
      2          6           0        0.288553    0.043425    0.008939
      3          7           0        1.421206   -0.023199   -0.005200
      4          1           0       -1.554312   -0.295611    0.996382
      5          1           0       -1.587258   -0.745312   -0.719568
      6          1           0       -1.563761    0.974161   -0.251658
 ---------------------------------------------------------------------

 SCF Done:  E(RB2PLYPD3) =  -132.534375736     A.U. after   12 cycles
 E2(B2PLYPD3) =    -0.1790812299D+00 E(B2PLYPD3) =    -0.13271345696642D+03

 The electronic state is 1-A.
 Alpha  occ. eigenvalues --  -14.83715 -10.67389 -10.65714  -1.04994  -0.88817
 Alpha  occ. eigenvalues --   -0.59931  -0.53758  -0.52799  -0.44819  -0.39579
 Alpha  occ. eigenvalues --   -0.39448
 Alpha virt. eigenvalues --    0.03655   0.07638   0.08256   0.10143   0.11660
 Alpha virt. eigenvalues --    0.11896   0.15561   0.16223   0.17104   0.19922
 Alpha virt. eigenvalues --    0.20060   0.25630   0.33020   0.34219   0.34686

 Mulliken charges:
               1
     1  C   -0.084232
     2  C   -0.002378
     3  N   -0.194242
     4  H    0.091967
     5  H    0.094402
     6  H    0.094482
 Sum of Mulliken charges =   0.00000

 Dipole moment (field-independent basis, Debye):
    X=             -4.0817    Y=              0.0353    Z=              0.0138  Tot=              4.0819
 Quadrupole moment (field-independent basis, Debye-Ang):
   XX=            -20.8829   YY=            -17.7001   ZZ=            -17.7834
   XY=              0.1573   XZ=              0.0372   YZ=             -0.0099

 Normal termination of Gaussian 09 at Wed Aug 26 16:12:07 2020.
