 Gaussian 09, Revision D.01,
 Gaussian 09:  ES64L-G09RevD.01 24-Apr-2013

 --------------------
 #p B2PLYPD3/Def2QZVP
 --------------------

 ------------
 cyanomethane
 ------------
 Symbolic Z-matrix:
 Charge =  0 Multiplicity = 1

                         Standard orientation:
 ---------------------------------------------------------------------
 Center     Atomic      Atomic             Coordinates (Angstroms)
 Number     Number       Type             X           Y           Z
 ---------------------------------------------------------------------
      1          6           0        1.178225    0.002825    0.003106
      2          6           0       -0.268522    0.018655    0.005971
      3          7           0       -1.432453   -0.005915   -0.002068
      4          1           0        1.531148   -0.217709    0.985821
      5          1           0        1.567875    0.946219   -0.353664
      6          1           0        1.469929   -0.815985   -0.672144
 ---------------------------------------------------------------------

 SCF Done:  E(RB2PLYPD3) =  -132.533978181     A.U. after   12 cycles
 E2(B2PLYPD3) =    -0.1812004638D+00 E(B2PLYPD3) =    -0.13271517864449D+03

 The electronic state is 1-A.
 Alpha  occ. eigenvalues --  -14.84333 -10.66894 -10.66384  -1.03697  -0.89690
 Alpha  occ. eigenvalues --   -0.59566  -0.54792  -0.54066  -0.44722  -0.38815
 Alpha  occ. eigenvalues --   -0.38633
 Alpha virt. eigenvalues --    0.03779   0.07820   0.07952   0.10159   0.11256
 Alpha virt. eigenvalues --    0.11489   0.15389   0.15840   0.16312   0.20128
 Alpha virt. eigenvalues --    0.20192   0.25499   0.32750   0.34161   0.35032

 Mulliken charges:
               1
     1  C   -0.088917
     2  C   -0.000782
     3  N   -0.212357
     4  H    0.100902
     5  H    0.101059
     6  H    0.100096
 Sum of Mulliken charges =   0.00000

 Dipole moment (field-independent basis, Debye):
    X=              4.1339    Y=             -0.0062    Z=              0.0049  Tot=              4.1339
 Quadrupole moment (field-independent basis, Debye-Ang):
   XX=            -21.1557   YY=            -17.6827   ZZ=            -17.7504
   XY=              0.0089   XZ=              0.0191   YZ=             -0.0260

 Normal termination of Gaussian 09 at Thu Aug 27 00:02:53 2020.
