 Gaussian 09, Revision D.01,
 Gaussian 09:  ES64L-G09RevD.01 24-Apr-2013

 --------------------
 #p B2PLYPD3/Def2QZVP
 --------------------

 ------------
 cyanomethane
 ------------
 Symbolic Z-matrix:
 Charge =  0 Multiplicity = 1

                         Standard orientation:
 ---------------------------------------------------------------------
 Center     Atomic      Atomic             Coordinates (Angstroms)
 Number     Number       Type             X           Y           Z
 ---------------------------------------------------------------------
      1          6           0       -1.197002    0.017244   -0.007813
      2          6           0        0.288003    0.012585    0.032844
      3          7           0        1.436434   -0.008973   -0.020611
      4          1           0       -1.587014   -0.599018   -0.813983
      5          1           0       -1.528347    0.960027   -0.073035
      6          1           0       -1.485684   -0.477175    0.881106
 ---------------------------------------------------------------------

 SCF Done:  E(RB2PLYPD3) =  -132.528518322     A.U. after   12 cycles
 E2(B2PLYPD3) =    -0.1796740919D+00 E(B2PLYPD3) =    -0.13270819241405D+03

 The electronic state is 1-A.
 Alpha  occ. eigenvalues --  -14.84030 -10.66163 -10.66114  -1.04220  -0.89833
 Alpha  occ. eigenvalues --   -0.59444  -0.56348  -0.53373  -0.44676  -0.39511
 Alpha  occ. eigenvalues --   -0.39143
 Alpha virt. eigenvalues --    0.03840   0.08199   0.09130   0.10214   0.11016
 Alpha virt. eigenvalues --    0.11505   0.15307   0.15695   0.16923   0.20010
 Alpha virt. eigenvalues --    0.20135   0.24881   0.32749   0.34440   0.35937

 Mulliken charges:
               1
     1  C   -0.078160
     2  C   -0.004783
     3  N   -0.204587
     4  H    0.091328
     5  H    0.101794
     6  H    0.094408
 Sum of Mulliken charges =   0.00000

 Dipole moment (field-independent basis, Debye):
    X=             -4.1371    Y=             -0.0093    Z=              0.0427  Tot=              4.1373
 Quadrupole moment (field-independent basis, Debye-Ang):
   XX=            -20.9508   YY=            -17.5705   ZZ=            -17.8089
   XY=              0.1143   XZ=              0.1598   YZ=             -0.0395

 Normal termination of Gaussian 09 at Wed Aug 26 10:49:28 2020.
