 Gaussian 09, Revision D.01,
 Gaussian 09:  ES64L-G09RevD.01 24-Apr-2013

 --------------------
 #p B2PLYPD3/Def2QZVP
 --------------------

 ------------
 cyanomethane
 ------------
 Symbolic Z-matrix:
 Charge =  0 Multiplicity = 1

                         Standard orientation:
 ---------------------------------------------------------------------
 Center     Atomic      Atomic             Coordinates (Angstroms)
 Number     Number       Type             X           Y           Z
 ---------------------------------------------------------------------
      1          6           0        1.160331   -0.001806    0.037462
      2          6           0       -0.271997    0.013407   -0.064253
      3          7           0       -1.448106   -0.010191    0.027013
      4          1           0        1.560821    1.118607   -0.046902
      5          1           0        1.650375   -0.597976   -0.880063
      6          1           0        1.595540   -0.518893    0.898624
 ---------------------------------------------------------------------

 SCF Done:  E(RB2PLYPD3) =  -132.515882219     A.U. after   12 cycles
 E2(B2PLYPD3) =    -0.1841324395D+00 E(B2PLYPD3) =    -0.13270001465828D+03

 The electronic state is 1-A.
 Alpha  occ. eigenvalues --  -14.85174 -10.69073 -10.67208  -1.03357  -0.88129
 Alpha  occ. eigenvalues --   -0.60497  -0.52820  -0.51041  -0.45164  -0.38464
 Alpha  occ. eigenvalues --   -0.38071
 Alpha virt. eigenvalues --    0.03243   0.05866   0.06226   0.09880   0.11368
 Alpha virt. eigenvalues --    0.11711   0.15296   0.15923   0.17248   0.20125
 Alpha virt. eigenvalues --    0.20264   0.26037   0.31350   0.32405   0.34523

 Mulliken charges:
               1
     1  C   -0.095820
     2  C    0.014331
     3  N   -0.213176
     4  H    0.098701
     5  H    0.087980
     6  H    0.107985
 Sum of Mulliken charges =   0.00000

 Dipole moment (field-independent basis, Debye):
    X=              4.1093    Y=             -0.0192    Z=             -0.0165  Tot=              4.1094
 Quadrupole moment (field-independent basis, Debye-Ang):
   XX=            -20.9849   YY=            -17.8087   ZZ=            -18.1587
   XY=             -0.1912   XZ=              0.1222   YZ=             -0.1032

 Normal termination of Gaussian 09 at Wed Aug 26 23:13:00 2020.
