 Gaussian 09, Revision D.01,
 Gaussian 09:  ES64L-G09RevD.01 24-Apr-2013

 --------------------
 #p B2PLYPD3/Def2QZVP
 --------------------

 ------------
 cyanomethane
 ------------
 Symbolic Z-matrix:
 Charge =  0 Multiplicity = 1

                         Standard orientation:
 ---------------------------------------------------------------------
 Center     Atomic      Atomic             Coordinates (Angstroms)
 Number     Number       Type             X           Y           Z
 ---------------------------------------------------------------------
      1          6           0       -1.187222    0.002217   -0.006940
      2          6           0        0.276835    0.007149    0.000465
      3          7           0        1.438509   -0.007199    0.002375
      4          1           0       -1.484309    0.902279   -0.454637
      5          1           0       -1.564266   -0.048773    1.011896
      6          1           0       -1.558669   -0.859310   -0.535028
 ---------------------------------------------------------------------

 SCF Done:  E(RB2PLYPD3) =  -132.533769249     A.U. after   11 cycles
 E2(B2PLYPD3) =    -0.1808532411D+00 E(B2PLYPD3) =    -0.13271462249014D+03

 The electronic state is 1-A.
 Alpha  occ. eigenvalues --  -14.84339 -10.66676 -10.66424  -1.03780  -0.89636
 Alpha  occ. eigenvalues --   -0.59554  -0.55242  -0.53785  -0.44739  -0.38983
 Alpha  occ. eigenvalues --   -0.38861
 Alpha virt. eigenvalues --    0.03828   0.07825   0.08376   0.10195   0.11176
 Alpha virt. eigenvalues --    0.11397   0.15319   0.15986   0.16405   0.20099
 Alpha virt. eigenvalues --    0.20167   0.25189   0.32658   0.34589   0.35198

 Mulliken charges:
               1
     1  C   -0.081921
     2  C   -0.002252
     3  N   -0.210508
     4  H    0.101711
     5  H    0.094916
     6  H    0.098052
 Sum of Mulliken charges =   0.00000

 Dipole moment (field-independent basis, Debye):
    X=             -4.1455    Y=              0.0111    Z=              0.0022  Tot=              4.1455
 Quadrupole moment (field-independent basis, Debye-Ang):
   XX=            -21.0399   YY=            -17.6715   ZZ=            -17.7956
   XY=              0.0953   XZ=             -0.0630   YZ=             -0.0226

 Normal termination of Gaussian 09 at Wed Aug 26 10:09:26 2020.
