 Gaussian 09, Revision D.01,
 Gaussian 09:  ES64L-G09RevD.01 24-Apr-2013

 --------------------
 #p B2PLYPD3/Def2QZVP
 --------------------

 ------------
 cyanomethane
 ------------
 Symbolic Z-matrix:
 Charge =  0 Multiplicity = 1

                         Standard orientation:
 ---------------------------------------------------------------------
 Center     Atomic      Atomic             Coordinates (Angstroms)
 Number     Number       Type             X           Y           Z
 ---------------------------------------------------------------------
      1          6           0       -1.177492    0.006371    0.007663
      2          6           0        0.268631    0.012869   -0.016932
      3          7           0        1.432787   -0.008329    0.006910
      4          1           0       -1.545914   -0.722717   -0.722454
      5          1           0       -1.515973    0.963326   -0.240626
      6          1           0       -1.514459   -0.297747    0.970323
 ---------------------------------------------------------------------

 SCF Done:  E(RB2PLYPD3) =  -132.533150990     A.U. after   11 cycles
 E2(B2PLYPD3) =    -0.1810574559D+00 E(B2PLYPD3) =    -0.13271420844579D+03

 The electronic state is 1-A.
 Alpha  occ. eigenvalues --  -14.84371 -10.66437 -10.66377  -1.03704  -0.90017
 Alpha  occ. eigenvalues --   -0.59836  -0.55466  -0.53981  -0.44752  -0.38855
 Alpha  occ. eigenvalues --   -0.38682
 Alpha virt. eigenvalues --    0.03843   0.07767   0.08255   0.10150   0.11199
 Alpha virt. eigenvalues --    0.11463   0.15472   0.16027   0.16248   0.20124
 Alpha virt. eigenvalues --    0.20195   0.25533   0.32833   0.34478   0.35269

 Mulliken charges:
               1
     1  C   -0.080416
     2  C   -0.001176
     3  N   -0.212549
     4  H    0.094695
     5  H    0.100389
     6  H    0.099056
 Sum of Mulliken charges =   0.00000

 Dipole moment (field-independent basis, Debye):
    X=             -4.1398    Y=              0.0062    Z=             -0.0066  Tot=              4.1398
 Quadrupole moment (field-independent basis, Debye-Ang):
   XX=            -21.0630   YY=            -17.6830   ZZ=            -17.7445
   XY=              0.0746   XZ=             -0.0206   YZ=             -0.0410

 Normal termination of Gaussian 09 at Wed Aug 26 10:23:20 2020.
