 Gaussian 09, Revision D.01,
 Gaussian 09:  ES64L-G09RevD.01 24-Apr-2013

 --------------------
 #p B2PLYPD3/Def2QZVP
 --------------------

 ------------
 cyanomethane
 ------------
 Symbolic Z-matrix:
 Charge =  0 Multiplicity = 1

                         Standard orientation:
 ---------------------------------------------------------------------
 Center     Atomic      Atomic             Coordinates (Angstroms)
 Number     Number       Type             X           Y           Z
 ---------------------------------------------------------------------
      1          6           0        1.188130   -0.020697   -0.000597
      2          6           0       -0.280159    0.019624   -0.020099
      3          7           0       -1.441766   -0.009391    0.011290
      4          1           0        1.558725   -0.048727    1.044903
      5          1           0        1.529013    0.954099   -0.435881
      6          1           0        1.556793   -0.833203   -0.563876
 ---------------------------------------------------------------------

 SCF Done:  E(RB2PLYPD3) =  -132.532467112     A.U. after   12 cycles
 E2(B2PLYPD3) =    -0.1812751448D+00 E(B2PLYPD3) =    -0.13271374225675D+03

 The electronic state is 1-A.
 Alpha  occ. eigenvalues --  -14.84411 -10.67472 -10.66526  -1.03766  -0.88968
 Alpha  occ. eigenvalues --   -0.59439  -0.54705  -0.52934  -0.44777  -0.39037
 Alpha  occ. eigenvalues --   -0.38723
 Alpha virt. eigenvalues --    0.03674   0.07570   0.07991   0.10134   0.11173
 Alpha virt. eigenvalues --    0.11476   0.15274   0.15706   0.16740   0.20084
 Alpha virt. eigenvalues --    0.20153   0.25181   0.32395   0.33738   0.35136

 Mulliken charges:
               1
     1  C   -0.090065
     2  C    0.000353
     3  N   -0.209769
     4  H    0.098984
     5  H    0.095737
     6  H    0.104760
 Sum of Mulliken charges =   0.00000

 Dipole moment (field-independent basis, Debye):
    X=              4.1353    Y=              0.0215    Z=             -0.0128  Tot=              4.1354
 Quadrupole moment (field-independent basis, Debye-Ang):
   XX=            -21.0976   YY=            -17.7585   ZZ=            -17.7913
   XY=             -0.0477   XZ=              0.0809   YZ=              0.0698

 Normal termination of Gaussian 09 at Wed Aug 26 13:54:34 2020.
