 Gaussian 09, Revision D.01,
 Gaussian 09:  ES64L-G09RevD.01 24-Apr-2013

 --------------------
 #p B2PLYPD3/Def2QZVP
 --------------------

 ------------
 cyanomethane
 ------------
 Symbolic Z-matrix:
 Charge =  0 Multiplicity = 1

                         Standard orientation:
 ---------------------------------------------------------------------
 Center     Atomic      Atomic             Coordinates (Angstroms)
 Number     Number       Type             X           Y           Z
 ---------------------------------------------------------------------
      1          6           0       -1.167331    0.011315    0.009929
      2          6           0        0.284723   -0.017169   -0.026992
      3          7           0        1.426217    0.004450    0.010913
      4          1           0       -1.520086    1.037041   -0.069841
      5          1           0       -1.553066   -0.446943    0.896742
      6          1           0       -1.614721   -0.586118   -0.800907
 ---------------------------------------------------------------------

 SCF Done:  E(RB2PLYPD3) =  -132.535272472     A.U. after   11 cycles
 E2(B2PLYPD3) =    -0.1794462574D+00 E(B2PLYPD3) =    -0.13271471872924D+03

 The electronic state is 1-A.
 Alpha  occ. eigenvalues --  -14.83898 -10.66906 -10.65923  -1.04659  -0.89259
 Alpha  occ. eigenvalues --   -0.60182  -0.54436  -0.52997  -0.44813  -0.39469
 Alpha  occ. eigenvalues --   -0.39268
 Alpha virt. eigenvalues --    0.03782   0.07943   0.08148   0.10194   0.11532
 Alpha virt. eigenvalues --    0.11761   0.15476   0.16410   0.16818   0.19983
 Alpha virt. eigenvalues --    0.20068   0.25543   0.32895   0.34573   0.35007

 Mulliken charges:
               1
     1  C   -0.076905
     2  C   -0.001558
     3  N   -0.199626
     4  H    0.097363
     5  H    0.093165
     6  H    0.087561
 Sum of Mulliken charges =   0.00000

 Dipole moment (field-independent basis, Debye):
    X=             -4.1109    Y=             -0.0276    Z=             -0.0076  Tot=              4.1110
 Quadrupole moment (field-independent basis, Debye-Ang):
   XX=            -20.8508   YY=            -17.6062   ZZ=            -17.8835
   XY=              0.0863   XZ=             -0.0468   YZ=             -0.0378

 Normal termination of Gaussian 09 at Wed Aug 26 12:01:39 2020.
