 Gaussian 09, Revision D.01,
 Gaussian 09:  ES64L-G09RevD.01 24-Apr-2013

 --------------------
 #p B2PLYPD3/Def2QZVP
 --------------------

 ------------
 cyanomethane
 ------------
 Symbolic Z-matrix:
 Charge =  0 Multiplicity = 1

                         Standard orientation:
 ---------------------------------------------------------------------
 Center     Atomic      Atomic             Coordinates (Angstroms)
 Number     Number       Type             X           Y           Z
 ---------------------------------------------------------------------
      1          6           0       -1.173987    0.007169    0.004900
      2          6           0        0.270402   -0.023002    0.006776
      3          7           0        1.430981    0.010059   -0.002939
      4          1           0       -1.546714    0.013062    0.998664
      5          1           0       -1.538031   -0.899943   -0.520720
      6          1           0       -1.510611    0.911471   -0.527425
 ---------------------------------------------------------------------

 SCF Done:  E(RB2PLYPD3) =  -132.534024011     A.U. after   11 cycles
 E2(B2PLYPD3) =    -0.1810366186D+00 E(B2PLYPD3) =    -0.13271506062916D+03

 The electronic state is 1-A.
 Alpha  occ. eigenvalues --  -14.84287 -10.67081 -10.66314  -1.03847  -0.89505
 Alpha  occ. eigenvalues --   -0.59671  -0.54427  -0.53848  -0.44756  -0.38853
 Alpha  occ. eigenvalues --   -0.38739
 Alpha virt. eigenvalues --    0.03733   0.07638   0.07949   0.10138   0.11388
 Alpha virt. eigenvalues --    0.11493   0.15431   0.15995   0.16304   0.20130
 Alpha virt. eigenvalues --    0.20141   0.25576   0.32729   0.34208   0.34766

 Mulliken charges:
               1
     1  C   -0.089044
     2  C   -0.000368
     3  N   -0.210252
     4  H    0.100749
     5  H    0.098058
     6  H    0.100857
 Sum of Mulliken charges =   0.00000

 Dipole moment (field-independent basis, Debye):
    X=             -4.1236    Y=             -0.0114    Z=              0.0124  Tot=              4.1236
 Quadrupole moment (field-independent basis, Debye-Ang):
   XX=            -21.1296   YY=            -17.6920   ZZ=            -17.7598
   XY=             -0.0365   XZ=             -0.0242   YZ=             -0.0081

 Normal termination of Gaussian 09 at Thu Aug 27 00:06:22 2020.
