 Gaussian 09, Revision D.01,
 Gaussian 09:  ES64L-G09RevD.01 24-Apr-2013

 --------------------
 #p B2PLYPD3/Def2QZVP
 --------------------

 ------------
 cyanomethane
 ------------
 Symbolic Z-matrix:
 Charge =  0 Multiplicity = 1

                         Standard orientation:
 ---------------------------------------------------------------------
 Center     Atomic      Atomic             Coordinates (Angstroms)
 Number     Number       Type             X           Y           Z
 ---------------------------------------------------------------------
      1          6           0        1.180657    0.018426   -0.007693
      2          6           0       -0.281326    0.002616   -0.013588
      3          7           0       -1.426267   -0.008371    0.010871
      4          1           0        1.583838   -0.233184    0.995733
      5          1           0        1.450159    0.940658   -0.290212
      6          1           0        1.553887   -0.775128   -0.653931
 ---------------------------------------------------------------------

 SCF Done:  E(RB2PLYPD3) =  -132.529690294     A.U. after   12 cycles
 E2(B2PLYPD3) =    -0.1794411858D+00 E(B2PLYPD3) =    -0.13270913147975D+03

 The electronic state is 1-A.
 Alpha  occ. eigenvalues --  -14.83849 -10.66445 -10.65881  -1.04441  -0.89817
 Alpha  occ. eigenvalues --   -0.59421  -0.56402  -0.52863  -0.44669  -0.39490
 Alpha  occ. eigenvalues --   -0.39109
 Alpha virt. eigenvalues --    0.03816   0.07842   0.09011   0.10238   0.11216
 Alpha virt. eigenvalues --    0.11736   0.15382   0.16137   0.16473   0.19987
 Alpha virt. eigenvalues --    0.20137   0.25245   0.32796   0.34082   0.35775

 Mulliken charges:
               1
     1  C   -0.084085
     2  C   -0.005522
     3  N   -0.202546
     4  H    0.091321
     5  H    0.105890
     6  H    0.094942
 Sum of Mulliken charges =   0.00000

 Dipole moment (field-independent basis, Debye):
    X=              4.1135    Y=              0.0004    Z=             -0.0115  Tot=              4.1135
 Quadrupole moment (field-independent basis, Debye-Ang):
   XX=            -21.0230   YY=            -17.5440   ZZ=            -17.7954
   XY=             -0.1679   XZ=              0.1277   YZ=             -0.0419

 Normal termination of Gaussian 09 at Wed Aug 26 14:01:14 2020.
