 Gaussian 09, Revision D.01,
 Gaussian 09:  ES64L-G09RevD.01 24-Apr-2013

 --------------------
 #p B2PLYPD3/Def2QZVP
 --------------------

 ------------
 cyanomethane
 ------------
 Symbolic Z-matrix:
 Charge =  0 Multiplicity = 1

                         Standard orientation:
 ---------------------------------------------------------------------
 Center     Atomic      Atomic             Coordinates (Angstroms)
 Number     Number       Type             X           Y           Z
 ---------------------------------------------------------------------
      1          6           0        1.180937   -0.008138    0.010751
      2          6           0       -0.274579    0.015955   -0.002715
      3          7           0       -1.431579   -0.004759    0.000039
      4          1           0        1.520958   -0.079488    1.005827
      5          1           0        1.562355    0.929517   -0.462759
      6          1           0        1.499590   -0.863620   -0.591556
 ---------------------------------------------------------------------

 SCF Done:  E(RB2PLYPD3) =  -132.534024245     A.U. after   11 cycles
 E2(B2PLYPD3) =    -0.1806578186D+00 E(B2PLYPD3) =    -0.13271468206368D+03

 The electronic state is 1-A.
 Alpha  occ. eigenvalues --  -14.84162 -10.67115 -10.66217  -1.03957  -0.89395
 Alpha  occ. eigenvalues --   -0.59307  -0.54914  -0.53557  -0.44697  -0.39023
 Alpha  occ. eigenvalues --   -0.38835
 Alpha virt. eigenvalues --    0.03755   0.07763   0.08191   0.10170   0.11321
 Alpha virt. eigenvalues --    0.11520   0.15346   0.15992   0.16226   0.20100
 Alpha virt. eigenvalues --    0.20133   0.25354   0.32601   0.34122   0.35008

 Mulliken charges:
               1
     1  C   -0.091675
     2  C   -0.002250
     3  N   -0.208487
     4  H    0.103870
     5  H    0.097023
     6  H    0.101519
 Sum of Mulliken charges =   0.00000

 Dipole moment (field-independent basis, Debye):
    X=              4.1201    Y=              0.0017    Z=              0.0011  Tot=              4.1201
 Quadrupole moment (field-independent basis, Debye-Ang):
   XX=            -21.1707   YY=            -17.7288   ZZ=            -17.6824
   XY=              0.0140   XZ=             -0.0031   YZ=              0.0166

 Normal termination of Gaussian 09 at Wed Aug 26 23:58:33 2020.
