 Gaussian 09, Revision D.01,
 Gaussian 09:  ES64L-G09RevD.01 24-Apr-2013

 --------------------
 #p B2PLYPD3/Def2QZVP
 --------------------

 ------------
 cyanomethane
 ------------
 Symbolic Z-matrix:
 Charge =  0 Multiplicity = 1

                         Standard orientation:
 ---------------------------------------------------------------------
 Center     Atomic      Atomic             Coordinates (Angstroms)
 Number     Number       Type             X           Y           Z
 ---------------------------------------------------------------------
      1          6           0       -1.175725    0.008815    0.009145
      2          6           0        0.271791   -0.030990   -0.013530
      3          7           0        1.427466    0.011657    0.004879
      4          1           0       -1.507629   -0.017657    1.032550
      5          1           0       -1.570892   -0.899004   -0.547393
      6          1           0       -1.490140    0.968112   -0.492995
 ---------------------------------------------------------------------

 SCF Done:  E(RB2PLYPD3) =  -132.532160276     A.U. after   12 cycles
 E2(B2PLYPD3) =    -0.1809528227D+00 E(B2PLYPD3) =    -0.13271311309832D+03

 The electronic state is 1-A.
 Alpha  occ. eigenvalues --  -14.84117 -10.67779 -10.66148  -1.03987  -0.89019
 Alpha  occ. eigenvalues --   -0.58973  -0.54123  -0.53450  -0.44682  -0.38877
 Alpha  occ. eigenvalues --   -0.38779
 Alpha virt. eigenvalues --    0.03606   0.07495   0.07843   0.10132   0.11502
 Alpha virt. eigenvalues --    0.11552   0.15315   0.15916   0.16109   0.20086
 Alpha virt. eigenvalues --    0.20135   0.25523   0.32386   0.33821   0.34453

 Mulliken charges:
               1
     1  C   -0.103534
     2  C   -0.000312
     3  N   -0.208017
     4  H    0.106089
     5  H    0.100575
     6  H    0.105198
 Sum of Mulliken charges =   0.00000

 Dipole moment (field-independent basis, Debye):
    X=             -4.0956    Y=             -0.0121    Z=              0.0112  Tot=              4.0956
 Quadrupole moment (field-independent basis, Debye-Ang):
   XX=            -21.3179   YY=            -17.6454   ZZ=            -17.7539
   XY=             -0.0049   XZ=             -0.0477   YZ=             -0.0190

 Normal termination of Gaussian 09 at Wed Aug 26 13:20:21 2020.
