 Gaussian 09, Revision D.01,
 Gaussian 09:  ES64L-G09RevD.01 24-Apr-2013

 --------------------
 #p B2PLYPD3/Def2QZVP
 --------------------

 ------------
 cyanomethane
 ------------
 Symbolic Z-matrix:
 Charge =  0 Multiplicity = 1

                         Standard orientation:
 ---------------------------------------------------------------------
 Center     Atomic      Atomic             Coordinates (Angstroms)
 Number     Number       Type             X           Y           Z
 ---------------------------------------------------------------------
      1          6           0        1.168730    0.004502   -0.030137
      2          6           0       -0.292999   -0.054788    0.030630
      3          7           0       -1.445661    0.020989   -0.009258
      4          1           0        1.660374    0.151648    0.973948
      5          1           0        1.501119    0.851992   -0.534848
      6          1           0        1.703748   -0.848845   -0.377258
 ---------------------------------------------------------------------

 SCF Done:  E(RB2PLYPD3) =  -132.527583503     A.U. after   11 cycles
 E2(B2PLYPD3) =    -0.1808575044D+00 E(B2PLYPD3) =    -0.13270844100706D+03

 The electronic state is 1-A.
 Alpha  occ. eigenvalues --  -14.84592 -10.66778 -10.66722  -1.04302  -0.89221
 Alpha  occ. eigenvalues --   -0.61556  -0.54657  -0.51551  -0.45137  -0.39484
 Alpha  occ. eigenvalues --   -0.38994
 Alpha virt. eigenvalues --    0.03690   0.07304   0.07796   0.10207   0.11269
 Alpha virt. eigenvalues --    0.11801   0.15415   0.16582   0.17709   0.20045
 Alpha virt. eigenvalues --    0.20149   0.25494   0.32392   0.34147   0.35886

 Mulliken charges:
               1
     1  C   -0.055010
     2  C    0.011285
     3  N   -0.205390
     4  H    0.071603
     5  H    0.090849
     6  H    0.086662
 Sum of Mulliken charges =   0.00000

 Dipole moment (field-independent basis, Debye):
    X=              4.1542    Y=             -0.0034    Z=              0.0303  Tot=              4.1543
 Quadrupole moment (field-independent basis, Debye-Ang):
   XX=            -20.3808   YY=            -17.7913   ZZ=            -18.1171
   XY=              0.0576   XZ=              0.0608   YZ=             -0.0331

 Normal termination of Gaussian 09 at Wed Aug 26 18:41:17 2020.
