 Gaussian 09, Revision D.01,
 Gaussian 09:  ES64L-G09RevD.01 24-Apr-2013

 --------------------
 #p B2PLYPD3/Def2QZVP
 --------------------

 ------------
 cyanomethane
 ------------
 Symbolic Z-matrix:
 Charge =  0 Multiplicity = 1

                         Standard orientation:
 ---------------------------------------------------------------------
 Center     Atomic      Atomic             Coordinates (Angstroms)
 Number     Number       Type             X           Y           Z
 ---------------------------------------------------------------------
      1          6           0        1.177516   -0.011860    0.014113
      2          6           0       -0.271201   -0.000830   -0.030998
      3          7           0       -1.433856    0.001617    0.006102
      4          1           0        1.574684    1.003174   -0.332778
      5          1           0        1.609052   -0.789421   -0.613442
      6          1           0        1.415369   -0.148933    1.004813
 ---------------------------------------------------------------------

 SCF Done:  E(RB2PLYPD3) =  -132.529830551     A.U. after   12 cycles
 E2(B2PLYPD3) =    -0.1812209797D+00 E(B2PLYPD3) =    -0.13271105153037D+03

 The electronic state is 1-A.
 Alpha  occ. eigenvalues --  -14.84363 -10.66998 -10.66423  -1.03774  -0.89644
 Alpha  occ. eigenvalues --   -0.59615  -0.55363  -0.53129  -0.44764  -0.38889
 Alpha  occ. eigenvalues --   -0.38667
 Alpha virt. eigenvalues --    0.03729   0.07353   0.08195   0.10185   0.11292
 Alpha virt. eigenvalues --    0.11513   0.15373   0.15839   0.16494   0.20118
 Alpha virt. eigenvalues --    0.20165   0.25517   0.32255   0.34005   0.35362

 Mulliken charges:
               1
     1  C   -0.089343
     2  C    0.000111
     3  N   -0.211451
     4  H    0.094454
     5  H    0.099384
     6  H    0.106845
 Sum of Mulliken charges =   0.00000

 Dipole moment (field-independent basis, Debye):
    X=              4.1291    Y=             -0.0101    Z=              0.0171  Tot=              4.1292
 Quadrupole moment (field-independent basis, Debye-Ang):
   XX=            -21.0987   YY=            -17.7274   ZZ=            -17.7566
   XY=             -0.0065   XZ=             -0.0670   YZ=              0.0168

 Normal termination of Gaussian 09 at Wed Aug 26 11:31:57 2020.
