 Gaussian 09, Revision D.01,
 Gaussian 09:  ES64L-G09RevD.01 24-Apr-2013

 --------------------
 #p B2PLYPD3/Def2QZVP
 --------------------

 ------------
 cyanomethane
 ------------
 Symbolic Z-matrix:
 Charge =  0 Multiplicity = 1

                         Standard orientation:
 ---------------------------------------------------------------------
 Center     Atomic      Atomic             Coordinates (Angstroms)
 Number     Number       Type             X           Y           Z
 ---------------------------------------------------------------------
      1          6           0       -1.192271    0.003168    0.001847
      2          6           0        0.287778    0.020908    0.005557
      3          7           0        1.436839   -0.007197   -0.006455
      4          1           0       -1.485013   -0.268166    0.956294
      5          1           0       -1.535700   -0.791321   -0.670489
      6          1           0       -1.610204    0.965409   -0.285044
 ---------------------------------------------------------------------

 SCF Done:  E(RB2PLYPD3) =  -132.533461314     A.U. after   12 cycles
 E2(B2PLYPD3) =    -0.1798403191D+00 E(B2PLYPD3) =    -0.13271330163266D+03

 The electronic state is 1-A.
 Alpha  occ. eigenvalues --  -14.84024 -10.66838 -10.66143  -1.04245  -0.89299
 Alpha  occ. eigenvalues --   -0.59250  -0.54845  -0.53729  -0.44692  -0.39379
 Alpha  occ. eigenvalues --   -0.39204
 Alpha virt. eigenvalues --    0.03796   0.08050   0.08683   0.10252   0.11229
 Alpha virt. eigenvalues --    0.11497   0.15261   0.15878   0.16750   0.20016
 Alpha virt. eigenvalues --    0.20113   0.24917   0.32547   0.34543   0.35306

 Mulliken charges:
               1
     1  C   -0.084771
     2  C   -0.004369
     3  N   -0.203924
     4  H    0.099153
     5  H    0.095126
     6  H    0.098785
 Sum of Mulliken charges =   0.00000

 Dipole moment (field-independent basis, Debye):
    X=             -4.1347    Y=             -0.0144    Z=              0.0334  Tot=              4.1349
 Quadrupole moment (field-independent basis, Debye-Ang):
   XX=            -21.0013   YY=            -17.6094   ZZ=            -17.8232
   XY=              0.0298   XZ=              0.0392   YZ=             -0.0386

 Normal termination of Gaussian 09 at Wed Aug 26 16:03:32 2020.
