 Gaussian 09, Revision D.01,
 Gaussian 09:  ES64L-G09RevD.01 24-Apr-2013

 --------------------
 #p B2PLYPD3/Def2QZVP
 --------------------

 ------------
 cyanomethane
 ------------
 Symbolic Z-matrix:
 Charge =  0 Multiplicity = 1

                         Standard orientation:
 ---------------------------------------------------------------------
 Center     Atomic      Atomic             Coordinates (Angstroms)
 Number     Number       Type             X           Y           Z
 ---------------------------------------------------------------------
      1          6           0       -1.180065    0.001497   -0.015682
      2          6           0        0.295319   -0.076683    0.027315
      3          7           0        1.445274    0.041472   -0.020899
      4          1           0       -1.610008    1.104112    0.056032
      5          1           0       -1.496827   -0.491222    0.864481
      6          1           0       -1.701609   -0.452079   -0.844017
 ---------------------------------------------------------------------

 SCF Done:  E(RB2PLYPD3) =  -132.523818448     A.U. after   12 cycles
 E2(B2PLYPD3) =    -0.1813918126D+00 E(B2PLYPD3) =    -0.13270521026034D+03

 The electronic state is 1-A.
 Alpha  occ. eigenvalues --  -14.84592 -10.67755 -10.66713  -1.04192  -0.88466
 Alpha  occ. eigenvalues --   -0.60270  -0.53778  -0.51631  -0.45054  -0.39290
 Alpha  occ. eigenvalues --   -0.39006
 Alpha virt. eigenvalues --    0.03128   0.06914   0.08285   0.09959   0.11278
 Alpha virt. eigenvalues --    0.11580   0.15352   0.15677   0.17874   0.19911
 Alpha virt. eigenvalues --    0.20342   0.25506   0.32239   0.33290   0.35099

 Mulliken charges:
               1
     1  C   -0.082639
     2  C    0.008811
     3  N   -0.203999
     4  H    0.088719
     5  H    0.094145
     6  H    0.094963
 Sum of Mulliken charges =   0.00000

 Dipole moment (field-independent basis, Debye):
    X=             -4.1148    Y=             -0.0946    Z=              0.0575  Tot=              4.1163
 Quadrupole moment (field-independent basis, Debye-Ang):
   XX=            -20.6908   YY=            -17.8694   ZZ=            -17.9619
   XY=             -0.1817   XZ=              0.1859   YZ=              0.0023

 Normal termination of Gaussian 09 at Wed Aug 26 23:55:21 2020.
