 Gaussian 09, Revision D.01,
 Gaussian 09:  ES64L-G09RevD.01 24-Apr-2013

 --------------------
 #p B2PLYPD3/Def2QZVP
 --------------------

 ------------
 cyanomethane
 ------------
 Symbolic Z-matrix:
 Charge =  0 Multiplicity = 1

                         Standard orientation:
 ---------------------------------------------------------------------
 Center     Atomic      Atomic             Coordinates (Angstroms)
 Number     Number       Type             X           Y           Z
 ---------------------------------------------------------------------
      1          6           0        1.174207   -0.001502    0.000733
      2          6           0       -0.282274   -0.015242   -0.007105
      3          7           0       -1.435491    0.011300    0.005788
      4          1           0        1.601648    1.034589   -0.172687
      5          1           0        1.516735   -0.657883   -0.787037
      6          1           0        1.578456   -0.355343    0.957439
 ---------------------------------------------------------------------

 SCF Done:  E(RB2PLYPD3) =  -132.533808803     A.U. after   12 cycles
 E2(B2PLYPD3) =    -0.1806222771D+00 E(B2PLYPD3) =    -0.13271443108057D+03

 The electronic state is 1-A.
 Alpha  occ. eigenvalues --  -14.84229 -10.67535 -10.66296  -1.04193  -0.88890
 Alpha  occ. eigenvalues --   -0.59778  -0.54010  -0.52876  -0.44845  -0.39115
 Alpha  occ. eigenvalues --   -0.39029
 Alpha virt. eigenvalues --    0.03643   0.07362   0.08043   0.10162   0.11438
 Alpha virt. eigenvalues --    0.11607   0.15405   0.16110   0.16795   0.20043
 Alpha virt. eigenvalues --    0.20121   0.25388   0.32587   0.34187   0.34653

 Mulliken charges:
               1
     1  C   -0.085621
     2  C   -0.000054
     3  N   -0.204674
     4  H    0.094814
     5  H    0.098958
     6  H    0.096577
 Sum of Mulliken charges =   0.00000

 Dipole moment (field-independent basis, Debye):
    X=              4.1224    Y=             -0.0300    Z=             -0.0071  Tot=              4.1225
 Quadrupole moment (field-independent basis, Debye-Ang):
   XX=            -20.9621   YY=            -17.7755   ZZ=            -17.8044
   XY=              0.0881   XZ=              0.0734   YZ=              0.0271

 Normal termination of Gaussian 09 at Thu Aug 27 00:10:25 2020.
