 Gaussian 09, Revision D.01,
 Gaussian 09:  ES64L-G09RevD.01 24-Apr-2013

 --------------------
 #p B2PLYPD3/Def2QZVP
 --------------------

 ------------
 cyanomethane
 ------------
 Symbolic Z-matrix:
 Charge =  0 Multiplicity = 1

                         Standard orientation:
 ---------------------------------------------------------------------
 Center     Atomic      Atomic             Coordinates (Angstroms)
 Number     Number       Type             X           Y           Z
 ---------------------------------------------------------------------
      1          6           0        1.191672    0.005413    0.001686
      2          6           0       -0.285589    0.010994   -0.038651
      3          7           0       -1.435340   -0.002748    0.023852
      4          1           0        1.581836   -0.197093    0.949079
      5          1           0        1.565037    0.907667   -0.304134
      6          1           0        1.464014   -0.789774   -0.590121
 ---------------------------------------------------------------------

 SCF Done:  E(RB2PLYPD3) =  -132.527824118     A.U. after   12 cycles
 E2(B2PLYPD3) =    -0.1796308780D+00 E(B2PLYPD3) =    -0.13270745499640D+03

 The electronic state is 1-A.
 Alpha  occ. eigenvalues --  -14.84108 -10.66192 -10.65516  -1.04203  -0.90311
 Alpha  occ. eigenvalues --   -0.60096  -0.56217  -0.53965  -0.44737  -0.39440
 Alpha  occ. eigenvalues --   -0.39205
 Alpha virt. eigenvalues --    0.03945   0.08303   0.09101   0.10210   0.11047
 Alpha virt. eigenvalues --    0.11500   0.15409   0.15933   0.16916   0.20018
 Alpha virt. eigenvalues --    0.20152   0.25050   0.32948   0.35112   0.35970

 Mulliken charges:
               1
     1  C   -0.066088
     2  C   -0.002399
     3  N   -0.205678
     4  H    0.086142
     5  H    0.094040
     6  H    0.093983
 Sum of Mulliken charges =   0.00000

 Dipole moment (field-independent basis, Debye):
    X=              4.1442    Y=             -0.0173    Z=             -0.0197  Tot=              4.1442
 Quadrupole moment (field-independent basis, Debye-Ang):
   XX=            -20.8129   YY=            -17.5517   ZZ=            -17.8355
   XY=             -0.0014   XZ=              0.2351   YZ=              0.0090

 Normal termination of Gaussian 09 at Wed Aug 26 14:39:00 2020.
