 Gaussian 09, Revision D.01,
 Gaussian 09:  ES64L-G09RevD.01 24-Apr-2013

 --------------------
 #p B2PLYPD3/Def2QZVP
 --------------------

 ------------
 cyanomethane
 ------------
 Symbolic Z-matrix:
 Charge =  0 Multiplicity = 1

                         Standard orientation:
 ---------------------------------------------------------------------
 Center     Atomic      Atomic             Coordinates (Angstroms)
 Number     Number       Type             X           Y           Z
 ---------------------------------------------------------------------
      1          6           0        1.174732    0.007429   -0.010083
      2          6           0       -0.280455   -0.011013    0.002595
      3          7           0       -1.433204    0.003332    0.000117
      4          1           0        1.533676    1.048845    0.030541
      5          1           0        1.561692   -0.511501   -0.871316
      6          1           0        1.571402   -0.539163    0.884878
 ---------------------------------------------------------------------

 SCF Done:  E(RB2PLYPD3) =  -132.534684999     A.U. after   11 cycles
 E2(B2PLYPD3) =    -0.1804714100D+00 E(B2PLYPD3) =    -0.13271515640856D+03

 The electronic state is 1-A.
 Alpha  occ. eigenvalues --  -14.84156 -10.67422 -10.66215  -1.04195  -0.89006
 Alpha  occ. eigenvalues --   -0.59697  -0.54296  -0.52974  -0.44797  -0.39171
 Alpha  occ. eigenvalues --   -0.38964
 Alpha virt. eigenvalues --    0.03698   0.07632   0.07946   0.10174   0.11407
 Alpha virt. eigenvalues --    0.11646   0.15382   0.16186   0.16577   0.20047
 Alpha virt. eigenvalues --    0.20111   0.25394   0.32640   0.34047   0.34873

 Mulliken charges:
               1
     1  C   -0.086645
     2  C   -0.000888
     3  N   -0.204912
     4  H    0.100423
     5  H    0.098985
     6  H    0.093038
 Sum of Mulliken charges =   0.00000

 Dipole moment (field-independent basis, Debye):
    X=              4.1210    Y=             -0.0182    Z=              0.0010  Tot=              4.1210
 Quadrupole moment (field-independent basis, Debye-Ang):
   XX=            -21.0162   YY=            -17.6707   ZZ=            -17.8526
   XY=             -0.0469   XZ=              0.0142   YZ=              0.0432

 Normal termination of Gaussian 09 at Wed Aug 26 13:35:30 2020.
