 Gaussian 09, Revision D.01,
 Gaussian 09:  ES64L-G09RevD.01 24-Apr-2013

 --------------------
 #p B2PLYPD3/Def2QZVP
 --------------------

 ------------
 cyanomethane
 ------------
 Symbolic Z-matrix:
 Charge =  0 Multiplicity = 1

                         Standard orientation:
 ---------------------------------------------------------------------
 Center     Atomic      Atomic             Coordinates (Angstroms)
 Number     Number       Type             X           Y           Z
 ---------------------------------------------------------------------
      1          6           0       -1.177320    0.011146    0.004256
      2          6           0        0.290631   -0.095556    0.022619
      3          7           0        1.412648    0.046150   -0.009869
      4          1           0       -1.473775    1.053504   -0.121917
      5          1           0       -1.573287   -0.345171    0.889717
      6          1           0       -1.521344   -0.524921   -0.859970
 ---------------------------------------------------------------------

 SCF Done:  E(RB2PLYPD3) =  -132.532185000     A.U. after   12 cycles
 E2(B2PLYPD3) =    -0.1783983414D+00 E(B2PLYPD3) =    -0.13271058334131D+03

 The electronic state is 1-A.
 Alpha  occ. eigenvalues --  -14.83511 -10.66400 -10.65455  -1.05039  -0.89390
 Alpha  occ. eigenvalues --   -0.59216  -0.55349  -0.53495  -0.44670  -0.39851
 Alpha  occ. eigenvalues --   -0.39532
 Alpha virt. eigenvalues --    0.03649   0.08194   0.09184   0.10178   0.11365
 Alpha virt. eigenvalues --    0.11751   0.15506   0.16013   0.16648   0.19889
 Alpha virt. eigenvalues --    0.19973   0.25768   0.33322   0.34400   0.35532

 Mulliken charges:
               1
     1  C   -0.085267
     2  C   -0.006246
     3  N   -0.193914
     4  H    0.094858
     5  H    0.096331
     6  H    0.094239
 Sum of Mulliken charges =   0.00000

 Dipole moment (field-independent basis, Debye):
    X=             -4.0492    Y=             -0.0585    Z=              0.0098  Tot=              4.0496
 Quadrupole moment (field-independent basis, Debye-Ang):
   XX=            -21.0064   YY=            -17.6839   ZZ=            -17.5525
   XY=             -0.2554   XZ=              0.0259   YZ=             -0.0013

 Normal termination of Gaussian 09 at Wed Aug 26 18:35:15 2020.
