 Gaussian 09, Revision D.01,
 Gaussian 09:  ES64L-G09RevD.01 24-Apr-2013

 --------------------
 #p B2PLYPD3/Def2QZVP
 --------------------

 ------------
 cyanomethane
 ------------
 Symbolic Z-matrix:
 Charge =  0 Multiplicity = 1

                         Standard orientation:
 ---------------------------------------------------------------------
 Center     Atomic      Atomic             Coordinates (Angstroms)
 Number     Number       Type             X           Y           Z
 ---------------------------------------------------------------------
      1          6           0       -1.175811   -0.004552    0.019735
      2          6           0        0.280790   -0.006091   -0.036121
      3          7           0        1.421983    0.002414    0.016666
      4          1           0       -1.524207   -0.011589    0.983004
      5          1           0       -1.544404   -0.860022   -0.522963
      6          1           0       -1.515146    0.918568   -0.478386
 ---------------------------------------------------------------------

 SCF Done:  E(RB2PLYPD3) =  -132.533273579     A.U. after   11 cycles
 E2(B2PLYPD3) =    -0.1791910331D+00 E(B2PLYPD3) =    -0.13271246461196D+03

 The electronic state is 1-A.
 Alpha  occ. eigenvalues --  -14.83772 -10.66421 -10.65783  -1.04571  -0.89729
 Alpha  occ. eigenvalues --   -0.59815  -0.54974  -0.53889  -0.44683  -0.39459
 Alpha  occ. eigenvalues --   -0.39250
 Alpha virt. eigenvalues --    0.03871   0.08333   0.08479   0.10156   0.11475
 Alpha virt. eigenvalues --    0.11647   0.15506   0.15927   0.16708   0.20027
 Alpha virt. eigenvalues --    0.20070   0.25463   0.32938   0.34329   0.35488

 Mulliken charges:
               1
     1  C   -0.083074
     2  C   -0.004107
     3  N   -0.201156
     4  H    0.099371
     5  H    0.095538
     6  H    0.093429
 Sum of Mulliken charges =   0.00000

 Dipole moment (field-independent basis, Debye):
    X=             -4.0978    Y=             -0.0008    Z=             -0.0170  Tot=              4.0978
 Quadrupole moment (field-independent basis, Debye-Ang):
   XX=            -21.0314   YY=            -17.6324   ZZ=            -17.6750
   XY=              0.0007   XZ=             -0.1083   YZ=              0.0176

 Normal termination of Gaussian 09 at Wed Aug 26 12:44:46 2020.
