 Gaussian 09, Revision D.01,
 Gaussian 09:  ES64L-G09RevD.01 24-Apr-2013

 --------------------
 #p B2PLYPD3/Def2QZVP
 --------------------

 ------------
 cyanomethane
 ------------
 Symbolic Z-matrix:
 Charge =  0 Multiplicity = 1

                         Standard orientation:
 ---------------------------------------------------------------------
 Center     Atomic      Atomic             Coordinates (Angstroms)
 Number     Number       Type             X           Y           Z
 ---------------------------------------------------------------------
      1          6           0        1.174209   -0.017705    0.008829
      2          6           0       -0.268877    0.044378    0.004727
      3          7           0       -1.429743   -0.022660   -0.006184
      4          1           0        1.512287    1.035523   -0.143943
      5          1           0        1.566471   -0.633089   -0.831106
      6          1           0        1.497454   -0.403851    0.937003
 ---------------------------------------------------------------------

 SCF Done:  E(RB2PLYPD3) =  -132.531778617     A.U. after   12 cycles
 E2(B2PLYPD3) =    -0.1813271223D+00 E(B2PLYPD3) =    -0.13271310573970D+03

 The electronic state is 1-A.
 Alpha  occ. eigenvalues --  -14.84330 -10.67204 -10.66341  -1.03785  -0.89465
 Alpha  occ. eigenvalues --   -0.59508  -0.54910  -0.53311  -0.44754  -0.38844
 Alpha  occ. eigenvalues --   -0.38591
 Alpha virt. eigenvalues --    0.03673   0.07391   0.08026   0.10057   0.11325
 Alpha virt. eigenvalues --    0.11525   0.15446   0.15544   0.16655   0.20112
 Alpha virt. eigenvalues --    0.20174   0.25691   0.32633   0.33869   0.34986

 Mulliken charges:
               1
     1  C   -0.093546
     2  C    0.001064
     3  N   -0.211184
     4  H    0.097930
     5  H    0.099960
     6  H    0.105775
 Sum of Mulliken charges =   0.00000

 Dipole moment (field-independent basis, Debye):
    X=              4.1097    Y=              0.0295    Z=              0.0093  Tot=              4.1098
 Quadrupole moment (field-independent basis, Debye-Ang):
   XX=            -21.1981   YY=            -17.7315   ZZ=            -17.7108
   XY=             -0.1469   XZ=             -0.0838   YZ=             -0.0411

 Normal termination of Gaussian 09 at Wed Aug 26 13:52:36 2020.
