 Gaussian 09, Revision D.01,
 Gaussian 09:  ES64L-G09RevD.01 24-Apr-2013

 --------------------
 #p B2PLYPD3/Def2QZVP
 --------------------

 ------------
 cyanomethane
 ------------
 Symbolic Z-matrix:
 Charge =  0 Multiplicity = 1

                         Standard orientation:
 ---------------------------------------------------------------------
 Center     Atomic      Atomic             Coordinates (Angstroms)
 Number     Number       Type             X           Y           Z
 ---------------------------------------------------------------------
      1          6           0       -1.192045   -0.002111    0.009147
      2          6           0        0.274561   -0.032079   -0.009292
      3          7           0        1.439294    0.016105   -0.003175
      4          1           0       -1.435366   -0.343555    0.937293
      5          1           0       -1.607266   -0.605569   -0.772789
      6          1           0       -1.527522    1.041527   -0.141408
 ---------------------------------------------------------------------

 SCF Done:  E(RB2PLYPD3) =  -132.529823857     A.U. after   12 cycles
 E2(B2PLYPD3) =    -0.1811865310D+00 E(B2PLYPD3) =    -0.13271101038851D+03

 The electronic state is 1-A.
 Alpha  occ. eigenvalues --  -14.84414 -10.66573 -10.66500  -1.03608  -0.89841
 Alpha  occ. eigenvalues --   -0.59325  -0.55861  -0.53715  -0.44702  -0.38903
 Alpha  occ. eigenvalues --   -0.38735
 Alpha virt. eigenvalues --    0.03776   0.07695   0.08619   0.10214   0.11070
 Alpha virt. eigenvalues --    0.11334   0.15244   0.15737   0.16404   0.20126
 Alpha virt. eigenvalues --    0.20177   0.25171   0.32537   0.34293   0.35513

 Mulliken charges:
               1
     1  C   -0.086200
     2  C   -0.002037
     3  N   -0.212955
     4  H    0.105763
     5  H    0.097549
     6  H    0.097880
 Sum of Mulliken charges =   0.00000

 Dipole moment (field-independent basis, Debye):
    X=             -4.1456    Y=             -0.0224    Z=              0.0115  Tot=              4.1456
 Quadrupole moment (field-independent basis, Debye-Ang):
   XX=            -21.0975   YY=            -17.7368   ZZ=            -17.7085
   XY=             -0.0692   XZ=              0.1304   YZ=             -0.0305

 Normal termination of Gaussian 09 at Wed Aug 26 12:28:08 2020.
