 Gaussian 09, Revision D.01,
 Gaussian 09:  ES64L-G09RevD.01 24-Apr-2013

 --------------------
 #p B2PLYPD3/Def2QZVP
 --------------------

 ------------
 cyanomethane
 ------------
 Symbolic Z-matrix:
 Charge =  0 Multiplicity = 1

                         Standard orientation:
 ---------------------------------------------------------------------
 Center     Atomic      Atomic             Coordinates (Angstroms)
 Number     Number       Type             X           Y           Z
 ---------------------------------------------------------------------
      1          6           0       -1.175554    0.001112   -0.009945
      2          6           0        0.282238    0.004332    0.038498
      3          7           0        1.441340   -0.000999   -0.019562
      4          1           0       -1.568510   -0.160639    0.984400
      5          1           0       -1.564512   -0.810918   -0.637928
      6          1           0       -1.596463    0.945885   -0.380856
 ---------------------------------------------------------------------

 SCF Done:  E(RB2PLYPD3) =  -132.534138062     A.U. after   11 cycles
 E2(B2PLYPD3) =    -0.1811259418D+00 E(B2PLYPD3) =    -0.13271526400418D+03

 The electronic state is 1-A.
 Alpha  occ. eigenvalues --  -14.84496 -10.67221 -10.66572  -1.03954  -0.89051
 Alpha  occ. eigenvalues --   -0.60233  -0.53606  -0.53433  -0.44934  -0.39010
 Alpha  occ. eigenvalues --   -0.38952
 Alpha virt. eigenvalues --    0.03677   0.07427   0.07855   0.10124   0.11373
 Alpha virt. eigenvalues --    0.11469   0.15447   0.16104   0.16990   0.20060
 Alpha virt. eigenvalues --    0.20145   0.25449   0.32676   0.34526   0.34714

 Mulliken charges:
               1
     1  C   -0.075762
     2  C    0.002357
     3  N   -0.207789
     4  H    0.092278
     5  H    0.094490
     6  H    0.094426
 Sum of Mulliken charges =   0.00000

 Dipole moment (field-independent basis, Debye):
    X=             -4.1400    Y=             -0.0064    Z=              0.0372  Tot=              4.1402
 Quadrupole moment (field-independent basis, Debye-Ang):
   XX=            -20.8326   YY=            -17.8001   ZZ=            -17.8680
   XY=              0.0006   XZ=              0.0897   YZ=             -0.0041

 Normal termination of Gaussian 09 at Wed Aug 26 15:00:11 2020.
