 Gaussian 09, Revision D.01,
 Gaussian 09:  ES64L-G09RevD.01 24-Apr-2013

 --------------------
 #p B2PLYPD3/Def2QZVP
 --------------------

 ------------
 cyanomethane
 ------------
 Symbolic Z-matrix:
 Charge =  0 Multiplicity = 1

                         Standard orientation:
 ---------------------------------------------------------------------
 Center     Atomic      Atomic             Coordinates (Angstroms)
 Number     Number       Type             X           Y           Z
 ---------------------------------------------------------------------
      1          6           0        1.182167   -0.000518   -0.005993
      2          6           0       -0.274979    0.011731    0.003053
      3          7           0       -1.437779   -0.002474   -0.002139
      4          1           0        1.519731   -0.106950    0.999530
      5          1           0        1.592609    0.892867   -0.405842
      6          1           0        1.508980   -0.835878   -0.561077
 ---------------------------------------------------------------------

 SCF Done:  E(RB2PLYPD3) =  -132.533753659     A.U. after   11 cycles
 E2(B2PLYPD3) =    -0.1808271437D+00 E(B2PLYPD3) =    -0.13271458080236D+03

 The electronic state is 1-A.
 Alpha  occ. eigenvalues --  -14.84394 -10.66473 -10.66274  -1.03774  -0.89942
 Alpha  occ. eigenvalues --   -0.60067  -0.54894  -0.54386  -0.44790  -0.38964
 Alpha  occ. eigenvalues --   -0.38858
 Alpha virt. eigenvalues --    0.03889   0.08027   0.08197   0.10193   0.11245
 Alpha virt. eigenvalues --    0.11361   0.15434   0.16008   0.16576   0.20126
 Alpha virt. eigenvalues --    0.20160   0.25332   0.32802   0.34834   0.35302

 Mulliken charges:
               1
     1  C   -0.073598
     2  C   -0.000887
     3  N   -0.211215
     4  H    0.093917
     5  H    0.094947
     6  H    0.096835
 Sum of Mulliken charges =   0.00000

 Dipole moment (field-independent basis, Debye):
    X=              4.1539    Y=             -0.0056    Z=              0.0129  Tot=              4.1539
 Quadrupole moment (field-independent basis, Debye-Ang):
   XX=            -20.9308   YY=            -17.7104   ZZ=            -17.7752
   XY=              0.0297   XZ=             -0.0063   YZ=              0.0081

 Normal termination of Gaussian 09 at Wed Aug 26 13:16:15 2020.
