 Gaussian 09, Revision D.01,
 Gaussian 09:  ES64L-G09RevD.01 24-Apr-2013

 --------------------
 #p B2PLYPD3/Def2QZVP
 --------------------

 ------------
 cyanomethane
 ------------
 Symbolic Z-matrix:
 Charge =  0 Multiplicity = 1

                         Standard orientation:
 ---------------------------------------------------------------------
 Center     Atomic      Atomic             Coordinates (Angstroms)
 Number     Number       Type             X           Y           Z
 ---------------------------------------------------------------------
      1          6           0        1.173095   -0.012075    0.005078
      2          6           0       -0.285487   -0.007942    0.007966
      3          7           0       -1.433496    0.013271   -0.005797
      4          1           0        1.669992    1.005233   -0.361895
      5          1           0        1.500542   -0.802958   -0.671832
      6          1           0        1.538287   -0.175070    0.996048
 ---------------------------------------------------------------------

 SCF Done:  E(RB2PLYPD3) =  -132.529162621     A.U. after   12 cycles
 E2(B2PLYPD3) =    -0.1803875071D+00 E(B2PLYPD3) =    -0.13270955012801D+03

 The electronic state is 1-A.
 Alpha  occ. eigenvalues --  -14.84099 -10.67882 -10.66165  -1.04419  -0.88679
 Alpha  occ. eigenvalues --   -0.59547  -0.54525  -0.51829  -0.44833  -0.39327
 Alpha  occ. eigenvalues --   -0.39022
 Alpha virt. eigenvalues --    0.03465   0.07014   0.08298   0.10193   0.11427
 Alpha virt. eigenvalues --    0.11787   0.15359   0.16079   0.16885   0.20001
 Alpha virt. eigenvalues --    0.20117   0.25332   0.31956   0.33799   0.34886

 Mulliken charges:
               1
     1  C   -0.091393
     2  C   -0.000508
     3  N   -0.201460
     4  H    0.090358
     5  H    0.101692
     6  H    0.101310
 Sum of Mulliken charges =   0.00000

 Dipole moment (field-independent basis, Debye):
    X=              4.1049    Y=             -0.0469    Z=              0.0265  Tot=              4.1053
 Quadrupole moment (field-independent basis, Debye-Ang):
   XX=            -20.9924   YY=            -17.7994   ZZ=            -17.7820
   XY=              0.1553   XZ=             -0.0102   YZ=              0.0617

 Normal termination of Gaussian 09 at Wed Aug 26 12:55:08 2020.
