 Gaussian 09, Revision D.01,
 Gaussian 09:  ES64L-G09RevD.01 24-Apr-2013

 --------------------
 #p B2PLYPD3/Def2QZVP
 --------------------

 ------------
 cyanomethane
 ------------
 Symbolic Z-matrix:
 Charge =  0 Multiplicity = 1

                         Standard orientation:
 ---------------------------------------------------------------------
 Center     Atomic      Atomic             Coordinates (Angstroms)
 Number     Number       Type             X           Y           Z
 ---------------------------------------------------------------------
      1          6           0       -1.167099    0.003094   -0.002938
      2          6           0        0.281362    0.039184   -0.000003
      3          7           0        1.423128   -0.017428    0.002723
      4          1           0       -1.577747   -0.157007    0.969293
      5          1           0       -1.490045   -0.876546   -0.578061
      6          1           0       -1.579681    0.901877   -0.392652
 ---------------------------------------------------------------------

 SCF Done:  E(RB2PLYPD3) =  -132.534886382     A.U. after   11 cycles
 E2(B2PLYPD3) =    -0.1793832682D+00 E(B2PLYPD3) =    -0.13271426964979D+03

 The electronic state is 1-A.
 Alpha  occ. eigenvalues --  -14.83868 -10.66566 -10.65878  -1.04608  -0.89588
 Alpha  occ. eigenvalues --   -0.60250  -0.54854  -0.53243  -0.44779  -0.39459
 Alpha  occ. eigenvalues --   -0.39190
 Alpha virt. eigenvalues --    0.03800   0.08014   0.08368   0.10190   0.11414
 Alpha virt. eigenvalues --    0.11833   0.15521   0.16444   0.16650   0.19948
 Alpha virt. eigenvalues --    0.20125   0.25590   0.33122   0.34336   0.35322

 Mulliken charges:
               1
     1  C   -0.076169
     2  C   -0.001923
     3  N   -0.200708
     4  H    0.089836
     5  H    0.093315
     6  H    0.095649
 Sum of Mulliken charges =   0.00000

 Dipole moment (field-independent basis, Debye):
    X=             -4.1106    Y=              0.0067    Z=              0.0182  Tot=              4.1106
 Quadrupole moment (field-independent basis, Debye-Ang):
   XX=            -20.8777   YY=            -17.5694   ZZ=            -17.8573
   XY=              0.0871   XZ=             -0.1097   YZ=             -0.0324

 Normal termination of Gaussian 09 at Wed Aug 26 10:37:17 2020.
