 Gaussian 09, Revision D.01,
 Gaussian 09:  ES64L-G09RevD.01 24-Apr-2013

 --------------------
 #p B2PLYPD3/Def2QZVP
 --------------------

 ------------
 cyanomethane
 ------------
 Symbolic Z-matrix:
 Charge =  0 Multiplicity = 1

                         Standard orientation:
 ---------------------------------------------------------------------
 Center     Atomic      Atomic             Coordinates (Angstroms)
 Number     Number       Type             X           Y           Z
 ---------------------------------------------------------------------
      1          6           0        1.185678   -0.005849    0.001547
      2          6           0       -0.284183    0.009408   -0.007313
      3          7           0       -1.434798   -0.000407    0.001565
      4          1           0        1.525921   -0.763053   -0.690257
      5          1           0        1.504805   -0.239519    1.004228
      6          1           0        1.603893    0.984074   -0.290324
 ---------------------------------------------------------------------

 SCF Done:  E(RB2PLYPD3) =  -132.535285443     A.U. after   12 cycles
 E2(B2PLYPD3) =    -0.1801357293D+00 E(B2PLYPD3) =    -0.13271542117261D+03

 The electronic state is 1-A.
 Alpha  occ. eigenvalues --  -14.84052 -10.67295 -10.66147  -1.04215  -0.89008
 Alpha  occ. eigenvalues --   -0.59202  -0.54387  -0.53513  -0.44711  -0.39209
 Alpha  occ. eigenvalues --   -0.39153
 Alpha virt. eigenvalues --    0.03747   0.07867   0.08292   0.10223   0.11405
 Alpha virt. eigenvalues --    0.11479   0.15278   0.16085   0.16450   0.20062
 Alpha virt. eigenvalues --    0.20079   0.25105   0.32539   0.34520   0.34773

 Mulliken charges:
               1
     1  C   -0.089885
     2  C   -0.003470
     3  N   -0.204235
     4  H    0.100620
     5  H    0.100572
     6  H    0.096397
 Sum of Mulliken charges =   0.00000

 Dipole moment (field-independent basis, Debye):
    X=              4.1231    Y=             -0.0089    Z=              0.0058  Tot=              4.1232
 Quadrupole moment (field-independent basis, Debye-Ang):
   XX=            -21.0755   YY=            -17.7271   ZZ=            -17.7286
   XY=              0.0462   XZ=             -0.0100   YZ=              0.0182

 Normal termination of Gaussian 09 at Wed Aug 26 09:43:49 2020.
