 Gaussian 09, Revision D.01,
 Gaussian 09:  ES64L-G09RevD.01 24-Apr-2013

 --------------------
 #p B2PLYPD3/Def2QZVP
 --------------------

 ------------
 cyanomethane
 ------------
 Symbolic Z-matrix:
 Charge =  0 Multiplicity = 1

                         Standard orientation:
 ---------------------------------------------------------------------
 Center     Atomic      Atomic             Coordinates (Angstroms)
 Number     Number       Type             X           Y           Z
 ---------------------------------------------------------------------
      1          6           0        1.178510   -0.016752   -0.009263
      2          6           0       -0.292161    0.015449   -0.038219
      3          7           0       -1.439833   -0.002568    0.029637
      4          1           0        1.461917   -0.633214   -0.723375
      5          1           0        1.680721   -0.335031    0.941214
      6          1           0        1.618100    0.994040   -0.140408
 ---------------------------------------------------------------------

 SCF Done:  E(RB2PLYPD3) =  -132.523192297     A.U. after   12 cycles
 E2(B2PLYPD3) =    -0.1801460749D+00 E(B2PLYPD3) =    -0.13270333837166D+03

 The electronic state is 1-A.
 Alpha  occ. eigenvalues --  -14.84272 -10.66620 -10.66360  -1.04420  -0.89489
 Alpha  occ. eigenvalues --   -0.60434  -0.55879  -0.51627  -0.44943  -0.39576
 Alpha  occ. eigenvalues --   -0.39115
 Alpha virt. eigenvalues --    0.03618   0.07162   0.08921   0.10178   0.11084
 Alpha virt. eigenvalues --    0.11782   0.15440   0.16250   0.17355   0.19919
 Alpha virt. eigenvalues --    0.20256   0.25232   0.32539   0.33991   0.35684

 Mulliken charges:
               1
     1  C   -0.072222
     2  C    0.001996
     3  N   -0.202414
     4  H    0.101974
     5  H    0.084488
     6  H    0.086177
 Sum of Mulliken charges =   0.00000

 Dipole moment (field-independent basis, Debye):
    X=              4.1349    Y=              0.0024    Z=             -0.0451  Tot=              4.1351
 Quadrupole moment (field-independent basis, Debye-Ang):
   XX=            -20.6312   YY=            -17.7896   ZZ=            -17.8753
   XY=              0.0510   XZ=              0.3156   YZ=              0.1417

 Normal termination of Gaussian 09 at Wed Aug 26 19:02:10 2020.
