 Gaussian 09, Revision D.01,
 Gaussian 09:  ES64L-G09RevD.01 24-Apr-2013

 --------------------
 #p B2PLYPD3/Def2QZVP
 --------------------

 ------------
 cyanomethane
 ------------
 Symbolic Z-matrix:
 Charge =  0 Multiplicity = 1

                         Standard orientation:
 ---------------------------------------------------------------------
 Center     Atomic      Atomic             Coordinates (Angstroms)
 Number     Number       Type             X           Y           Z
 ---------------------------------------------------------------------
      1          6           0        1.167694   -0.004380   -0.000638
      2          6           0       -0.278633   -0.014171    0.003291
      3          7           0       -1.430755    0.011781   -0.002710
      4          1           0        1.613696    0.944083   -0.412981
      5          1           0        1.526552   -0.822784   -0.587195
      6          1           0        1.540677   -0.092461    1.003222
 ---------------------------------------------------------------------

 SCF Done:  E(RB2PLYPD3) =  -132.534180628     A.U. after   12 cycles
 E2(B2PLYPD3) =    -0.1803341978D+00 E(B2PLYPD3) =    -0.13271451482592D+03

 The electronic state is 1-A.
 Alpha  occ. eigenvalues --  -14.84174 -10.66979 -10.66197  -1.04262  -0.89388
 Alpha  occ. eigenvalues --   -0.60180  -0.54550  -0.53018  -0.44850  -0.39162
 Alpha  occ. eigenvalues --   -0.39010
 Alpha virt. eigenvalues --    0.03725   0.07471   0.08208   0.10157   0.11440
 Alpha virt. eigenvalues --    0.11667   0.15525   0.16188   0.16810   0.20046
 Alpha virt. eigenvalues --    0.20133   0.25569   0.32815   0.34342   0.34981

 Mulliken charges:
               1
     1  C   -0.078300
     2  C   -0.000444
     3  N   -0.204793
     4  H    0.091372
     5  H    0.097166
     6  H    0.094999
 Sum of Mulliken charges =   0.00000

 Dipole moment (field-independent basis, Debye):
    X=              4.1242    Y=             -0.0264    Z=              0.0159  Tot=              4.1243
 Quadrupole moment (field-independent basis, Debye-Ang):
   XX=            -20.8925   YY=            -17.7553   ZZ=            -17.7817
   XY=              0.1148   XZ=             -0.0053   YZ=              0.0460

 Normal termination of Gaussian 09 at Thu Aug 27 00:12:00 2020.
