 Gaussian 09, Revision D.01,
 Gaussian 09:  ES64L-G09RevD.01 24-Apr-2013

 --------------------
 #p B2PLYPD3/Def2QZVP
 --------------------

 ------------
 cyanomethane
 ------------
 Symbolic Z-matrix:
 Charge =  0 Multiplicity = 1

                         Standard orientation:
 ---------------------------------------------------------------------
 Center     Atomic      Atomic             Coordinates (Angstroms)
 Number     Number       Type             X           Y           Z
 ---------------------------------------------------------------------
      1          6           0        1.141191   -0.003024   -0.035841
      2          6           0       -0.278678   -0.049312   -0.001193
      3          7           0       -1.423513    0.023730    0.011909
      4          1           0        1.689112    0.001688    1.072443
      5          1           0        1.519930    0.978504   -0.431753
      6          1           0        1.580469   -0.832284   -0.501849
 ---------------------------------------------------------------------

 SCF Done:  E(RB2PLYPD3) =  -132.519671956     A.U. after   11 cycles
 E2(B2PLYPD3) =    -0.1808723011D+00 E(B2PLYPD3) =    -0.13270054425749D+03

 The electronic state is 1-A.
 Alpha  occ. eigenvalues --  -14.84214 -10.67971 -10.66128  -1.04680  -0.88952
 Alpha  occ. eigenvalues --   -0.60891  -0.54921  -0.50299  -0.45051  -0.39431
 Alpha  occ. eigenvalues --   -0.38510
 Alpha virt. eigenvalues --    0.03179   0.06054   0.07986   0.10060   0.11415
 Alpha virt. eigenvalues --    0.12396   0.15594   0.16718   0.17097   0.19874
 Alpha virt. eigenvalues --    0.20202   0.26087   0.31224   0.33689   0.35089

 Mulliken charges:
               1
     1  C   -0.082385
     2  C    0.005675
     3  N   -0.199586
     4  H    0.076493
     5  H    0.098169
     6  H    0.101633
 Sum of Mulliken charges =   0.00000

 Dipole moment (field-independent basis, Debye):
    X=              4.0800    Y=             -0.0243    Z=             -0.0384  Tot=              4.0803
 Quadrupole moment (field-independent basis, Debye-Ang):
   XX=            -20.7682   YY=            -17.6567   ZZ=            -18.1005
   XY=              0.1187   XZ=              0.1605   YZ=              0.0628

 Normal termination of Gaussian 09 at Wed Aug 26 16:24:13 2020.
