 Gaussian 09, Revision D.01,
 Gaussian 09:  ES64L-G09RevD.01 24-Apr-2013

 --------------------
 #p B2PLYPD3/Def2QZVP
 --------------------

 ------------
 cyanomethane
 ------------
 Symbolic Z-matrix:
 Charge =  0 Multiplicity = 1

                         Standard orientation:
 ---------------------------------------------------------------------
 Center     Atomic      Atomic             Coordinates (Angstroms)
 Number     Number       Type             X           Y           Z
 ---------------------------------------------------------------------
      1          6           0        1.168986   -0.009209    0.008118
      2          6           0       -0.269952   -0.000066   -0.017181
      3          7           0       -1.432765    0.003258    0.005839
      4          1           0        1.584509    0.966223   -0.357573
      5          1           0        1.541146   -0.786967   -0.624664
      6          1           0        1.509495   -0.146409    0.995745
 ---------------------------------------------------------------------

 SCF Done:  E(RB2PLYPD3) =  -132.533229858     A.U. after   11 cycles
 E2(B2PLYPD3) =    -0.1811099813D+00 E(B2PLYPD3) =    -0.13271433983935D+03

 The electronic state is 1-A.
 Alpha  occ. eigenvalues --  -14.84404 -10.66714 -10.66415  -1.03827  -0.89781
 Alpha  occ. eigenvalues --   -0.60240  -0.54969  -0.53435  -0.44839  -0.38879
 Alpha  occ. eigenvalues --   -0.38702
 Alpha virt. eigenvalues --    0.03786   0.07479   0.08014   0.10135   0.11337
 Alpha virt. eigenvalues --    0.11544   0.15537   0.16277   0.16352   0.20118
 Alpha virt. eigenvalues --    0.20170   0.25677   0.32716   0.34340   0.35169

 Mulliken charges:
               1
     1  C   -0.078026
     2  C    0.000539
     3  N   -0.210837
     4  H    0.091905
     5  H    0.097494
     6  H    0.098925
 Sum of Mulliken charges =   0.00000

 Dipole moment (field-independent basis, Debye):
    X=              4.1376    Y=             -0.0111    Z=              0.0029  Tot=              4.1376
 Quadrupole moment (field-independent basis, Debye-Ang):
   XX=            -20.9684   YY=            -17.7634   ZZ=            -17.7535
   XY=              0.0450   XZ=              0.0147   YZ=              0.0311

 Normal termination of Gaussian 09 at Thu Aug 27 00:00:15 2020.
