 Gaussian 09, Revision D.01,
 Gaussian 09:  ES64L-G09RevD.01 24-Apr-2013

 --------------------
 #p B2PLYPD3/Def2QZVP
 --------------------

 ------------
 cyanomethane
 ------------
 Symbolic Z-matrix:
 Charge =  0 Multiplicity = 1

                         Standard orientation:
 ---------------------------------------------------------------------
 Center     Atomic      Atomic             Coordinates (Angstroms)
 Number     Number       Type             X           Y           Z
 ---------------------------------------------------------------------
      1          6           0       -1.187887    0.003892   -0.005772
      2          6           0        0.277530    0.002746    0.017732
      3          7           0        1.437551   -0.004854   -0.006473
      4          1           0       -1.486452    0.992667   -0.253447
      5          1           0       -1.574062   -0.284898    0.963816
      6          1           0       -1.540203   -0.713615   -0.736813
 ---------------------------------------------------------------------

 SCF Done:  E(RB2PLYPD3) =  -132.534570045     A.U. after   12 cycles
 E2(B2PLYPD3) =    -0.1807816755D+00 E(B2PLYPD3) =    -0.13271535172058D+03

 The electronic state is 1-A.
 Alpha  occ. eigenvalues --  -14.84285 -10.66855 -10.66373  -1.03825  -0.89478
 Alpha  occ. eigenvalues --   -0.59373  -0.54937  -0.53908  -0.44717  -0.38979
 Alpha  occ. eigenvalues --   -0.38908
 Alpha virt. eigenvalues --    0.03806   0.07903   0.08280   0.10201   0.11237
 Alpha virt. eigenvalues --    0.11371   0.15285   0.16024   0.16290   0.20106
 Alpha virt. eigenvalues --    0.20140   0.25179   0.32638   0.34630   0.34983

 Mulliken charges:
               1
     1  C   -0.085562
     2  C   -0.002527
     3  N   -0.209802
     4  H    0.102287
     5  H    0.096721
     6  H    0.098883
 Sum of Mulliken charges =   0.00000

 Dipole moment (field-independent basis, Debye):
    X=             -4.1393    Y=              0.0044    Z=              0.0094  Tot=              4.1393
 Quadrupole moment (field-independent basis, Debye-Ang):
   XX=            -21.0852   YY=            -17.6721   ZZ=            -17.7808
   XY=              0.0888   XZ=             -0.0075   YZ=             -0.0103

 Normal termination of Gaussian 09 at Wed Aug 26 10:01:58 2020.
