 Gaussian 09, Revision D.01,
 Gaussian 09:  ES64L-G09RevD.01 24-Apr-2013

 --------------------
 #p B2PLYPD3/Def2QZVP
 --------------------

 ------------
 cyanomethane
 ------------
 Symbolic Z-matrix:
 Charge =  0 Multiplicity = 1

                         Standard orientation:
 ---------------------------------------------------------------------
 Center     Atomic      Atomic             Coordinates (Angstroms)
 Number     Number       Type             X           Y           Z
 ---------------------------------------------------------------------
      1          6           0       -1.181134   -0.006971    0.002059
      2          6           0        0.272107   -0.009717    0.002402
      3          7           0        1.433661    0.003870   -0.001897
      4          1           0       -1.520973    0.031015    1.002834
      5          1           0       -1.552271   -0.866853   -0.502827
      6          1           0       -1.508226    0.908876   -0.513495
 ---------------------------------------------------------------------

 SCF Done:  E(RB2PLYPD3) =  -132.534113896     A.U. after   11 cycles
 E2(B2PLYPD3) =    -0.1808587757D+00 E(B2PLYPD3) =    -0.13271497267198D+03

 The electronic state is 1-A.
 Alpha  occ. eigenvalues --  -14.84289 -10.66667 -10.66344  -1.03793  -0.89758
 Alpha  occ. eigenvalues --   -0.59629  -0.55091  -0.54008  -0.44725  -0.38941
 Alpha  occ. eigenvalues --   -0.38761
 Alpha virt. eigenvalues --    0.03821   0.07917   0.08185   0.10174   0.11234
 Alpha virt. eigenvalues --    0.11458   0.15403   0.15952   0.16313   0.20115
 Alpha virt. eigenvalues --    0.20172   0.25380   0.32770   0.34316   0.35229

 Mulliken charges:
               1
     1  C   -0.084178
     2  C   -0.001882
     3  N   -0.210959
     4  H    0.099539
     5  H    0.100397
     6  H    0.097083
 Sum of Mulliken charges =   0.00000

 Dipole moment (field-independent basis, Debye):
    X=             -4.1371    Y=              0.0022    Z=              0.0096  Tot=              4.1371
 Quadrupole moment (field-independent basis, Debye-Ang):
   XX=            -21.0941   YY=            -17.6912   ZZ=            -17.7345
   XY=             -0.0058   XZ=              0.0014   YZ=              0.0344

 Normal termination of Gaussian 09 at Wed Aug 26 23:59:44 2020.
