 Gaussian 09, Revision D.01,
 Gaussian 09:  ES64L-G09RevD.01 24-Apr-2013

 --------------------
 #p B2PLYPD3/Def2QZVP
 --------------------

 ------------
 cyanomethane
 ------------
 Symbolic Z-matrix:
 Charge =  0 Multiplicity = 1

                         Standard orientation:
 ---------------------------------------------------------------------
 Center     Atomic      Atomic             Coordinates (Angstroms)
 Number     Number       Type             X           Y           Z
 ---------------------------------------------------------------------
      1          6           0        1.195640   -0.008571   -0.014459
      2          6           0       -0.288184    0.040336   -0.005342
      3          7           0       -1.432526   -0.018725    0.005032
      4          1           0        1.505755   -0.664918   -0.804630
      5          1           0        1.529488   -0.421996    0.997904
      6          1           0        1.547705    1.027397   -0.109688
 ---------------------------------------------------------------------

 SCF Done:  E(RB2PLYPD3) =  -132.532494675     A.U. after   12 cycles
 E2(B2PLYPD3) =    -0.1799769792D+00 E(B2PLYPD3) =    -0.13271247165421D+03

 The electronic state is 1-A.
 Alpha  occ. eigenvalues --  -14.83847 -10.67889 -10.65954  -1.04325  -0.88505
 Alpha  occ. eigenvalues --   -0.58280  -0.54819  -0.52828  -0.44583  -0.39392
 Alpha  occ. eigenvalues --   -0.39117
 Alpha virt. eigenvalues --    0.03593   0.07871   0.08441   0.10197   0.11267
 Alpha virt. eigenvalues --    0.11608   0.15101   0.15796   0.16312   0.19982
 Alpha virt. eigenvalues --    0.20094   0.24912   0.32355   0.33534   0.35047

 Mulliken charges:
               1
     1  C   -0.104720
     2  C   -0.005288
     3  N   -0.201720
     4  H    0.108836
     5  H    0.099170
     6  H    0.103722
 Sum of Mulliken charges =   0.00000

 Dipole moment (field-independent basis, Debye):
    X=              4.0975    Y=              0.0240    Z=             -0.0032  Tot=              4.0975
 Quadrupole moment (field-independent basis, Debye-Ang):
   XX=            -21.3047   YY=            -17.6375   ZZ=            -17.7258
   XY=             -0.0846   XZ=              0.0588   YZ=              0.0680

 Normal termination of Gaussian 09 at Wed Aug 26 16:06:48 2020.
