 Gaussian 09, Revision D.01,
 Gaussian 09:  ES64L-G09RevD.01 24-Apr-2013

 --------------------
 #p B2PLYPD3/Def2QZVP
 --------------------

 ------------
 cyanomethane
 ------------
 Symbolic Z-matrix:
 Charge =  0 Multiplicity = 1

                         Standard orientation:
 ---------------------------------------------------------------------
 Center     Atomic      Atomic             Coordinates (Angstroms)
 Number     Number       Type             X           Y           Z
 ---------------------------------------------------------------------
      1          6           0        1.178605   -0.000454    0.000532
      2          6           0       -0.277960   -0.003319   -0.010895
      3          7           0       -1.439747    0.002221    0.000900
      4          1           0        1.583446    0.981591   -0.267701
      5          1           0        1.600113   -0.745129   -0.652950
      6          1           0        1.490804   -0.229371    0.976531
 ---------------------------------------------------------------------

 SCF Done:  E(RB2PLYPD3) =  -132.533839966     A.U. after   12 cycles
 E2(B2PLYPD3) =    -0.1809327672D+00 E(B2PLYPD3) =    -0.13271477273309D+03

 The electronic state is 1-A.
 Alpha  occ. eigenvalues --  -14.84437 -10.66663 -10.66517  -1.03856  -0.89610
 Alpha  occ. eigenvalues --   -0.60224  -0.54341  -0.53932  -0.44856  -0.38968
 Alpha  occ. eigenvalues --   -0.38920
 Alpha virt. eigenvalues --    0.03816   0.07677   0.08124   0.10188   0.11330
 Alpha virt. eigenvalues --    0.11403   0.15440   0.16067   0.16795   0.20122
 Alpha virt. eigenvalues --    0.20139   0.25356   0.32661   0.34815   0.35016

 Mulliken charges:
               1
     1  C   -0.073793
     2  C    0.000568
     3  N   -0.209813
     4  H    0.093908
     5  H    0.093357
     6  H    0.095774
 Sum of Mulliken charges =   0.00000

 Dipole moment (field-independent basis, Debye):
    X=              4.1527    Y=             -0.0147    Z=              0.0240  Tot=              4.1528
 Quadrupole moment (field-independent basis, Debye-Ang):
   XX=            -20.8678   YY=            -17.7287   ZZ=            -17.8446
   XY=             -0.0079   XZ=             -0.0190   YZ=             -0.0040

 Normal termination of Gaussian 09 at Wed Aug 26 09:38:07 2020.
