 Gaussian 09, Revision D.01,
 Gaussian 09:  ES64L-G09RevD.01 24-Apr-2013

 --------------------
 #p B2PLYPD3/Def2QZVP
 --------------------

 ------------
 cyanomethane
 ------------
 Symbolic Z-matrix:
 Charge =  0 Multiplicity = 1

                         Standard orientation:
 ---------------------------------------------------------------------
 Center     Atomic      Atomic             Coordinates (Angstroms)
 Number     Number       Type             X           Y           Z
 ---------------------------------------------------------------------
      1          6           0       -1.190003    0.003151   -0.007131
      2          6           0        0.272016   -0.007766    0.040199
      3          7           0        1.443887    0.006441   -0.020343
      4          1           0       -1.524484   -0.188069    0.963164
      5          1           0       -1.506626   -0.796138   -0.663329
      6          1           0       -1.568171    0.966810   -0.355846
 ---------------------------------------------------------------------

 SCF Done:  E(RB2PLYPD3) =  -132.531526380     A.U. after   12 cycles
 E2(B2PLYPD3) =    -0.1819602398D+00 E(B2PLYPD3) =    -0.13271348661948D+03

 The electronic state is 1-A.
 Alpha  occ. eigenvalues --  -14.84674 -10.66787 -10.66733  -1.03328  -0.89664
 Alpha  occ. eigenvalues --   -0.59529  -0.54836  -0.54261  -0.44780  -0.38652
 Alpha  occ. eigenvalues --   -0.38610
 Alpha virt. eigenvalues --    0.03724   0.07520   0.08211   0.10132   0.11096
 Alpha virt. eigenvalues --    0.11229   0.15305   0.15622   0.16563   0.20152
 Alpha virt. eigenvalues --    0.20206   0.25314   0.32591   0.34673   0.34844

 Mulliken charges:
               1
     1  C   -0.083956
     2  C    0.000426
     3  N   -0.215715
     4  H    0.099210
     5  H    0.100164
     6  H    0.099870
 Sum of Mulliken charges =   0.00000

 Dipole moment (field-independent basis, Debye):
    X=             -4.1542    Y=             -0.0197    Z=              0.0379  Tot=              4.1545
 Quadrupole moment (field-independent basis, Debye-Ang):
   XX=            -21.0804   YY=            -17.7116   ZZ=            -17.8146
   XY=             -0.0538   XZ=              0.0747   YZ=             -0.0015

 Normal termination of Gaussian 09 at Wed Aug 26 13:32:14 2020.
