 Gaussian 09, Revision D.01,
 Gaussian 09:  ES64L-G09RevD.01 24-Apr-2013

 --------------------
 #p B2PLYPD3/Def2QZVP
 --------------------

 ------------
 cyanomethane
 ------------
 Symbolic Z-matrix:
 Charge =  0 Multiplicity = 1

                         Standard orientation:
 ---------------------------------------------------------------------
 Center     Atomic      Atomic             Coordinates (Angstroms)
 Number     Number       Type             X           Y           Z
 ---------------------------------------------------------------------
      1          6           0        1.172676    0.010808    0.002135
      2          6           0       -0.276748    0.012022   -0.009313
      3          7           0       -1.429648   -0.005973    0.007467
      4          1           0        1.568939   -0.501969    0.896920
      5          1           0        1.562322    0.993354   -0.050901
      6          1           0        1.500711   -0.586551   -0.855226
 ---------------------------------------------------------------------

 SCF Done:  E(RB2PLYPD3) =  -132.534722161     A.U. after   12 cycles
 E2(B2PLYPD3) =    -0.1803151765D+00 E(B2PLYPD3) =    -0.13271503733718D+03

 The electronic state is 1-A.
 Alpha  occ. eigenvalues --  -14.84118 -10.66933 -10.66156  -1.04178  -0.89458
 Alpha  occ. eigenvalues --   -0.59887  -0.54824  -0.53262  -0.44774  -0.39177
 Alpha  occ. eigenvalues --   -0.38909
 Alpha virt. eigenvalues --    0.03767   0.07723   0.08200   0.10168   0.11343
 Alpha virt. eigenvalues --    0.11684   0.15471   0.15999   0.16704   0.20049
 Alpha virt. eigenvalues --    0.20146   0.25489   0.32862   0.34113   0.35166

 Mulliken charges:
               1
     1  C   -0.083137
     2  C   -0.001371
     3  N   -0.205925
     4  H    0.094419
     5  H    0.100247
     6  H    0.095766
 Sum of Mulliken charges =   0.00000

 Dipole moment (field-independent basis, Debye):
    X=              4.1232    Y=             -0.0061    Z=             -0.0162  Tot=              4.1232
 Quadrupole moment (field-independent basis, Debye-Ang):
   XX=            -21.0035   YY=            -17.6521   ZZ=            -17.8126
   XY=             -0.0447   XZ=              0.0792   YZ=              0.0051

 Normal termination of Gaussian 09 at Wed Aug 26 23:35:23 2020.
