 Gaussian 09, Revision D.01,
 Gaussian 09:  ES64L-G09RevD.01 24-Apr-2013

 --------------------
 #p B2PLYPD3/Def2QZVP
 --------------------

 ------------
 cyanomethane
 ------------
 Symbolic Z-matrix:
 Charge =  0 Multiplicity = 1

                         Standard orientation:
 ---------------------------------------------------------------------
 Center     Atomic      Atomic             Coordinates (Angstroms)
 Number     Number       Type             X           Y           Z
 ---------------------------------------------------------------------
      1          6           0        1.165824   -0.009766    0.005061
      2          6           0       -0.278197   -0.009960   -0.001803
      3          7           0       -1.430115    0.009071   -0.000272
      4          1           0        1.600058    1.004907   -0.243322
      5          1           0        1.542436   -0.686540   -0.719067
      6          1           0        1.542547   -0.263507    0.944744
 ---------------------------------------------------------------------

 SCF Done:  E(RB2PLYPD3) =  -132.532919654     A.U. after   11 cycles
 E2(B2PLYPD3) =    -0.1801632081D+00 E(B2PLYPD3) =    -0.13271308286218D+03

 The electronic state is 1-A.
 Alpha  occ. eigenvalues --  -14.84177 -10.66587 -10.66188  -1.04294  -0.89693
 Alpha  occ. eigenvalues --   -0.60561  -0.54941  -0.53004  -0.44870  -0.39244
 Alpha  occ. eigenvalues --   -0.39004
 Alpha virt. eigenvalues --    0.03766   0.07568   0.08331   0.10163   0.11403
 Alpha virt. eigenvalues --    0.11689   0.15583   0.16436   0.16694   0.20046
 Alpha virt. eigenvalues --    0.20129   0.25602   0.32813   0.34313   0.35399

 Mulliken charges:
               1
     1  C   -0.071627
     2  C    0.000053
     3  N   -0.204894
     4  H    0.087599
     5  H    0.094123
     6  H    0.094746
 Sum of Mulliken charges =   0.00000

 Dipole moment (field-independent basis, Debye):
    X=              4.1290    Y=             -0.0268    Z=              0.0084  Tot=              4.1291
 Quadrupole moment (field-independent basis, Debye-Ang):
   XX=            -20.8168   YY=            -17.7770   ZZ=            -17.7526
   XY=              0.0728   XZ=              0.0039   YZ=              0.0259

 Normal termination of Gaussian 09 at Wed Aug 26 10:21:08 2020.
