 Gaussian 09, Revision D.01,
 Gaussian 09:  ES64L-G09RevD.01 24-Apr-2013

 --------------------
 #p B2PLYPD3/Def2QZVP
 --------------------

 ------------
 cyanomethane
 ------------
 Symbolic Z-matrix:
 Charge =  0 Multiplicity = 1

                         Standard orientation:
 ---------------------------------------------------------------------
 Center     Atomic      Atomic             Coordinates (Angstroms)
 Number     Number       Type             X           Y           Z
 ---------------------------------------------------------------------
      1          6           0        1.188638   -0.010930   -0.028587
      2          6           0       -0.272170    0.066289    0.006547
      3          7           0       -1.451491   -0.037456   -0.004474
      4          1           0        1.502084    1.011884    0.003209
      5          1           0        1.634459   -0.588741   -0.733664
      6          1           0        1.525083   -0.493103    0.894006
 ---------------------------------------------------------------------

 SCF Done:  E(RB2PLYPD3) =  -132.521888120     A.U. after   13 cycles
 E2(B2PLYPD3) =    -0.1830962060D+00 E(B2PLYPD3) =    -0.13270498432549D+03

 The electronic state is 1-A.
 Alpha  occ. eigenvalues --  -14.85116 -10.67246 -10.66376  -1.03034  -0.89925
 Alpha  occ. eigenvalues --   -0.61342  -0.55242  -0.52884  -0.44967  -0.38613
 Alpha  occ. eigenvalues --   -0.38262
 Alpha virt. eigenvalues --    0.03703   0.07077   0.07854   0.09761   0.11004
 Alpha virt. eigenvalues --    0.11529   0.15163   0.15739   0.17398   0.20065
 Alpha virt. eigenvalues --    0.20445   0.25506   0.32577   0.33913   0.35527

 Mulliken charges:
               1
     1  C   -0.069604
     2  C    0.009603
     3  N   -0.218922
     4  H    0.096955
     5  H    0.096070
     6  H    0.085899
 Sum of Mulliken charges =   0.00000

 Dipole moment (field-independent basis, Debye):
    X=              4.1662    Y=              0.0077    Z=              0.0403  Tot=              4.1664
 Quadrupole moment (field-independent basis, Debye-Ang):
   XX=            -20.8536   YY=            -17.6267   ZZ=            -18.0930
   XY=             -0.3504   XZ=              0.0082   YZ=              0.0677

 Normal termination of Gaussian 09 at Wed Aug 26 21:58:18 2020.
