 Gaussian 09, Revision D.01,
 Gaussian 09:  ES64L-G09RevD.01 24-Apr-2013

 --------------------
 #p B2PLYPD3/Def2QZVP
 --------------------

 ------------
 cyanomethane
 ------------
 Symbolic Z-matrix:
 Charge =  0 Multiplicity = 1

                         Standard orientation:
 ---------------------------------------------------------------------
 Center     Atomic      Atomic             Coordinates (Angstroms)
 Number     Number       Type             X           Y           Z
 ---------------------------------------------------------------------
      1          6           0        1.198376    0.037790   -0.020250
      2          6           0       -0.289957   -0.051956   -0.012717
      3          7           0       -1.445940    0.025160    0.004637
      4          1           0        1.586480    1.076926   -0.121923
      5          1           0        1.586113   -0.749385   -0.760105
      6          1           0        1.498473   -0.418667    1.047369
 ---------------------------------------------------------------------

 SCF Done:  E(RB2PLYPD3) =  -132.520674154     A.U. after   12 cycles
 E2(B2PLYPD3) =    -0.1820447538D+00 E(B2PLYPD3) =    -0.13270271890761D+03

 The electronic state is 1-A.
 Alpha  occ. eigenvalues --  -14.84329 -10.69449 -10.66542  -1.03868  -0.87371
 Alpha  occ. eigenvalues --   -0.58283  -0.54027  -0.50969  -0.44717  -0.39171
 Alpha  occ. eigenvalues --   -0.38510
 Alpha virt. eigenvalues --    0.03202   0.06994   0.07452   0.10018   0.11122
 Alpha virt. eigenvalues --    0.11747   0.14889   0.15072   0.17278   0.19990
 Alpha virt. eigenvalues --    0.20192   0.25015   0.31458   0.31960   0.34833

 Mulliken charges:
               1
     1  C   -0.116090
     2  C    0.005617
     3  N   -0.206626
     4  H    0.117083
     5  H    0.104354
     6  H    0.095661
 Sum of Mulliken charges =   0.00000

 Dipole moment (field-independent basis, Debye):
    X=              4.1067    Y=             -0.0511    Z=              0.0128  Tot=              4.1070
 Quadrupole moment (field-independent basis, Debye-Ang):
   XX=            -21.3728   YY=            -17.5385   ZZ=            -18.0919
   XY=              0.1098   XZ=              0.0116   YZ=              0.0288

 Normal termination of Gaussian 09 at Wed Aug 26 20:48:59 2020.
