 Gaussian 09, Revision D.01,
 Gaussian 09:  ES64L-G09RevD.01 24-Apr-2013

 --------------------
 #p B2PLYPD3/Def2QZVP
 --------------------

 ------------
 cyanomethane
 ------------
 Symbolic Z-matrix:
 Charge =  0 Multiplicity = 1

                         Standard orientation:
 ---------------------------------------------------------------------
 Center     Atomic      Atomic             Coordinates (Angstroms)
 Number     Number       Type             X           Y           Z
 ---------------------------------------------------------------------
      1          6           0       -1.172024    0.015091    0.002867
      2          6           0        0.274041    0.011837   -0.008394
      3          7           0        1.432670   -0.012020    0.003834
      4          1           0       -1.493252    0.972358   -0.255888
      5          1           0       -1.558359   -0.296030    0.976818
      6          1           0       -1.589184   -0.753759   -0.714607
 ---------------------------------------------------------------------

 SCF Done:  E(RB2PLYPD3) =  -132.532106732     A.U. after   11 cycles
 E2(B2PLYPD3) =    -0.1808815035D+00 E(B2PLYPD3) =    -0.13271298823537D+03

 The electronic state is 1-A.
 Alpha  occ. eigenvalues --  -14.84299 -10.66995 -10.66325  -1.03969  -0.89520
 Alpha  occ. eigenvalues --   -0.59921  -0.55409  -0.52660  -0.44813  -0.39056
 Alpha  occ. eigenvalues --   -0.38724
 Alpha virt. eigenvalues --    0.03714   0.07303   0.08264   0.10151   0.11215
 Alpha virt. eigenvalues --    0.11708   0.15443   0.16264   0.16412   0.20041
 Alpha virt. eigenvalues --    0.20196   0.25537   0.32650   0.33962   0.35271

 Mulliken charges:
               1
     1  C   -0.082260
     2  C   -0.000457
     3  N   -0.208529
     4  H    0.103457
     5  H    0.095905
     6  H    0.091885
 Sum of Mulliken charges =   0.00000

 Dipole moment (field-independent basis, Debye):
    X=             -4.1291    Y=              0.0084    Z=              0.0056  Tot=              4.1291
 Quadrupole moment (field-independent basis, Debye-Ang):
   XX=            -21.0020   YY=            -17.6523   ZZ=            -17.8621
   XY=              0.1666   XZ=             -0.0413   YZ=             -0.0671

 Normal termination of Gaussian 09 at Wed Aug 26 15:28:25 2020.
