 Gaussian 09, Revision D.01,
 Gaussian 09:  ES64L-G09RevD.01 24-Apr-2013

 --------------------
 #p B2PLYPD3/Def2QZVP
 --------------------

 ------------
 cyanomethane
 ------------
 Symbolic Z-matrix:
 Charge =  0 Multiplicity = 1

                         Standard orientation:
 ---------------------------------------------------------------------
 Center     Atomic      Atomic             Coordinates (Angstroms)
 Number     Number       Type             X           Y           Z
 ---------------------------------------------------------------------
      1          6           0       -1.175391    0.008038    0.005156
      2          6           0        0.278117   -0.005791   -0.027433
      3          7           0        1.429141    0.004147    0.014919
      4          1           0       -1.552630   -0.106927    0.992290
      5          1           0       -1.509938   -0.852931   -0.558066
      6          1           0       -1.557780    0.917345   -0.404999
 ---------------------------------------------------------------------

 SCF Done:  E(RB2PLYPD3) =  -132.534910674     A.U. after   11 cycles
 E2(B2PLYPD3) =    -0.1800242197D+00 E(B2PLYPD3) =    -0.13271493489362D+03

 The electronic state is 1-A.
 Alpha  occ. eigenvalues --  -14.84083 -10.66505 -10.66114  -1.04224  -0.89703
 Alpha  occ. eigenvalues --   -0.59999  -0.54779  -0.53883  -0.44763  -0.39211
 Alpha  occ. eigenvalues --   -0.39053
 Alpha virt. eigenvalues --    0.03850   0.08031   0.08310   0.10157   0.11358
 Alpha virt. eigenvalues --    0.11577   0.15496   0.15990   0.16744   0.20050
 Alpha virt. eigenvalues --    0.20130   0.25468   0.32957   0.34624   0.35201

 Mulliken charges:
               1
     1  C   -0.078071
     2  C   -0.001891
     3  N   -0.205612
     4  H    0.094025
     5  H    0.094360
     6  H    0.097190
 Sum of Mulliken charges =   0.00000

 Dipole moment (field-independent basis, Debye):
    X=             -4.1235    Y=             -0.0179    Z=             -0.0070  Tot=              4.1236
 Quadrupole moment (field-independent basis, Debye-Ang):
   XX=            -20.9607   YY=            -17.6232   ZZ=            -17.8013
   XY=             -0.0281   XZ=             -0.1377   YZ=             -0.0186

 Normal termination of Gaussian 09 at Wed Aug 26 23:58:44 2020.
