 Gaussian 09, Revision D.01,
 Gaussian 09:  ES64L-G09RevD.01 24-Apr-2013

 --------------------
 #p B2PLYPD3/Def2QZVP
 --------------------

 ------------
 cyanomethane
 ------------
 Symbolic Z-matrix:
 Charge =  0 Multiplicity = 1

                         Standard orientation:
 ---------------------------------------------------------------------
 Center     Atomic      Atomic             Coordinates (Angstroms)
 Number     Number       Type             X           Y           Z
 ---------------------------------------------------------------------
      1          6           0        1.184630    0.003630    0.006295
      2          6           0       -0.275780    0.041704   -0.001808
      3          7           0       -1.439157   -0.021290    0.000888
      4          1           0        1.550268    0.983296   -0.204145
      5          1           0        1.526766   -0.721110   -0.794896
      6          1           0        1.543965   -0.385159    0.965899
 ---------------------------------------------------------------------

 SCF Done:  E(RB2PLYPD3) =  -132.532378470     A.U. after   12 cycles
 E2(B2PLYPD3) =    -0.1815380586D+00 E(B2PLYPD3) =    -0.13271391652832D+03

 The electronic state is 1-A.
 Alpha  occ. eigenvalues --  -14.84455 -10.67497 -10.66534  -1.03666  -0.89053
 Alpha  occ. eigenvalues --   -0.59296  -0.54851  -0.52957  -0.44773  -0.38895
 Alpha  occ. eigenvalues --   -0.38635
 Alpha virt. eigenvalues --    0.03601   0.07348   0.08071   0.10138   0.11095
 Alpha virt. eigenvalues --    0.11537   0.15305   0.15959   0.16299   0.20052
 Alpha virt. eigenvalues --    0.20198   0.25324   0.32516   0.33717   0.34982

 Mulliken charges:
               1
     1  C   -0.092323
     2  C    0.000260
     3  N   -0.211069
     4  H    0.103597
     5  H    0.097746
     6  H    0.101790
 Sum of Mulliken charges =   0.00000

 Dipole moment (field-independent basis, Debye):
    X=              4.1291    Y=              0.0184    Z=             -0.0008  Tot=              4.1291
 Quadrupole moment (field-independent basis, Debye-Ang):
   XX=            -21.1506   YY=            -17.7097   ZZ=            -17.8190
   XY=             -0.1231   XZ=              0.0121   YZ=             -0.0513

 Normal termination of Gaussian 09 at Wed Aug 26 12:43:47 2020.
