 Gaussian 09, Revision D.01,
 Gaussian 09:  ES64L-G09RevD.01 24-Apr-2013

 --------------------
 #p B2PLYPD3/Def2QZVP
 --------------------

 ------------
 cyanomethane
 ------------
 Symbolic Z-matrix:
 Charge =  0 Multiplicity = 1

                         Standard orientation:
 ---------------------------------------------------------------------
 Center     Atomic      Atomic             Coordinates (Angstroms)
 Number     Number       Type             X           Y           Z
 ---------------------------------------------------------------------
      1          6           0        1.170793   -0.004760   -0.004183
      2          6           0       -0.280336    0.001716    0.014837
      3          7           0       -1.429224    0.003469   -0.008090
      4          1           0        1.605380    0.950168   -0.405210
      5          1           0        1.518480   -0.832508   -0.612488
      6          1           0        1.537967   -0.123673    1.010408
 ---------------------------------------------------------------------

 SCF Done:  E(RB2PLYPD3) =  -132.535019357     A.U. after   12 cycles
 E2(B2PLYPD3) =    -0.1801193799D+00 E(B2PLYPD3) =    -0.13271513873655D+03

 The electronic state is 1-A.
 Alpha  occ. eigenvalues --  -14.84045 -10.67274 -10.66080  -1.04356  -0.89128
 Alpha  occ. eigenvalues --   -0.59745  -0.54201  -0.53201  -0.44791  -0.39190
 Alpha  occ. eigenvalues --   -0.39104
 Alpha virt. eigenvalues --    0.03714   0.07599   0.08134   0.10176   0.11533
 Alpha virt. eigenvalues --    0.11636   0.15455   0.16112   0.16716   0.20052
 Alpha virt. eigenvalues --    0.20089   0.25480   0.32750   0.34344   0.34725

 Mulliken charges:
               1
     1  C   -0.085855
     2  C   -0.001594
     3  N   -0.203140
     4  H    0.094581
     5  H    0.099402
     6  H    0.096605
 Sum of Mulliken charges =   0.00000

 Dipole moment (field-independent basis, Debye):
    X=              4.1134    Y=             -0.0143    Z=              0.0219  Tot=              4.1135
 Quadrupole moment (field-independent basis, Debye-Ang):
   XX=            -20.9916   YY=            -17.7275   ZZ=            -17.7637
   XY=              0.0675   XZ=             -0.0342   YZ=              0.0308

 Normal termination of Gaussian 09 at Wed Aug 26 23:57:28 2020.
