 Gaussian 09, Revision D.01,
 Gaussian 09:  ES64L-G09RevD.01 24-Apr-2013

 --------------------
 #p B2PLYPD3/Def2QZVP
 --------------------

 ------------
 cyanomethane
 ------------
 Symbolic Z-matrix:
 Charge =  0 Multiplicity = 1

                         Standard orientation:
 ---------------------------------------------------------------------
 Center     Atomic      Atomic             Coordinates (Angstroms)
 Number     Number       Type             X           Y           Z
 ---------------------------------------------------------------------
      1          6           0        1.189539    0.002031   -0.009921
      2          6           0       -0.280605    0.002469   -0.006814
      3          7           0       -1.441335   -0.002553    0.010433
      4          1           0        1.627356   -0.069485    1.008713
      5          1           0        1.496690    0.949933   -0.436244
      6          1           0        1.511701   -0.889578   -0.545091
 ---------------------------------------------------------------------

 SCF Done:  E(RB2PLYPD3) =  -132.532842762     A.U. after   12 cycles
 E2(B2PLYPD3) =    -0.1811370208D+00 E(B2PLYPD3) =    -0.13271397978309D+03

 The electronic state is 1-A.
 Alpha  occ. eigenvalues --  -14.84342 -10.67473 -10.66462  -1.03806  -0.88981
 Alpha  occ. eigenvalues --   -0.59267  -0.55093  -0.52663  -0.44738  -0.39019
 Alpha  occ. eigenvalues --   -0.38797
 Alpha virt. eigenvalues --    0.03695   0.07459   0.08213   0.10194   0.11130
 Alpha virt. eigenvalues --    0.11539   0.15143   0.16012   0.16431   0.20047
 Alpha virt. eigenvalues --    0.20182   0.25077   0.32417   0.34037   0.34959

 Mulliken charges:
               1
     1  C   -0.090394
     2  C   -0.001092
     3  N   -0.209307
     4  H    0.093525
     5  H    0.104340
     6  H    0.102927
 Sum of Mulliken charges =   0.00000

 Dipole moment (field-independent basis, Debye):
    X=              4.1391    Y=             -0.0010    Z=              0.0043  Tot=              4.1391
 Quadrupole moment (field-independent basis, Debye-Ang):
   XX=            -21.1073   YY=            -17.5788   ZZ=            -17.9582
   XY=             -0.0455   XZ=              0.2108   YZ=             -0.0007

 Normal termination of Gaussian 09 at Wed Aug 26 17:05:34 2020.
