 Gaussian 09, Revision D.01,
 Gaussian 09:  ES64L-G09RevD.01 24-Apr-2013

 --------------------
 #p B2PLYPD3/Def2QZVP
 --------------------

 ------------
 cyanomethane
 ------------
 Symbolic Z-matrix:
 Charge =  0 Multiplicity = 1

                         Standard orientation:
 ---------------------------------------------------------------------
 Center     Atomic      Atomic             Coordinates (Angstroms)
 Number     Number       Type             X           Y           Z
 ---------------------------------------------------------------------
      1          6           0       -1.191311    0.024305   -0.005831
      2          6           0        0.262723    0.035829   -0.013924
      3          7           0        1.425410   -0.034713    0.013348
      4          1           0       -1.274214    0.976436   -0.336805
      5          1           0       -1.575232   -0.227524    1.016309
      6          1           0       -1.556897   -0.866725   -0.654406
 ---------------------------------------------------------------------

 SCF Done:  E(RB2PLYPD3) =  -132.513582756     A.U. after   12 cycles
 E2(B2PLYPD3) =    -0.1820490150D+00 E(B2PLYPD3) =    -0.13269563177122D+03

 The electronic state is 1-A.
 Alpha  occ. eigenvalues --  -14.84197 -10.67454 -10.66281  -1.03622  -0.90004
 Alpha  occ. eigenvalues --   -0.59029  -0.56189  -0.52086  -0.44499  -0.38658
 Alpha  occ. eigenvalues --   -0.38336
 Alpha virt. eigenvalues --    0.03464   0.06720   0.09071   0.10118   0.10933
 Alpha virt. eigenvalues --    0.11708   0.14491   0.15552   0.16291   0.20070
 Alpha virt. eigenvalues --    0.20284   0.25239   0.32140   0.32943   0.35518

 Mulliken charges:
               1
     1  C   -0.110761
     2  C   -0.002535
     3  N   -0.214588
     4  H    0.121787
     5  H    0.103100
     6  H    0.102998
 Sum of Mulliken charges =   0.00000

 Dipole moment (field-independent basis, Debye):
    X=             -4.0722    Y=              0.0074    Z=              0.0124  Tot=              4.0722
 Quadrupole moment (field-independent basis, Debye-Ang):
   XX=            -21.5988   YY=            -17.4206   ZZ=            -17.8874
   XY=              0.5349   XZ=             -0.2468   YZ=             -0.1051

 Normal termination of Gaussian 09 at Wed Aug 26 22:50:05 2020.
