 Gaussian 09, Revision D.01,
 Gaussian 09:  ES64L-G09RevD.01 24-Apr-2013

 --------------------
 #p B2PLYPD3/Def2QZVP
 --------------------

 ------------
 cyanomethane
 ------------
 Symbolic Z-matrix:
 Charge =  0 Multiplicity = 1

                         Standard orientation:
 ---------------------------------------------------------------------
 Center     Atomic      Atomic             Coordinates (Angstroms)
 Number     Number       Type             X           Y           Z
 ---------------------------------------------------------------------
      1          6           0        1.143126   -0.027568   -0.005217
      2          6           0       -0.267574    0.077357    0.018738
      3          7           0       -1.425285   -0.033787   -0.005203
      4          1           0        1.613903    1.017633   -0.145381
      5          1           0        1.499231   -0.655736   -0.776541
      6          1           0        1.610548   -0.424127    0.877216
 ---------------------------------------------------------------------

 SCF Done:  E(RB2PLYPD3) =  -132.527418707     A.U. after   12 cycles
 E2(B2PLYPD3) =    -0.1816407118D+00 E(B2PLYPD3) =    -0.13270905941901D+03

 The electronic state is 1-A.
 Alpha  occ. eigenvalues --  -14.84607 -10.66778 -10.66480  -1.04050  -0.89750
 Alpha  occ. eigenvalues --   -0.61678  -0.54006  -0.52717  -0.45089  -0.38811
 Alpha  occ. eigenvalues --   -0.38596
 Alpha virt. eigenvalues --    0.03684   0.06902   0.07282   0.09885   0.11639
 Alpha virt. eigenvalues --    0.11718   0.15744   0.16288   0.17205   0.19956
 Alpha virt. eigenvalues --    0.20259   0.26496   0.32303   0.34516   0.35246

 Mulliken charges:
               1
     1  C   -0.068875
     2  C    0.010020
     3  N   -0.209191
     4  H    0.083812
     5  H    0.095325
     6  H    0.088910
 Sum of Mulliken charges =   0.00000

 Dipole moment (field-independent basis, Debye):
    X=              4.1021    Y=             -0.0013    Z=              0.0130  Tot=              4.1021
 Quadrupole moment (field-independent basis, Debye-Ang):
   XX=            -20.7294   YY=            -17.7168   ZZ=            -17.9730
   XY=             -0.2271   XZ=              0.0550   YZ=              0.0344

 Normal termination of Gaussian 09 at Wed Aug 26 22:07:12 2020.
