 Gaussian 09, Revision D.01,
 Gaussian 09:  ES64L-G09RevD.01 24-Apr-2013

 --------------------
 #p B2PLYPD3/Def2QZVP
 --------------------

 ------------
 cyanomethane
 ------------
 Symbolic Z-matrix:
 Charge =  0 Multiplicity = 1

                         Standard orientation:
 ---------------------------------------------------------------------
 Center     Atomic      Atomic             Coordinates (Angstroms)
 Number     Number       Type             X           Y           Z
 ---------------------------------------------------------------------
      1          6           0       -1.194373   -0.008797    0.002194
      2          6           0        0.284015    0.022417   -0.032466
      3          7           0        1.437964   -0.008556    0.005284
      4          1           0       -1.372570   -0.438556    0.934006
      5          1           0       -1.650070   -0.604198   -0.750893
      6          1           0       -1.580961    1.020922   -0.038471
 ---------------------------------------------------------------------

 SCF Done:  E(RB2PLYPD3) =  -132.531397804     A.U. after   12 cycles
 E2(B2PLYPD3) =    -0.1803299573D+00 E(B2PLYPD3) =    -0.13271172776090D+03

 The electronic state is 1-A.
 Alpha  occ. eigenvalues --  -14.84147 -10.66741 -10.66315  -1.04034  -0.89503
 Alpha  occ. eigenvalues --   -0.59455  -0.54810  -0.53953  -0.44681  -0.39194
 Alpha  occ. eigenvalues --   -0.39059
 Alpha virt. eigenvalues --    0.03835   0.07971   0.08591   0.10297   0.11243
 Alpha virt. eigenvalues --    0.11444   0.15089   0.15656   0.16937   0.20078
 Alpha virt. eigenvalues --    0.20128   0.24990   0.32348   0.34821   0.35219

 Mulliken charges:
               1
     1  C   -0.087776
     2  C   -0.002118
     3  N   -0.207555
     4  H    0.104013
     5  H    0.096676
     6  H    0.096760
 Sum of Mulliken charges =   0.00000

 Dipole moment (field-independent basis, Debye):
    X=             -4.1428    Y=             -0.0102    Z=              0.0198  Tot=              4.1429
 Quadrupole moment (field-independent basis, Debye-Ang):
   XX=            -21.0066   YY=            -17.6569   ZZ=            -17.8102
   XY=              0.0539   XZ=              0.1154   YZ=             -0.0119

 Normal termination of Gaussian 09 at Wed Aug 26 19:02:10 2020.
