 Gaussian 09, Revision D.01,
 Gaussian 09:  ES64L-G09RevD.01 24-Apr-2013

 --------------------
 #p B2PLYPD3/Def2QZVP
 --------------------

 ------------
 cyanomethane
 ------------
 Symbolic Z-matrix:
 Charge =  0 Multiplicity = 1

                         Standard orientation:
 ---------------------------------------------------------------------
 Center     Atomic      Atomic             Coordinates (Angstroms)
 Number     Number       Type             X           Y           Z
 ---------------------------------------------------------------------
      1          6           0       -1.187110   -0.001900   -0.034677
      2          6           0        0.295909    0.039248    0.001105
      3          7           0        1.434063   -0.017414    0.004470
      4          1           0       -1.579033   -0.139725    0.951484
      5          1           0       -1.514484   -0.829808   -0.477577
      6          1           0       -1.597715    0.867341   -0.303758
 ---------------------------------------------------------------------

 SCF Done:  E(RB2PLYPD3) =  -132.520083968     A.U. after   12 cycles
 E2(B2PLYPD3) =    -0.1786520442D+00 E(B2PLYPD3) =    -0.13269873601220D+03

 The electronic state is 1-A.
 Alpha  occ. eigenvalues --  -14.83861 -10.65985 -10.65171  -1.04730  -0.90490
 Alpha  occ. eigenvalues --   -0.60640  -0.57463  -0.52474  -0.44792  -0.40012
 Alpha  occ. eigenvalues --   -0.39378
 Alpha virt. eigenvalues --    0.03943   0.08596   0.09212   0.10293   0.10962
 Alpha virt. eigenvalues --    0.11851   0.15380   0.16255   0.17636   0.19892
 Alpha virt. eigenvalues --    0.20144   0.24924   0.32943   0.34418   0.36890

 Mulliken charges:
               1
     1  C   -0.051412
     2  C    0.000778
     3  N   -0.199264
     4  H    0.069181
     5  H    0.090825
     6  H    0.089892
 Sum of Mulliken charges =   0.00000

 Dipole moment (field-independent basis, Debye):
    X=             -4.1561    Y=              0.0066    Z=              0.0629  Tot=              4.1566
 Quadrupole moment (field-independent basis, Debye-Ang):
   XX=            -20.5473   YY=            -17.4368   ZZ=            -18.0029
   XY=              0.0925   XZ=             -0.2235   YZ=              0.0265

 Normal termination of Gaussian 09 at Wed Aug 26 23:14:06 2020.
