 Gaussian 09, Revision D.01,
 Gaussian 09:  ES64L-G09RevD.01 24-Apr-2013

 --------------------
 #p B2PLYPD3/Def2QZVP
 --------------------

 ------------
 cyanomethane
 ------------
 Symbolic Z-matrix:
 Charge =  0 Multiplicity = 1

                         Standard orientation:
 ---------------------------------------------------------------------
 Center     Atomic      Atomic             Coordinates (Angstroms)
 Number     Number       Type             X           Y           Z
 ---------------------------------------------------------------------
      1          6           0        1.195853    0.003177   -0.004259
      2          6           0       -0.288917   -0.044184   -0.003307
      3          7           0       -1.434119    0.022709    0.002850
      4          1           0        1.528880    1.059608   -0.036471
      5          1           0        1.526178   -0.524241   -0.857888
      6          1           0        1.542160   -0.448296    0.919802
 ---------------------------------------------------------------------

 SCF Done:  E(RB2PLYPD3) =  -132.534255334     A.U. after   12 cycles
 E2(B2PLYPD3) =    -0.1797870103D+00 E(B2PLYPD3) =    -0.13271404234473D+03

 The electronic state is 1-A.
 Alpha  occ. eigenvalues --  -14.83921 -10.67224 -10.66017  -1.04297  -0.88939
 Alpha  occ. eigenvalues --   -0.58668  -0.54888  -0.53524  -0.44627  -0.39387
 Alpha  occ. eigenvalues --   -0.39235
 Alpha virt. eigenvalues --    0.03695   0.08033   0.08726   0.10222   0.11222
 Alpha virt. eigenvalues --    0.11479   0.15187   0.15898   0.16401   0.20013
 Alpha virt. eigenvalues --    0.20069   0.24932   0.32623   0.34276   0.35074

 Mulliken charges:
               1
     1  C   -0.093332
     2  C   -0.006097
     3  N   -0.202524
     4  H    0.099572
     5  H    0.102676
     6  H    0.099706
 Sum of Mulliken charges =   0.00000

 Dipole moment (field-independent basis, Debye):
    X=              4.1131    Y=             -0.0321    Z=             -0.0024  Tot=              4.1133
 Quadrupole moment (field-independent basis, Debye-Ang):
   XX=            -21.1505   YY=            -17.7063   ZZ=            -17.6682
   XY=              0.1275   XZ=              0.0321   YZ=              0.0261

 Normal termination of Gaussian 09 at Wed Aug 26 12:30:14 2020.
