 Gaussian 09, Revision D.01,
 Gaussian 09:  ES64L-G09RevD.01 24-Apr-2013

 --------------------
 #p B2PLYPD3/Def2QZVP
 --------------------

 ------------
 cyanomethane
 ------------
 Symbolic Z-matrix:
 Charge =  0 Multiplicity = 1

                         Standard orientation:
 ---------------------------------------------------------------------
 Center     Atomic      Atomic             Coordinates (Angstroms)
 Number     Number       Type             X           Y           Z
 ---------------------------------------------------------------------
      1          6           0        1.172766    0.021687   -0.017673
      2          6           0       -0.295379   -0.062178    0.008988
      3          7           0       -1.443048    0.018126    0.007576
      4          1           0        1.755667    0.031833    1.025405
      5          1           0        1.401782    0.997391   -0.505170
      6          1           0        1.679564   -0.913163   -0.521158
 ---------------------------------------------------------------------

 SCF Done:  E(RB2PLYPD3) =  -132.518957178     A.U. after   12 cycles
 E2(B2PLYPD3) =    -0.1815271372D+00 E(B2PLYPD3) =    -0.13270048431496D+03

 The electronic state is 1-A.
 Alpha  occ. eigenvalues --  -14.84351 -10.69351 -10.66520  -1.04447  -0.87390
 Alpha  occ. eigenvalues --   -0.59345  -0.53607  -0.50076  -0.44977  -0.39321
 Alpha  occ. eigenvalues --   -0.38852
 Alpha virt. eigenvalues --    0.03231   0.06189   0.07358   0.10245   0.11468
 Alpha virt. eigenvalues --    0.11963   0.14971   0.16530   0.16984   0.19852
 Alpha virt. eigenvalues --    0.20172   0.25387   0.31384   0.32659   0.34545

 Mulliken charges:
               1
     1  C   -0.099857
     2  C    0.007496
     3  N   -0.200391
     4  H    0.088426
     5  H    0.109160
     6  H    0.095166
 Sum of Mulliken charges =   0.00000

 Dipole moment (field-independent basis, Debye):
    X=              4.1019    Y=             -0.0113    Z=              0.0007  Tot=              4.1019
 Quadrupole moment (field-independent basis, Debye-Ang):
   XX=            -20.8709   YY=            -17.6820   ZZ=            -18.2272
   XY=             -0.0952   XZ=              0.2592   YZ=             -0.0717

 Normal termination of Gaussian 09 at Wed Aug 26 23:26:04 2020.
