 Gaussian 09, Revision D.01,
 Gaussian 09:  ES64L-G09RevD.01 24-Apr-2013

 --------------------
 #p B2PLYPD3/Def2QZVP
 --------------------

 ------------
 cyanomethane
 ------------
 Symbolic Z-matrix:
 Charge =  0 Multiplicity = 1

                         Standard orientation:
 ---------------------------------------------------------------------
 Center     Atomic      Atomic             Coordinates (Angstroms)
 Number     Number       Type             X           Y           Z
 ---------------------------------------------------------------------
      1          6           0        1.175003    0.021631    0.020216
      2          6           0       -0.305528   -0.062188   -0.034483
      3          7           0       -1.438376    0.032214    0.023451
      4          1           0        1.709656   -0.299230    0.966430
      5          1           0        1.611433    1.041355   -0.276644
      6          1           0        1.530694   -0.724278   -0.768338
 ---------------------------------------------------------------------

 SCF Done:  E(RB2PLYPD3) =  -132.524319774     A.U. after   12 cycles
 E2(B2PLYPD3) =    -0.1802782792D+00 E(B2PLYPD3) =    -0.13270459805285D+03

 The electronic state is 1-A.
 Alpha  occ. eigenvalues --  -14.84077 -10.68804 -10.66233  -1.04954  -0.87389
 Alpha  occ. eigenvalues --   -0.59669  -0.52135  -0.51659  -0.45000  -0.39700
 Alpha  occ. eigenvalues --   -0.39342
 Alpha virt. eigenvalues --    0.03285   0.07051   0.07677   0.09995   0.11666
 Alpha virt. eigenvalues --    0.11694   0.15351   0.15630   0.18251   0.19823
 Alpha virt. eigenvalues --    0.20364   0.25444   0.32313   0.33095   0.34324

 Mulliken charges:
               1
     1  C   -0.094720
     2  C    0.007087
     3  N   -0.193285
     4  H    0.096186
     5  H    0.096842
     6  H    0.087890
 Sum of Mulliken charges =   0.00000

 Dipole moment (field-independent basis, Debye):
    X=              4.0813    Y=             -0.0705    Z=             -0.0522  Tot=              4.0822
 Quadrupole moment (field-independent basis, Debye-Ang):
   XX=            -20.7631   YY=            -17.8374   ZZ=            -17.9781
   XY=              0.1684   XZ=              0.2206   YZ=             -0.0494

 Normal termination of Gaussian 09 at Wed Aug 26 19:22:24 2020.
