 Gaussian 09, Revision D.01,
 Gaussian 09:  ES64L-G09RevD.01 24-Apr-2013

 --------------------
 #p B2PLYPD3/Def2QZVP
 --------------------

 ------------
 cyanomethane
 ------------
 Symbolic Z-matrix:
 Charge =  0 Multiplicity = 1

                         Standard orientation:
 ---------------------------------------------------------------------
 Center     Atomic      Atomic             Coordinates (Angstroms)
 Number     Number       Type             X           Y           Z
 ---------------------------------------------------------------------
      1          6           0        1.174770    0.025837    0.017341
      2          6           0       -0.265650    0.004098   -0.084985
      3          7           0       -1.454735   -0.005443    0.039109
      4          1           0        1.575616    1.092153   -0.048717
      5          1           0        1.614451   -0.709885   -0.799556
      6          1           0        1.538355   -0.523773    0.980376
 ---------------------------------------------------------------------

 SCF Done:  E(RB2PLYPD3) =  -132.513852385     A.U. after   12 cycles
 E2(B2PLYPD3) =    -0.1855879149D+00 E(B2PLYPD3) =    -0.13269944029977D+03

 The electronic state is 1-A.
 Alpha  occ. eigenvalues --  -14.85474 -10.69313 -10.67543  -1.02634  -0.88015
 Alpha  occ. eigenvalues --   -0.59401  -0.53889  -0.50807  -0.45059  -0.38181
 Alpha  occ. eigenvalues --   -0.37581
 Alpha virt. eigenvalues --    0.03023   0.05676   0.06394   0.09914   0.10814
 Alpha virt. eigenvalues --    0.11619   0.15178   0.15566   0.16870   0.20107
 Alpha virt. eigenvalues --    0.20296   0.25900   0.31240   0.32805   0.34134

 Mulliken charges:
               1
     1  C   -0.103200
     2  C    0.013578
     3  N   -0.219790
     4  H    0.112522
     5  H    0.094419
     6  H    0.102472
 Sum of Mulliken charges =   0.00000

 Dipole moment (field-independent basis, Debye):
    X=              4.1274    Y=             -0.0345    Z=             -0.0144  Tot=              4.1275
 Quadrupole moment (field-independent basis, Debye-Ang):
   XX=            -21.2259   YY=            -17.6291   ZZ=            -18.2912
   XY=             -0.1529   XZ=              0.2055   YZ=             -0.0344

 Normal termination of Gaussian 09 at Wed Aug 26 22:20:45 2020.
