 Gaussian 09, Revision D.01,
 Gaussian 09:  ES64L-G09RevD.01 24-Apr-2013

 --------------------
 #p B2PLYPD3/Def2QZVP
 --------------------

 ------------
 cyanomethane
 ------------
 Symbolic Z-matrix:
 Charge =  0 Multiplicity = 1

                         Standard orientation:
 ---------------------------------------------------------------------
 Center     Atomic      Atomic             Coordinates (Angstroms)
 Number     Number       Type             X           Y           Z
 ---------------------------------------------------------------------
      1          6           0        1.185176   -0.008209   -0.000055
      2          6           0       -0.282261    0.010095   -0.020351
      3          7           0       -1.435569   -0.006913    0.011723
      4          1           0        1.564481   -0.192226    1.003290
      5          1           0        1.507391    0.974290   -0.304024
      6          1           0        1.559620   -0.744989   -0.658887
 ---------------------------------------------------------------------

 SCF Done:  E(RB2PLYPD3) =  -132.534883260     A.U. after   12 cycles
 E2(B2PLYPD3) =    -0.1802292820D+00 E(B2PLYPD3) =    -0.13271511254155D+03

 The electronic state is 1-A.
 Alpha  occ. eigenvalues --  -14.84156 -10.66772 -10.66239  -1.04106  -0.89414
 Alpha  occ. eigenvalues --   -0.59619  -0.54718  -0.53797  -0.44746  -0.39211
 Alpha  occ. eigenvalues --   -0.39063
 Alpha virt. eigenvalues --    0.03806   0.07973   0.08405   0.10191   0.11285
 Alpha virt. eigenvalues --    0.11465   0.15364   0.15932   0.16695   0.20066
 Alpha virt. eigenvalues --    0.20115   0.25184   0.32758   0.34533   0.35179

 Mulliken charges:
               1
     1  C   -0.081597
     2  C   -0.002610
     3  N   -0.206203
     4  H    0.095555
     5  H    0.096314
     6  H    0.098541
 Sum of Mulliken charges =   0.00000

 Dipole moment (field-independent basis, Debye):
    X=              4.1329    Y=              0.0173    Z=             -0.0157  Tot=              4.1329
 Quadrupole moment (field-independent basis, Debye-Ang):
   XX=            -20.9919   YY=            -17.7123   ZZ=            -17.7467
   XY=             -0.0638   XZ=              0.0869   YZ=              0.0282

 Normal termination of Gaussian 09 at Wed Aug 26 09:37:48 2020.
