 Gaussian 09, Revision D.01,
 Gaussian 09:  ES64L-G09RevD.01 24-Apr-2013

 --------------------
 #p B2PLYPD3/Def2QZVP
 --------------------

 ------------
 cyanomethane
 ------------
 Symbolic Z-matrix:
 Charge =  0 Multiplicity = 1

                         Standard orientation:
 ---------------------------------------------------------------------
 Center     Atomic      Atomic             Coordinates (Angstroms)
 Number     Number       Type             X           Y           Z
 ---------------------------------------------------------------------
      1          6           0       -1.180988    0.001868    0.000412
      2          6           0        0.279779    0.008958    0.012906
      3          7           0        1.427281   -0.004247   -0.011213
      4          1           0       -1.571521   -0.610172   -0.840931
      5          1           0       -1.541473    1.027231   -0.090870
      6          1           0       -1.470717   -0.452286    0.930384
 ---------------------------------------------------------------------

 SCF Done:  E(RB2PLYPD3) =  -132.534884824     A.U. after   12 cycles
 E2(B2PLYPD3) =    -0.1799214927D+00 E(B2PLYPD3) =    -0.13271480631682D+03

 The electronic state is 1-A.
 Alpha  occ. eigenvalues --  -14.83895 -10.67243 -10.65949  -1.04315  -0.89188
 Alpha  occ. eigenvalues --   -0.59026  -0.54683  -0.53532  -0.44652  -0.39212
 Alpha  occ. eigenvalues --   -0.39111
 Alpha virt. eigenvalues --    0.03735   0.07826   0.08441   0.10198   0.11446
 Alpha virt. eigenvalues --    0.11593   0.15334   0.15798   0.16535   0.20056
 Alpha virt. eigenvalues --    0.20099   0.25272   0.32733   0.34329   0.34752

 Mulliken charges:
               1
     1  C   -0.094949
     2  C   -0.004293
     3  N   -0.203497
     4  H    0.098337
     5  H    0.101776
     6  H    0.102627
 Sum of Mulliken charges =   0.00000

 Dipole moment (field-independent basis, Debye):
    X=             -4.1048    Y=             -0.0018    Z=              0.0233  Tot=              4.1049
 Quadrupole moment (field-independent basis, Debye-Ang):
   XX=            -21.1768   YY=            -17.6428   ZZ=            -17.7201
   XY=              0.0322   XZ=              0.1273   YZ=             -0.0341

 Normal termination of Gaussian 09 at Thu Aug 27 00:09:26 2020.
