 Gaussian 09, Revision D.01,
 Gaussian 09:  ES64L-G09RevD.01 24-Apr-2013

 --------------------
 #p B2PLYPD3/Def2QZVP
 --------------------

 ------------
 cyanomethane
 ------------
 Symbolic Z-matrix:
 Charge =  0 Multiplicity = 1

                         Standard orientation:
 ---------------------------------------------------------------------
 Center     Atomic      Atomic             Coordinates (Angstroms)
 Number     Number       Type             X           Y           Z
 ---------------------------------------------------------------------
      1          6           0        1.176637   -0.015172   -0.012501
      2          6           0       -0.274274    0.009387   -0.049569
      3          7           0       -1.415206   -0.009002    0.037275
      4          1           0        1.656602   -0.353226    0.946457
      5          1           0        1.405144    1.046781   -0.096906
      6          1           0        1.430514   -0.595833   -0.738051
 ---------------------------------------------------------------------

 SCF Done:  E(RB2PLYPD3) =  -132.516828020     A.U. after   12 cycles
 E2(B2PLYPD3) =    -0.1795696248D+00 E(B2PLYPD3) =    -0.13269639764510D+03

 The electronic state is 1-A.
 Alpha  occ. eigenvalues --  -14.83746 -10.66066 -10.65725  -1.04508  -0.90479
 Alpha  occ. eigenvalues --   -0.59606  -0.57348  -0.52476  -0.44617  -0.39471
 Alpha  occ. eigenvalues --   -0.38893
 Alpha virt. eigenvalues --    0.03661   0.07495   0.09589   0.10143   0.11207
 Alpha virt. eigenvalues --    0.11840   0.15195   0.15555   0.17105   0.20029
 Alpha virt. eigenvalues --    0.20201   0.25567   0.32986   0.33616   0.35837

 Mulliken charges:
               1
     1  C   -0.098145
     2  C   -0.003497
     3  N   -0.203487
     4  H    0.091696
     5  H    0.101716
     6  H    0.111718
 Sum of Mulliken charges =   0.00000

 Dipole moment (field-independent basis, Debye):
    X=              4.0749    Y=              0.0290    Z=             -0.0478  Tot=              4.0752
 Quadrupole moment (field-independent basis, Debye-Ang):
   XX=            -21.1322   YY=            -17.5199   ZZ=            -17.7118
   XY=             -0.1283   XZ=              0.3978   YZ=              0.1453

 Normal termination of Gaussian 09 at Wed Aug 26 23:52:08 2020.
