 Gaussian 09, Revision D.01,
 Gaussian 09:  ES64L-G09RevD.01 24-Apr-2013

 --------------------
 #p B2PLYPD3/Def2QZVP
 --------------------

 ------------
 cyanomethane
 ------------
 Symbolic Z-matrix:
 Charge =  0 Multiplicity = 1

                         Standard orientation:
 ---------------------------------------------------------------------
 Center     Atomic      Atomic             Coordinates (Angstroms)
 Number     Number       Type             X           Y           Z
 ---------------------------------------------------------------------
      1          6           0       -1.178958    0.007713    0.007816
      2          6           0        0.275880    0.002245    0.018765
      3          7           0        1.432453   -0.002565   -0.013553
      4          1           0       -1.500733   -0.315303    0.963105
      5          1           0       -1.570430   -0.727125   -0.770465
      6          1           0       -1.537539    1.000637   -0.257249
 ---------------------------------------------------------------------

 SCF Done:  E(RB2PLYPD3) =  -132.532830022     A.U. after   12 cycles
 E2(B2PLYPD3) =    -0.1807709476D+00 E(B2PLYPD3) =    -0.13271360096973D+03

 The electronic state is 1-A.
 Alpha  occ. eigenvalues --  -14.84198 -10.67303 -10.66247  -1.03987  -0.89251
 Alpha  occ. eigenvalues --   -0.59319  -0.55126  -0.52912  -0.44735  -0.39059
 Alpha  occ. eigenvalues --   -0.38798
 Alpha virt. eigenvalues --    0.03664   0.07440   0.08306   0.10165   0.11256
 Alpha virt. eigenvalues --    0.11620   0.15362   0.15962   0.16388   0.20063
 Alpha virt. eigenvalues --    0.20156   0.25370   0.32556   0.33860   0.35083

 Mulliken charges:
               1
     1  C   -0.091690
     2  C   -0.001662
     3  N   -0.207754
     4  H    0.103707
     5  H    0.094916
     6  H    0.102482
 Sum of Mulliken charges =   0.00000

 Dipole moment (field-independent basis, Debye):
    X=             -4.1182    Y=              0.0002    Z=              0.0232  Tot=              4.1182
 Quadrupole moment (field-independent basis, Debye-Ang):
   XX=            -21.1406   YY=            -17.7136   ZZ=            -17.7417
   XY=              0.0377   XZ=              0.1204   YZ=             -0.0747

 Normal termination of Gaussian 09 at Wed Aug 26 09:41:12 2020.
