 Gaussian 09, Revision D.01,
 Gaussian 09:  ES64L-G09RevD.01 24-Apr-2013

 --------------------
 #p B2PLYPD3/Def2QZVP
 --------------------

 ------------
 cyanomethane
 ------------
 Symbolic Z-matrix:
 Charge =  0 Multiplicity = 1

                         Standard orientation:
 ---------------------------------------------------------------------
 Center     Atomic      Atomic             Coordinates (Angstroms)
 Number     Number       Type             X           Y           Z
 ---------------------------------------------------------------------
      1          6           0       -1.184447    0.001256    0.002223
      2          6           0        0.278906    0.005826   -0.010434
      3          7           0        1.434759   -0.007681    0.006282
      4          1           0       -1.474352    0.981464   -0.303449
      5          1           0       -1.563740   -0.214773    0.983526
      6          1           0       -1.571981   -0.755414   -0.674788
 ---------------------------------------------------------------------

 SCF Done:  E(RB2PLYPD3) =  -132.534752831     A.U. after   12 cycles
 E2(B2PLYPD3) =    -0.1804265626D+00 E(B2PLYPD3) =    -0.13271517939381D+03

 The electronic state is 1-A.
 Alpha  occ. eigenvalues --  -14.84179 -10.66798 -10.66257  -1.04010  -0.89494
 Alpha  occ. eigenvalues --   -0.59559  -0.54789  -0.53862  -0.44725  -0.39054
 Alpha  occ. eigenvalues --   -0.39032
 Alpha virt. eigenvalues --    0.03818   0.07898   0.08377   0.10194   0.11309
 Alpha virt. eigenvalues --    0.11439   0.15323   0.15949   0.16544   0.20081
 Alpha virt. eigenvalues --    0.20137   0.25223   0.32731   0.34771   0.34874

 Mulliken charges:
               1
     1  C   -0.084138
     2  C   -0.002656
     3  N   -0.207686
     4  H    0.100791
     5  H    0.096988
     6  H    0.096701
 Sum of Mulliken charges =   0.00000

 Dipole moment (field-independent basis, Debye):
    X=             -4.1332    Y=              0.0112    Z=             -0.0027  Tot=              4.1332
 Quadrupole moment (field-independent basis, Debye-Ang):
   XX=            -21.0446   YY=            -17.6619   ZZ=            -17.7818
   XY=              0.1247   XZ=             -0.0686   YZ=             -0.0171

 Normal termination of Gaussian 09 at Thu Aug 27 00:01:15 2020.
