 Gaussian 09, Revision D.01,
 Gaussian 09:  ES64L-G09RevD.01 24-Apr-2013

 --------------------
 #p B2PLYPD3/Def2QZVP
 --------------------

 ------------
 cyanomethane
 ------------
 Symbolic Z-matrix:
 Charge =  0 Multiplicity = 1

                         Standard orientation:
 ---------------------------------------------------------------------
 Center     Atomic      Atomic             Coordinates (Angstroms)
 Number     Number       Type             X           Y           Z
 ---------------------------------------------------------------------
      1          6           0        1.169065   -0.011173   -0.001838
      2          6           0       -0.281179    0.019768   -0.012499
      3          7           0       -1.428749   -0.005516    0.007628
      4          1           0        1.512757   -0.768345   -0.654135
      5          1           0        1.559221   -0.205738    0.994984
      6          1           0        1.601946    0.961123   -0.308225
 ---------------------------------------------------------------------

 SCF Done:  E(RB2PLYPD3) =  -132.535144209     A.U. after   11 cycles
 E2(B2PLYPD3) =    -0.1798652016D+00 E(B2PLYPD3) =    -0.13271500941054D+03

 The electronic state is 1-A.
 Alpha  occ. eigenvalues --  -14.84042 -10.66834 -10.66067  -1.04424  -0.89405
 Alpha  occ. eigenvalues --   -0.60138  -0.54580  -0.53200  -0.44820  -0.39304
 Alpha  occ. eigenvalues --   -0.39143
 Alpha virt. eigenvalues --    0.03794   0.07759   0.08229   0.10181   0.11478
 Alpha virt. eigenvalues --    0.11669   0.15513   0.16452   0.16586   0.20027
 Alpha virt. eigenvalues --    0.20093   0.25523   0.32842   0.34490   0.35127

 Mulliken charges:
               1
     1  C   -0.077306
     2  C   -0.001383
     3  N   -0.202752
     4  H    0.097819
     5  H    0.092930
     6  H    0.090691
 Sum of Mulliken charges =   0.00000

 Dipole moment (field-independent basis, Debye):
    X=              4.1190    Y=              0.0002    Z=             -0.0040  Tot=              4.1190
 Quadrupole moment (field-independent basis, Debye-Ang):
   XX=            -20.8834   YY=            -17.7236   ZZ=            -17.7711
   XY=              0.0161   XZ=              0.0782   YZ=              0.0491

 Normal termination of Gaussian 09 at Thu Aug 27 00:00:16 2020.
