 Gaussian 09, Revision D.01,
 Gaussian 09:  ES64L-G09RevD.01 24-Apr-2013

 --------------------
 #p B2PLYPD3/Def2QZVP
 --------------------

 ------------
 cyanomethane
 ------------
 Symbolic Z-matrix:
 Charge =  0 Multiplicity = 1

                         Standard orientation:
 ---------------------------------------------------------------------
 Center     Atomic      Atomic             Coordinates (Angstroms)
 Number     Number       Type             X           Y           Z
 ---------------------------------------------------------------------
      1          6           0       -1.179873    0.009228    0.004495
      2          6           0        0.286303   -0.003885   -0.015603
      3          7           0        1.435282   -0.002391    0.007611
      4          1           0       -1.516198    1.018434   -0.143522
      5          1           0       -1.577046   -0.385497    0.941514
      6          1           0       -1.592306   -0.648254   -0.784620
 ---------------------------------------------------------------------

 SCF Done:  E(RB2PLYPD3) =  -132.535289044     A.U. after   11 cycles
 E2(B2PLYPD3) =    -0.1800504315D+00 E(B2PLYPD3) =    -0.13271533947510D+03

 The electronic state is 1-A.
 Alpha  occ. eigenvalues --  -14.84089 -10.67230 -10.66176  -1.04332  -0.88984
 Alpha  occ. eigenvalues --   -0.59701  -0.54438  -0.52982  -0.44794  -0.39327
 Alpha  occ. eigenvalues --   -0.39161
 Alpha virt. eigenvalues --    0.03745   0.07783   0.08197   0.10208   0.11373
 Alpha virt. eigenvalues --    0.11612   0.15345   0.16354   0.16586   0.20012
 Alpha virt. eigenvalues --    0.20096   0.25208   0.32649   0.34378   0.34987

 Mulliken charges:
               1
     1  C   -0.082311
     2  C   -0.002048
     3  N   -0.202890
     4  H    0.099894
     5  H    0.094780
     6  H    0.092575
 Sum of Mulliken charges =   0.00000

 Dipole moment (field-independent basis, Debye):
    X=             -4.1258    Y=             -0.0047    Z=             -0.0055  Tot=              4.1258
 Quadrupole moment (field-independent basis, Debye-Ang):
   XX=            -20.9380   YY=            -17.6713   ZZ=            -17.8566
   XY=              0.0983   XZ=             -0.0546   YZ=             -0.0241

 Normal termination of Gaussian 09 at Thu Aug 27 00:04:26 2020.
