 Gaussian 09, Revision D.01,
 Gaussian 09:  ES64L-G09RevD.01 24-Apr-2013

 --------------------
 #p B2PLYPD3/Def2QZVP
 --------------------

 ------------
 cyanomethane
 ------------
 Symbolic Z-matrix:
 Charge =  0 Multiplicity = 1

                         Standard orientation:
 ---------------------------------------------------------------------
 Center     Atomic      Atomic             Coordinates (Angstroms)
 Number     Number       Type             X           Y           Z
 ---------------------------------------------------------------------
      1          6           0       -1.167594    0.006335    0.002735
      2          6           0        0.283173   -0.023268    0.006259
      3          7           0        1.428035    0.009419   -0.003101
      4          1           0       -1.532708    1.004129   -0.255258
      5          1           0       -1.578325   -0.269367    0.961513
      6          1           0       -1.578690   -0.699092   -0.738509
 ---------------------------------------------------------------------

 SCF Done:  E(RB2PLYPD3) =  -132.535906739     A.U. after   11 cycles
 E2(B2PLYPD3) =    -0.1797353730D+00 E(B2PLYPD3) =    -0.13271564211169D+03

 The electronic state is 1-A.
 Alpha  occ. eigenvalues --  -14.83985 -10.67057 -10.66013  -1.04537  -0.89182
 Alpha  occ. eigenvalues --   -0.60110  -0.53904  -0.53408  -0.44826  -0.39321
 Alpha  occ. eigenvalues --   -0.39242
 Alpha virt. eigenvalues --    0.03756   0.07854   0.08043   0.10180   0.11579
 Alpha virt. eigenvalues --    0.11670   0.15508   0.16466   0.16654   0.20036
 Alpha virt. eigenvalues --    0.20052   0.25523   0.32907   0.34508   0.34832

 Mulliken charges:
               1
     1  C   -0.079033
     2  C   -0.001365
     3  N   -0.200982
     4  H    0.095435
     5  H    0.094086
     6  H    0.091859
 Sum of Mulliken charges =   0.00000

 Dipole moment (field-independent basis, Debye):
    X=             -4.1136    Y=             -0.0141    Z=              0.0063  Tot=              4.1136
 Quadrupole moment (field-independent basis, Debye-Ang):
   XX=            -20.8799   YY=            -17.7349   ZZ=            -17.7744
   XY=             -0.0162   XZ=              0.0067   YZ=             -0.0183

 Normal termination of Gaussian 09 at Thu Aug 27 00:07:40 2020.
