 Gaussian 09, Revision D.01,
 Gaussian 09:  ES64L-G09RevD.01 24-Apr-2013

 --------------------
 #p B2PLYPD3/Def2QZVP
 --------------------

 ------------
 cyanomethane
 ------------
 Symbolic Z-matrix:
 Charge =  0 Multiplicity = 1

                         Standard orientation:
 ---------------------------------------------------------------------
 Center     Atomic      Atomic             Coordinates (Angstroms)
 Number     Number       Type             X           Y           Z
 ---------------------------------------------------------------------
      1          6           0        1.181569   -0.007095   -0.005475
      2          6           0       -0.284222   -0.017014   -0.001666
      3          7           0       -1.436783    0.013418    0.000913
      4          1           0        1.607653    0.972110   -0.343095
      5          1           0        1.523650   -0.774346   -0.619866
      6          1           0        1.542095   -0.147040    0.999412
 ---------------------------------------------------------------------

 SCF Done:  E(RB2PLYPD3) =  -132.533359942     A.U. after   12 cycles
 E2(B2PLYPD3) =    -0.1802374925D+00 E(B2PLYPD3) =    -0.13271359743400D+03

 The electronic state is 1-A.
 Alpha  occ. eigenvalues --  -14.84191 -10.66870 -10.66271  -1.04183  -0.89331
 Alpha  occ. eigenvalues --   -0.59821  -0.55038  -0.53004  -0.44804  -0.39287
 Alpha  occ. eigenvalues --   -0.39064
 Alpha virt. eigenvalues --    0.03745   0.07665   0.08506   0.10202   0.11240
 Alpha virt. eigenvalues --    0.11582   0.15390   0.16142   0.16743   0.20024
 Alpha virt. eigenvalues --    0.20135   0.25202   0.32657   0.34319   0.35301

 Mulliken charges:
               1
     1  C   -0.078475
     2  C   -0.001881
     3  N   -0.205098
     4  H    0.091912
     5  H    0.099481
     6  H    0.094061
 Sum of Mulliken charges =   0.00000

 Dipole moment (field-independent basis, Debye):
    X=              4.1344    Y=             -0.0272    Z=              0.0138  Tot=              4.1345
 Quadrupole moment (field-independent basis, Debye-Ang):
   XX=            -20.9087   YY=            -17.7303   ZZ=            -17.7906
   XY=              0.1247   XZ=              0.0328   YZ=              0.0644

 Normal termination of Gaussian 09 at Wed Aug 26 14:54:58 2020.
