 Gaussian 09, Revision D.01,
 Gaussian 09:  ES64L-G09RevD.01 24-Apr-2013

 --------------------
 #p B2PLYPD3/Def2QZVP
 --------------------

 ------------
 cyanomethane
 ------------
 Symbolic Z-matrix:
 Charge =  0 Multiplicity = 1

                         Standard orientation:
 ---------------------------------------------------------------------
 Center     Atomic      Atomic             Coordinates (Angstroms)
 Number     Number       Type             X           Y           Z
 ---------------------------------------------------------------------
      1          6           0        1.169132    0.001094    0.005422
      2          6           0       -0.273743    0.005248   -0.013885
      3          7           0       -1.435726   -0.000156    0.006622
      4          1           0        1.594967    1.002718   -0.227853
      5          1           0        1.534928   -0.723309   -0.743027
      6          1           0        1.547850   -0.316371    0.975301
 ---------------------------------------------------------------------

 SCF Done:  E(RB2PLYPD3) =  -132.534030619     A.U. after   12 cycles
 E2(B2PLYPD3) =    -0.1813144328D+00 E(B2PLYPD3) =    -0.13271534505152D+03

 The electronic state is 1-A.
 Alpha  occ. eigenvalues --  -14.84434 -10.67369 -10.66473  -1.03870  -0.89205
 Alpha  occ. eigenvalues --   -0.60073  -0.53672  -0.53557  -0.44874  -0.38836
 Alpha  occ. eigenvalues --   -0.38769
 Alpha virt. eigenvalues --    0.03697   0.07404   0.07601   0.10126   0.11454
 Alpha virt. eigenvalues --    0.11528   0.15480   0.16134   0.16616   0.20115
 Alpha virt. eigenvalues --    0.20146   0.25610   0.32655   0.34270   0.34599

 Mulliken charges:
               1
     1  C   -0.083468
     2  C    0.001603
     3  N   -0.209326
     4  H    0.096760
     5  H    0.096461
     6  H    0.097970
 Sum of Mulliken charges =   0.00000

 Dipole moment (field-independent basis, Debye):
    X=              4.1337    Y=             -0.0144    Z=             -0.0029  Tot=              4.1338
 Quadrupole moment (field-independent basis, Debye-Ang):
   XX=            -20.9792   YY=            -17.7595   ZZ=            -17.8367
   XY=              0.0116   XZ=              0.0488   YZ=             -0.0065

 Normal termination of Gaussian 09 at Thu Aug 27 00:11:52 2020.
