 Gaussian 09, Revision D.01,
 Gaussian 09:  ES64L-G09RevD.01 24-Apr-2013

 --------------------
 #p B2PLYPD3/Def2QZVP
 --------------------

 ------------
 cyanomethane
 ------------
 Symbolic Z-matrix:
 Charge =  0 Multiplicity = 1

                         Standard orientation:
 ---------------------------------------------------------------------
 Center     Atomic      Atomic             Coordinates (Angstroms)
 Number     Number       Type             X           Y           Z
 ---------------------------------------------------------------------
      1          6           0        1.199010    0.012690   -0.016409
      2          6           0       -0.263779   -0.056074    0.048265
      3          7           0       -1.455575    0.034469   -0.019023
      4          1           0        1.415325   -0.826045   -0.590807
      5          1           0        1.577047   -0.075759    0.959879
      6          1           0        1.585264    0.920829   -0.427045
 ---------------------------------------------------------------------

 SCF Done:  E(RB2PLYPD3) =  -132.521872136     A.U. after   13 cycles
 E2(B2PLYPD3) =    -0.1841132987D+00 E(B2PLYPD3) =    -0.13270598543478D+03

 The electronic state is 1-A.
 Alpha  occ. eigenvalues --  -14.85359 -10.67473 -10.66271  -1.02470  -0.90165
 Alpha  occ. eigenvalues --   -0.60089  -0.55637  -0.54231  -0.44856  -0.38131
 Alpha  occ. eigenvalues --   -0.38114
 Alpha virt. eigenvalues --    0.03596   0.06924   0.08134   0.09953   0.10780
 Alpha virt. eigenvalues --    0.11182   0.14989   0.15536   0.16730   0.20285
 Alpha virt. eigenvalues --    0.20307   0.25514   0.32425   0.34863   0.35114

 Mulliken charges:
               1
     1  C   -0.079240
     2  C    0.005357
     3  N   -0.225094
     4  H    0.104294
     5  H    0.095353
     6  H    0.099330
 Sum of Mulliken charges =   0.00000

 Dipole moment (field-independent basis, Debye):
    X=              4.1767    Y=             -0.0413    Z=              0.0286  Tot=              4.1770
 Quadrupole moment (field-independent basis, Debye-Ang):
   XX=            -21.0392   YY=            -17.7565   ZZ=            -17.8987
   XY=              0.2763   XZ=              0.0208   YZ=              0.0578

 Normal termination of Gaussian 09 at Wed Aug 26 23:36:27 2020.
