 Gaussian 09, Revision D.01,
 Gaussian 09:  ES64L-G09RevD.01 24-Apr-2013

 --------------------
 #p B2PLYPD3/Def2QZVP
 --------------------

 ------------
 cyanomethane
 ------------
 Symbolic Z-matrix:
 Charge =  0 Multiplicity = 1

                         Standard orientation:
 ---------------------------------------------------------------------
 Center     Atomic      Atomic             Coordinates (Angstroms)
 Number     Number       Type             X           Y           Z
 ---------------------------------------------------------------------
      1          6           0       -1.193029    0.012290    0.014851
      2          6           0        0.285702    0.018456    0.023352
      3          7           0        1.438267   -0.014162   -0.020862
      4          1           0       -1.454977   -0.249517    0.965474
      5          1           0       -1.638423   -0.807534   -0.704875
      6          1           0       -1.530508    0.971707   -0.343784
 ---------------------------------------------------------------------

 SCF Done:  E(RB2PLYPD3) =  -132.525482602     A.U. after   12 cycles
 E2(B2PLYPD3) =    -0.1805997952D+00 E(B2PLYPD3) =    -0.13270608239756D+03

 The electronic state is 1-A.
 Alpha  occ. eigenvalues --  -14.84162 -10.67418 -10.66256  -1.04084  -0.89084
 Alpha  occ. eigenvalues --   -0.58813  -0.56218  -0.51866  -0.44702  -0.39330
 Alpha  occ. eigenvalues --   -0.38882
 Alpha virt. eigenvalues --    0.03474   0.07274   0.08929   0.10218   0.11018
 Alpha virt. eigenvalues --    0.11618   0.15196   0.15749   0.16643   0.20007
 Alpha virt. eigenvalues --    0.20148   0.24942   0.31920   0.33570   0.35632

 Mulliken charges:
               1
     1  C   -0.094775
     2  C   -0.003443
     3  N   -0.205439
     4  H    0.108369
     5  H    0.089834
     6  H    0.105454
 Sum of Mulliken charges =   0.00000

 Dipole moment (field-independent basis, Debye):
    X=             -4.1165    Y=              0.0215    Z=              0.0451  Tot=              4.1168
 Quadrupole moment (field-independent basis, Debye-Ang):
   XX=            -21.1288   YY=            -17.7126   ZZ=            -17.7644
   XY=              0.1431   XZ=              0.2117   YZ=             -0.1431

 Normal termination of Gaussian 09 at Wed Aug 26 14:49:04 2020.
