 Gaussian 09, Revision D.01,
 Gaussian 09:  ES64L-G09RevD.01 24-Apr-2013

 --------------------
 #p B2PLYPD3/Def2QZVP
 --------------------

 ------------
 cyanomethane
 ------------
 Symbolic Z-matrix:
 Charge =  0 Multiplicity = 1

                         Standard orientation:
 ---------------------------------------------------------------------
 Center     Atomic      Atomic             Coordinates (Angstroms)
 Number     Number       Type             X           Y           Z
 ---------------------------------------------------------------------
      1          6           0       -1.181549   -0.009673    0.014078
      2          6           0        0.278309   -0.029489   -0.012246
      3          7           0        1.442115    0.015726    0.002228
      4          1           0       -1.528611   -0.354427    0.925971
      5          1           0       -1.594529   -0.570875   -0.818575
      6          1           0       -1.552225    1.050194   -0.133984
 ---------------------------------------------------------------------

 SCF Done:  E(RB2PLYPD3) =  -132.531342041     A.U. after   11 cycles
 E2(B2PLYPD3) =    -0.1813511084D+00 E(B2PLYPD3) =    -0.13271269314895D+03

 The electronic state is 1-A.
 Alpha  occ. eigenvalues --  -14.84532 -10.67027 -10.66619  -1.03734  -0.89346
 Alpha  occ. eigenvalues --   -0.60022  -0.55253  -0.52663  -0.44864  -0.39033
 Alpha  occ. eigenvalues --   -0.38677
 Alpha virt. eigenvalues --    0.03674   0.07399   0.08125   0.10165   0.11100
 Alpha virt. eigenvalues --    0.11546   0.15380   0.16244   0.16491   0.20061
 Alpha virt. eigenvalues --    0.20182   0.25321   0.32530   0.33757   0.35498

 Mulliken charges:
               1
     1  C   -0.078812
     2  C    0.001192
     3  N   -0.210629
     4  H    0.101916
     5  H    0.095151
     6  H    0.091183
 Sum of Mulliken charges =   0.00000

 Dipole moment (field-independent basis, Debye):
    X=             -4.1465    Y=             -0.0150    Z=             -0.0052  Tot=              4.1465
 Quadrupole moment (field-independent basis, Debye-Ang):
   XX=            -20.9383   YY=            -17.8821   ZZ=            -17.7218
   XY=             -0.0952   XZ=              0.0452   YZ=             -0.0282

 Normal termination of Gaussian 09 at Wed Aug 26 14:40:43 2020.
