 Gaussian 09, Revision D.01,
 Gaussian 09:  ES64L-G09RevD.01 24-Apr-2013

 --------------------
 #p B2PLYPD3/Def2QZVP
 --------------------

 ------------
 cyanomethane
 ------------
 Symbolic Z-matrix:
 Charge =  0 Multiplicity = 1

                         Standard orientation:
 ---------------------------------------------------------------------
 Center     Atomic      Atomic             Coordinates (Angstroms)
 Number     Number       Type             X           Y           Z
 ---------------------------------------------------------------------
      1          6           0       -1.174060    0.003051   -0.005633
      2          6           0        0.267219    0.015970    0.038773
      3          7           0        1.431159   -0.012161   -0.021045
      4          1           0       -1.487131    0.963606   -0.344798
      5          1           0       -1.515017   -0.209465    0.970096
      6          1           0       -1.574921   -0.783141   -0.676821
 ---------------------------------------------------------------------

 SCF Done:  E(RB2PLYPD3) =  -132.532018343     A.U. after   12 cycles
 E2(B2PLYPD3) =    -0.1813373357D+00 E(B2PLYPD3) =    -0.13271335567842D+03

 The electronic state is 1-A.
 Alpha  occ. eigenvalues --  -14.84419 -10.66614 -10.66416  -1.03684  -0.89920
 Alpha  occ. eigenvalues --   -0.59791  -0.55403  -0.53663  -0.44778  -0.38770
 Alpha  occ. eigenvalues --   -0.38627
 Alpha virt. eigenvalues --    0.03722   0.07437   0.08325   0.10097   0.11211
 Alpha virt. eigenvalues --    0.11492   0.15485   0.15685   0.16605   0.20134
 Alpha virt. eigenvalues --    0.20197   0.25699   0.32931   0.34350   0.35034

 Mulliken charges:
               1
     1  C   -0.083947
     2  C    0.000132
     3  N   -0.212825
     4  H    0.101833
     5  H    0.098821
     6  H    0.095986
 Sum of Mulliken charges =   0.00000

 Dipole moment (field-independent basis, Debye):
    X=             -4.1287    Y=              0.0132    Z=              0.0373  Tot=              4.1289
 Quadrupole moment (field-independent basis, Debye-Ang):
   XX=            -21.0849   YY=            -17.6803   ZZ=            -17.7666
   XY=              0.1389   XZ=              0.1139   YZ=             -0.0543

 Normal termination of Gaussian 09 at Wed Aug 26 15:57:28 2020.
