 Gaussian 09, Revision D.01,
 Gaussian 09:  ES64L-G09RevD.01 24-Apr-2013

 --------------------
 #p B2PLYPD3/Def2QZVP
 --------------------

 ------------
 cyanomethane
 ------------
 Symbolic Z-matrix:
 Charge =  0 Multiplicity = 1

                         Standard orientation:
 ---------------------------------------------------------------------
 Center     Atomic      Atomic             Coordinates (Angstroms)
 Number     Number       Type             X           Y           Z
 ---------------------------------------------------------------------
      1          6           0        1.174861   -0.008530   -0.005715
      2          6           0       -0.266868    0.016752    0.014336
      3          7           0       -1.432960   -0.007162   -0.003933
      4          1           0        1.566129   -0.117197    1.003504
      5          1           0        1.519821    0.957491   -0.415732
      6          1           0        1.496805   -0.839493   -0.611962
 ---------------------------------------------------------------------

 SCF Done:  E(RB2PLYPD3) =  -132.533745589     A.U. after   11 cycles
 E2(B2PLYPD3) =    -0.1814951779D+00 E(B2PLYPD3) =    -0.13271524076670D+03

 The electronic state is 1-A.
 Alpha  occ. eigenvalues --  -14.84414 -10.67060 -10.66445  -1.03631  -0.89603
 Alpha  occ. eigenvalues --   -0.59622  -0.54656  -0.53869  -0.44756  -0.38692
 Alpha  occ. eigenvalues --   -0.38601
 Alpha virt. eigenvalues --    0.03751   0.07661   0.07745   0.10129   0.11357
 Alpha virt. eigenvalues --    0.11420   0.15402   0.15943   0.16228   0.20149
 Alpha virt. eigenvalues --    0.20182   0.25610   0.32701   0.34253   0.34756

 Mulliken charges:
               1
     1  C   -0.089384
     2  C    0.000186
     3  N   -0.213075
     4  H    0.098418
     5  H    0.100031
     6  H    0.103824
 Sum of Mulliken charges =   0.00000

 Dipole moment (field-independent basis, Debye):
    X=              4.1322    Y=              0.0064    Z=              0.0116  Tot=              4.1322
 Quadrupole moment (field-independent basis, Debye-Ang):
   XX=            -21.1586   YY=            -17.6725   ZZ=            -17.7934
   XY=             -0.0309   XZ=              0.0504   YZ=              0.0238

 Normal termination of Gaussian 09 at Thu Aug 27 00:13:05 2020.
