 Gaussian 09, Revision D.01,
 Gaussian 09:  ES64L-G09RevD.01 24-Apr-2013

 --------------------
 #p B2PLYPD3/Def2QZVP
 --------------------

 ------------
 cyanomethane
 ------------
 Symbolic Z-matrix:
 Charge =  0 Multiplicity = 1

                         Standard orientation:
 ---------------------------------------------------------------------
 Center     Atomic      Atomic             Coordinates (Angstroms)
 Number     Number       Type             X           Y           Z
 ---------------------------------------------------------------------
      1          6           0        1.199447    0.015881    0.001454
      2          6           0       -0.289618   -0.018793   -0.014250
      3          7           0       -1.434537    0.009108    0.011220
      4          1           0        1.571974   -0.423210    0.936741
      5          1           0        1.531069    1.013778   -0.123417
      6          1           0        1.479744   -0.636853   -0.815095
 ---------------------------------------------------------------------

 SCF Done:  E(RB2PLYPD3) =  -132.533911512     A.U. after   12 cycles
 E2(B2PLYPD3) =    -0.1796221933D+00 E(B2PLYPD3) =    -0.13271353370575D+03

 The electronic state is 1-A.
 Alpha  occ. eigenvalues --  -14.83840 -10.67182 -10.65964  -1.04331  -0.88992
 Alpha  occ. eigenvalues --   -0.58615  -0.55024  -0.53561  -0.44579  -0.39458
 Alpha  occ. eigenvalues --   -0.39235
 Alpha virt. eigenvalues --    0.03770   0.08244   0.08702   0.10224   0.11259
 Alpha virt. eigenvalues --    0.11478   0.15128   0.15606   0.16675   0.20018
 Alpha virt. eigenvalues --    0.20086   0.24772   0.32544   0.34242   0.35251

 Mulliken charges:
               1
     1  C   -0.094920
     2  C   -0.006885
     3  N   -0.202124
     4  H    0.098166
     5  H    0.105316
     6  H    0.100446
 Sum of Mulliken charges =   0.00000

 Dipole moment (field-independent basis, Debye):
    X=              4.1186    Y=             -0.0263    Z=             -0.0202  Tot=              4.1188
 Quadrupole moment (field-independent basis, Debye-Ang):
   XX=            -21.1768   YY=            -17.5897   ZZ=            -17.7593
   XY=              0.0328   XZ=              0.1259   YZ=              0.0002

 Normal termination of Gaussian 09 at Wed Aug 26 12:58:59 2020.
