 Gaussian 09, Revision D.01,
 Gaussian 09:  ES64L-G09RevD.01 24-Apr-2013

 --------------------
 #p B2PLYPD3/Def2QZVP
 --------------------

 ------------
 cyanomethane
 ------------
 Symbolic Z-matrix:
 Charge =  0 Multiplicity = 1

                         Standard orientation:
 ---------------------------------------------------------------------
 Center     Atomic      Atomic             Coordinates (Angstroms)
 Number     Number       Type             X           Y           Z
 ---------------------------------------------------------------------
      1          6           0       -1.208401   -0.035567   -0.013719
      2          6           0        0.277219    0.010367    0.054497
      3          7           0        1.442146   -0.004672   -0.028468
      4          1           0       -1.482833    0.059803    0.965486
      5          1           0       -1.539454   -0.837906   -0.504180
      6          1           0       -1.485647    0.962005   -0.506695
 ---------------------------------------------------------------------

 SCF Done:  E(RB2PLYPD3) =  -132.519211280     A.U. after   12 cycles
 E2(B2PLYPD3) =    -0.1815019023D+00 E(B2PLYPD3) =    -0.13270071318236D+03

 The electronic state is 1-A.
 Alpha  occ. eigenvalues --  -14.84438 -10.66580 -10.66493  -1.03449  -0.89945
 Alpha  occ. eigenvalues --   -0.59472  -0.56782  -0.53021  -0.44608  -0.39032
 Alpha  occ. eigenvalues --   -0.38507
 Alpha virt. eigenvalues --    0.03651   0.07888   0.08812   0.10010   0.10910
 Alpha virt. eigenvalues --    0.11332   0.14932   0.15227   0.16791   0.20058
 Alpha virt. eigenvalues --    0.20253   0.24936   0.32129   0.33437   0.36138

 Mulliken charges:
               1
     1  C   -0.093156
     2  C   -0.000552
     3  N   -0.214722
     4  H    0.103256
     5  H    0.109826
     6  H    0.095347
 Sum of Mulliken charges =   0.00000

 Dipole moment (field-independent basis, Debye):
    X=             -4.1370    Y=              0.0229    Z=              0.0664  Tot=              4.1376
 Quadrupole moment (field-independent basis, Debye-Ang):
   XX=            -21.2404   YY=            -17.5912   ZZ=            -17.7964
   XY=              0.0252   XZ=              0.0992   YZ=              0.1300

 Normal termination of Gaussian 09 at Wed Aug 26 18:56:58 2020.
