 Gaussian 09, Revision D.01,
 Gaussian 09:  ES64L-G09RevD.01 24-Apr-2013

 --------------------
 #p B2PLYPD3/Def2QZVP
 --------------------

 ------------
 cyanomethane
 ------------
 Symbolic Z-matrix:
 Charge =  0 Multiplicity = 1

                         Standard orientation:
 ---------------------------------------------------------------------
 Center     Atomic      Atomic             Coordinates (Angstroms)
 Number     Number       Type             X           Y           Z
 ---------------------------------------------------------------------
      1          6           0        1.160725   -0.009818   -0.017740
      2          6           0       -0.267997    0.036342    0.003966
      3          7           0       -1.431726   -0.021082   -0.002703
      4          1           0        1.514153    1.030652   -0.011339
      5          1           0        1.609761   -0.561145   -0.795469
      6          1           0        1.541803   -0.481079    0.908365
 ---------------------------------------------------------------------

 SCF Done:  E(RB2PLYPD3) =  -132.531061505     A.U. after   12 cycles
 E2(B2PLYPD3) =    -0.1815115971D+00 E(B2PLYPD3) =    -0.13271257310188D+03

 The electronic state is 1-A.
 Alpha  occ. eigenvalues --  -14.84517 -10.66762 -10.66512  -1.03813  -0.89788
 Alpha  occ. eigenvalues --   -0.61002  -0.54459  -0.53166  -0.44928  -0.38814
 Alpha  occ. eigenvalues --   -0.38553
 Alpha virt. eigenvalues --    0.03747   0.07306   0.07686   0.09987   0.11387
 Alpha virt. eigenvalues --    0.11683   0.15532   0.15917   0.17159   0.20087
 Alpha virt. eigenvalues --    0.20269   0.25941   0.32917   0.33967   0.35174

 Mulliken charges:
               1
     1  C   -0.074821
     2  C    0.004869
     3  N   -0.211537
     4  H    0.094468
     5  H    0.097157
     6  H    0.089865
 Sum of Mulliken charges =   0.00000

 Dipole moment (field-independent basis, Debye):
    X=              4.1373    Y=              0.0128    Z=              0.0206  Tot=              4.1373
 Quadrupole moment (field-independent basis, Debye-Ang):
   XX=            -20.8793   YY=            -17.6887   ZZ=            -17.9131
   XY=             -0.2069   XZ=             -0.0097   YZ=              0.0490

 Normal termination of Gaussian 09 at Wed Aug 26 10:42:45 2020.
