 Gaussian 09, Revision D.01,
 Gaussian 09:  ES64L-G09RevD.01 24-Apr-2013

 --------------------
 #p B2PLYPD3/Def2QZVP
 --------------------

 ------------
 cyanomethane
 ------------
 Symbolic Z-matrix:
 Charge =  0 Multiplicity = 1

                         Standard orientation:
 ---------------------------------------------------------------------
 Center     Atomic      Atomic             Coordinates (Angstroms)
 Number     Number       Type             X           Y           Z
 ---------------------------------------------------------------------
      1          6           0       -1.202823   -0.004040   -0.003166
      2          6           0        0.291566    0.049913    0.011752
      3          7           0        1.441425   -0.011747   -0.000909
      4          1           0       -1.546164   -0.401340    0.933000
      5          1           0       -1.363986   -0.751542   -0.765262
      6          1           0       -1.712282    0.959872   -0.212889
 ---------------------------------------------------------------------

 SCF Done:  E(RB2PLYPD3) =  -132.531453614     A.U. after   12 cycles
 E2(B2PLYPD3) =    -0.1803309291D+00 E(B2PLYPD3) =    -0.13271178454304D+03

 The electronic state is 1-A.
 Alpha  occ. eigenvalues --  -14.84057 -10.67517 -10.66295  -1.04129  -0.88758
 Alpha  occ. eigenvalues --   -0.58873  -0.54081  -0.53659  -0.44630  -0.39326
 Alpha  occ. eigenvalues --   -0.39101
 Alpha virt. eigenvalues --    0.03709   0.07878   0.08532   0.10359   0.11198
 Alpha virt. eigenvalues --    0.11524   0.14829   0.15648   0.16925   0.20006
 Alpha virt. eigenvalues --    0.20133   0.24692   0.32055   0.34341   0.35186

 Mulliken charges:
               1
     1  C   -0.097204
     2  C   -0.002799
     3  N   -0.205256
     4  H    0.099325
     5  H    0.105486
     6  H    0.100448
 Sum of Mulliken charges =   0.00000

 Dipole moment (field-independent basis, Debye):
    X=             -4.1429    Y=             -0.0219    Z=              0.0069  Tot=              4.1430
 Quadrupole moment (field-independent basis, Debye-Ang):
   XX=            -21.0662   YY=            -17.6604   ZZ=            -17.8568
   XY=             -0.0987   XZ=             -0.1064   YZ=              0.0088

 Normal termination of Gaussian 09 at Wed Aug 26 23:47:01 2020.
