 Gaussian 09, Revision D.01,
 Gaussian 09:  ES64L-G09RevD.01 24-Apr-2013

 --------------------
 #p B2PLYPD3/Def2QZVP
 --------------------

 ------------
 cyanomethane
 ------------
 Symbolic Z-matrix:
 Charge =  0 Multiplicity = 1

                         Standard orientation:
 ---------------------------------------------------------------------
 Center     Atomic      Atomic             Coordinates (Angstroms)
 Number     Number       Type             X           Y           Z
 ---------------------------------------------------------------------
      1          6           0        1.182527   -0.007735   -0.006894
      2          6           0       -0.273381    0.024683    0.009596
      3          7           0       -1.438150   -0.010966   -0.001931
      4          1           0        1.568871   -0.067825    1.014551
      5          1           0        1.536044    0.928526   -0.459707
      6          1           0        1.507258   -0.885627   -0.557541
 ---------------------------------------------------------------------

 SCF Done:  E(RB2PLYPD3) =  -132.534047783     A.U. after   11 cycles
 E2(B2PLYPD3) =    -0.1814480421D+00 E(B2PLYPD3) =    -0.13271549582500D+03

 The electronic state is 1-A.
 Alpha  occ. eigenvalues --  -14.84436 -10.67284 -10.66509  -1.03653  -0.89256
 Alpha  occ. eigenvalues --   -0.59426  -0.54500  -0.53633  -0.44763  -0.38794
 Alpha  occ. eigenvalues --   -0.38706
 Alpha virt. eigenvalues --    0.03718   0.07666   0.07810   0.10149   0.11267
 Alpha virt. eigenvalues --    0.11403   0.15303   0.15980   0.16282   0.20110
 Alpha virt. eigenvalues --    0.20173   0.25379   0.32565   0.34295   0.34705

 Mulliken charges:
               1
     1  C   -0.089773
     2  C   -0.000194
     3  N   -0.211789
     4  H    0.097575
     5  H    0.100626
     6  H    0.103556
 Sum of Mulliken charges =   0.00000

 Dipole moment (field-independent basis, Debye):
    X=              4.1355    Y=              0.0107    Z=              0.0137  Tot=              4.1356
 Quadrupole moment (field-independent basis, Debye-Ang):
   XX=            -21.1361   YY=            -17.6686   ZZ=            -17.8408
   XY=             -0.0450   XZ=              0.0625   YZ=              0.0126

 Normal termination of Gaussian 09 at Wed Aug 26 22:04:44 2020.
