 Gaussian 09, Revision D.01,
 Gaussian 09:  ES64L-G09RevD.01 24-Apr-2013

 --------------------
 #p B2PLYPD3/Def2QZVP
 --------------------

 ------------
 cyanomethane
 ------------
 Symbolic Z-matrix:
 Charge =  0 Multiplicity = 1

                         Standard orientation:
 ---------------------------------------------------------------------
 Center     Atomic      Atomic             Coordinates (Angstroms)
 Number     Number       Type             X           Y           Z
 ---------------------------------------------------------------------
      1          6           0        1.170600   -0.005141   -0.010310
      2          6           0       -0.284854   -0.023347    0.021069
      3          7           0       -1.420735    0.016274   -0.012380
      4          1           0        1.596353    1.006106   -0.272847
      5          1           0        1.533220   -0.727038   -0.681327
      6          1           0        1.501102   -0.222062    0.976276
 ---------------------------------------------------------------------

 SCF Done:  E(RB2PLYPD3) =  -132.533449848     A.U. after   12 cycles
 E2(B2PLYPD3) =    -0.1789214798D+00 E(B2PLYPD3) =    -0.13271237132822D+03

 The electronic state is 1-A.
 Alpha  occ. eigenvalues --  -14.83673 -10.66720 -10.65677  -1.04821  -0.89452
 Alpha  occ. eigenvalues --   -0.59691  -0.54993  -0.53162  -0.44717  -0.39603
 Alpha  occ. eigenvalues --   -0.39363
 Alpha virt. eigenvalues --    0.03741   0.07891   0.08809   0.10193   0.11529
 Alpha virt. eigenvalues --    0.11768   0.15529   0.15878   0.17081   0.19991
 Alpha virt. eigenvalues --    0.20062   0.25477   0.32994   0.34273   0.35310

 Mulliken charges:
               1
     1  C   -0.083501
     2  C   -0.004742
     3  N   -0.197188
     4  H    0.092201
     5  H    0.098631
     6  H    0.094599
 Sum of Mulliken charges =   0.00000

 Dipole moment (field-independent basis, Debye):
    X=              4.0939    Y=             -0.0384    Z=              0.0412  Tot=              4.0943
 Quadrupole moment (field-independent basis, Debye-Ang):
   XX=            -20.9545   YY=            -17.6501   ZZ=            -17.7074
   XY=              0.1269   XZ=             -0.0618   YZ=              0.0554

 Normal termination of Gaussian 09 at Wed Aug 26 13:18:43 2020.
