 Gaussian 09, Revision D.01,
 Gaussian 09:  ES64L-G09RevD.01 24-Apr-2013

 --------------------
 #p B2PLYPD3/Def2QZVP
 --------------------

 ------------
 cyanomethane
 ------------
 Symbolic Z-matrix:
 Charge =  0 Multiplicity = 1

                         Standard orientation:
 ---------------------------------------------------------------------
 Center     Atomic      Atomic             Coordinates (Angstroms)
 Number     Number       Type             X           Y           Z
 ---------------------------------------------------------------------
      1          6           0       -1.163931   -0.003764   -0.007537
      2          6           0        0.276474    0.009118    0.008727
      3          7           0        1.430626   -0.001996   -0.002309
      4          1           0       -1.579850   -0.102777    1.002922
      5          1           0       -1.525034   -0.831998   -0.579559
      6          1           0       -1.584749    0.916624   -0.414341
 ---------------------------------------------------------------------

 SCF Done:  E(RB2PLYPD3) =  -132.535162671     A.U. after   11 cycles
 E2(B2PLYPD3) =    -0.1804315035D+00 E(B2PLYPD3) =    -0.13271559417469D+03

 The electronic state is 1-A.
 Alpha  occ. eigenvalues --  -14.84233 -10.66801 -10.66245  -1.04211  -0.89539
 Alpha  occ. eigenvalues --   -0.60514  -0.54297  -0.53360  -0.44880  -0.39097
 Alpha  occ. eigenvalues --   -0.38978
 Alpha virt. eigenvalues --    0.03793   0.07662   0.07907   0.10151   0.11502
 Alpha virt. eigenvalues --    0.11628   0.15571   0.16442   0.16656   0.20077
 Alpha virt. eigenvalues --    0.20116   0.25676   0.32922   0.34515   0.34995

 Mulliken charges:
               1
     1  C   -0.073312
     2  C    0.000560
     3  N   -0.205874
     4  H    0.090249
     5  H    0.095804
     6  H    0.092573
 Sum of Mulliken charges =   0.00000

 Dipole moment (field-independent basis, Debye):
    X=             -4.1319    Y=             -0.0025    Z=              0.0071  Tot=              4.1319
 Quadrupole moment (field-independent basis, Debye-Ang):
   XX=            -20.8369   YY=            -17.7383   ZZ=            -17.8198
   XY=             -0.0188   XZ=             -0.0239   YZ=              0.0237

 Normal termination of Gaussian 09 at Thu Aug 27 00:04:05 2020.
