 Gaussian 09, Revision D.01,
 Gaussian 09:  ES64L-G09RevD.01 24-Apr-2013

 --------------------
 #p B2PLYPD3/Def2QZVP
 --------------------

 ------------
 cyanomethane
 ------------
 Symbolic Z-matrix:
 Charge =  0 Multiplicity = 1

                         Standard orientation:
 ---------------------------------------------------------------------
 Center     Atomic      Atomic             Coordinates (Angstroms)
 Number     Number       Type             X           Y           Z
 ---------------------------------------------------------------------
      1          6           0        1.172347    0.009549   -0.012735
      2          6           0       -0.281405   -0.015254   -0.014657
      3          7           0       -1.443220    0.010179    0.011548
      4          1           0        1.534556   -0.588917   -0.821989
      5          1           0        1.594846   -0.473127    0.943614
      6          1           0        1.627484    1.025022   -0.038115
 ---------------------------------------------------------------------

 SCF Done:  E(RB2PLYPD3) =  -132.530527783     A.U. after   12 cycles
 E2(B2PLYPD3) =    -0.1815832439D+00 E(B2PLYPD3) =    -0.13271211102685D+03

 The electronic state is 1-A.
 Alpha  occ. eigenvalues --  -14.84573 -10.67745 -10.66661  -1.03907  -0.88783
 Alpha  occ. eigenvalues --   -0.60207  -0.54198  -0.52014  -0.44970  -0.39034
 Alpha  occ. eigenvalues --   -0.38709
 Alpha virt. eigenvalues --    0.03554   0.06875   0.07799   0.10110   0.11271
 Alpha virt. eigenvalues --    0.11690   0.15415   0.16109   0.17061   0.20048
 Alpha virt. eigenvalues --    0.20198   0.25446   0.32361   0.33627   0.34969

 Mulliken charges:
               1
     1  C   -0.080623
     2  C    0.003564
     3  N   -0.207986
     4  H    0.099027
     5  H    0.088738
     6  H    0.097280
 Sum of Mulliken charges =   0.00000

 Dipole moment (field-independent basis, Debye):
    X=              4.1394    Y=             -0.0275    Z=             -0.0164  Tot=              4.1396
 Quadrupole moment (field-independent basis, Debye-Ang):
   XX=            -20.8560   YY=            -17.8126   ZZ=            -17.9320
   XY=              0.0745   XZ=              0.1155   YZ=              0.0758

 Normal termination of Gaussian 09 at Wed Aug 26 12:48:18 2020.
