 Gaussian 09, Revision D.01,
 Gaussian 09:  ES64L-G09RevD.01 24-Apr-2013

 --------------------
 #p B2PLYPD3/Def2QZVP
 --------------------

 ------------
 cyanomethane
 ------------
 Symbolic Z-matrix:
 Charge =  0 Multiplicity = 1

                         Standard orientation:
 ---------------------------------------------------------------------
 Center     Atomic      Atomic             Coordinates (Angstroms)
 Number     Number       Type             X           Y           Z
 ---------------------------------------------------------------------
      1          6           0       -1.147401    0.016802    0.019938
      2          6           0        0.265894    0.024461    0.052294
      3          7           0        1.426356   -0.010739   -0.033186
      4          1           0       -1.514235   -0.239764    0.993016
      5          1           0       -1.552881   -0.921208   -0.736403
      6          1           0       -1.628333    0.988565   -0.457704
 ---------------------------------------------------------------------

 SCF Done:  E(RB2PLYPD3) =  -132.510353371     A.U. after   12 cycles
 E2(B2PLYPD3) =    -0.1828676847D+00 E(B2PLYPD3) =    -0.13269322105599D+03

 The electronic state is 1-A.
 Alpha  occ. eigenvalues --  -14.84549 -10.69095 -10.66453  -1.03939  -0.88639
 Alpha  occ. eigenvalues --   -0.59638  -0.54386  -0.50298  -0.44985  -0.38794
 Alpha  occ. eigenvalues --   -0.37919
 Alpha virt. eigenvalues --    0.02674   0.05415   0.07532   0.09998   0.11311
 Alpha virt. eigenvalues --    0.12244   0.15503   0.15810   0.16855   0.19992
 Alpha virt. eigenvalues --    0.20250   0.25981   0.30718   0.32302   0.34578

 Mulliken charges:
               1
     1  C   -0.110537
     2  C    0.009853
     3  N   -0.207635
     4  H    0.111294
     5  H    0.091039
     6  H    0.105987
 Sum of Mulliken charges =   0.00000

 Dipole moment (field-independent basis, Debye):
    X=             -4.0648    Y=              0.0109    Z=              0.0649  Tot=              4.0653
 Quadrupole moment (field-independent basis, Debye-Ang):
   XX=            -21.2155   YY=            -17.8583   ZZ=            -17.8337
   XY=              0.0250   XZ=              0.2179   YZ=             -0.1775

 Normal termination of Gaussian 09 at Wed Aug 26 16:32:19 2020.
