 Gaussian 09, Revision D.01,
 Gaussian 09:  ES64L-G09RevD.01 24-Apr-2013

 --------------------
 #p B2PLYPD3/Def2QZVP
 --------------------

 ------------
 cyanomethane
 ------------
 Symbolic Z-matrix:
 Charge =  0 Multiplicity = 1

                         Standard orientation:
 ---------------------------------------------------------------------
 Center     Atomic      Atomic             Coordinates (Angstroms)
 Number     Number       Type             X           Y           Z
 ---------------------------------------------------------------------
      1          6           0        1.182623   -0.003783   -0.013951
      2          6           0       -0.274884    0.018526   -0.012316
      3          7           0       -1.431942   -0.011069    0.015292
      4          1           0        1.627156   -0.478013    0.919381
      5          1           0        1.496903    1.041002   -0.035268
      6          1           0        1.453094   -0.573964   -0.833549
 ---------------------------------------------------------------------

 SCF Done:  E(RB2PLYPD3) =  -132.529900967     A.U. after   12 cycles
 E2(B2PLYPD3) =    -0.1808015827D+00 E(B2PLYPD3) =    -0.13271070254969D+03

 The electronic state is 1-A.
 Alpha  occ. eigenvalues --  -14.84185 -10.67103 -10.66239  -1.03943  -0.89490
 Alpha  occ. eigenvalues --   -0.59173  -0.55856  -0.52719  -0.44694  -0.39054
 Alpha  occ. eigenvalues --   -0.38761
 Alpha virt. eigenvalues --    0.03674   0.07363   0.08607   0.10170   0.11195
 Alpha virt. eigenvalues --    0.11595   0.15311   0.15682   0.16550   0.20074
 Alpha virt. eigenvalues --    0.20175   0.25323   0.32492   0.33873   0.35269

 Mulliken charges:
               1
     1  C   -0.092988
     2  C   -0.002347
     3  N   -0.208776
     4  H    0.093679
     5  H    0.102998
     6  H    0.107434
 Sum of Mulliken charges =   0.00000

 Dipole moment (field-independent basis, Debye):
    X=              4.1166    Y=              0.0109    Z=             -0.0240  Tot=              4.1167
 Quadrupole moment (field-independent basis, Debye-Ang):
   XX=            -21.1719   YY=            -17.6253   ZZ=            -17.7983
   XY=             -0.1054   XZ=              0.2148   YZ=              0.0978

 Normal termination of Gaussian 09 at Wed Aug 26 13:17:36 2020.
