 Gaussian 09, Revision D.01,
 Gaussian 09:  ES64L-G09RevD.01 24-Apr-2013

 --------------------
 #p B2PLYPD3/Def2QZVP
 --------------------

 ------------
 cyanomethane
 ------------
 Symbolic Z-matrix:
 Charge =  0 Multiplicity = 1

                         Standard orientation:
 ---------------------------------------------------------------------
 Center     Atomic      Atomic             Coordinates (Angstroms)
 Number     Number       Type             X           Y           Z
 ---------------------------------------------------------------------
      1          6           0       -1.157364    0.001736    0.000718
      2          6           0        0.269838    0.031211    0.003284
      3          7           0        1.429845   -0.022486   -0.004943
      4          1           0       -1.494015    1.028647   -0.201807
      5          1           0       -1.544734   -0.348929    0.967786
      6          1           0       -1.645005   -0.719996   -0.755388
 ---------------------------------------------------------------------

 SCF Done:  E(RB2PLYPD3) =  -132.529576451     A.U. after   12 cycles
 E2(B2PLYPD3) =    -0.1815739261D+00 E(B2PLYPD3) =    -0.13271115037754D+03

 The electronic state is 1-A.
 Alpha  occ. eigenvalues --  -14.84419 -10.67636 -10.66393  -1.03969  -0.89212
 Alpha  occ. eigenvalues --   -0.60219  -0.54322  -0.52269  -0.44915  -0.38793
 Alpha  occ. eigenvalues --   -0.38593
 Alpha virt. eigenvalues --    0.03533   0.06714   0.07736   0.10040   0.11429
 Alpha virt. eigenvalues --    0.11826   0.15468   0.16009   0.16943   0.20040
 Alpha virt. eigenvalues --    0.20254   0.25918   0.32677   0.33848   0.34430

 Mulliken charges:
               1
     1  C   -0.086848
     2  C    0.003304
     3  N   -0.208559
     4  H    0.100819
     5  H    0.097641
     6  H    0.093644
 Sum of Mulliken charges =   0.00000

 Dipole moment (field-independent basis, Debye):
    X=             -4.1164    Y=              0.0227    Z=              0.0298  Tot=              4.1166
 Quadrupole moment (field-independent basis, Debye-Ang):
   XX=            -20.9836   YY=            -17.6819   ZZ=            -17.9419
   XY=              0.2539   XZ=              0.0280   YZ=             -0.0563

 Normal termination of Gaussian 09 at Wed Aug 26 10:40:43 2020.
