 Gaussian 09, Revision D.01,
 Gaussian 09:  ES64L-G09RevD.01 24-Apr-2013

 --------------------
 #p B2PLYPD3/Def2QZVP
 --------------------

 ------------
 cyanomethane
 ------------
 Symbolic Z-matrix:
 Charge =  0 Multiplicity = 1

                         Standard orientation:
 ---------------------------------------------------------------------
 Center     Atomic      Atomic             Coordinates (Angstroms)
 Number     Number       Type             X           Y           Z
 ---------------------------------------------------------------------
      1          6           0       -1.185567   -0.009231   -0.014694
      2          6           0        0.285940    0.032383    0.005841
      3          7           0        1.434371   -0.014234   -0.003462
      4          1           0       -1.513808   -0.364248    0.964510
      5          1           0       -1.551648   -0.664148   -0.741885
      6          1           0       -1.577378    0.989128   -0.145274
 ---------------------------------------------------------------------

 SCF Done:  E(RB2PLYPD3) =  -132.534515994     A.U. after   12 cycles
 E2(B2PLYPD3) =    -0.1798425980D+00 E(B2PLYPD3) =    -0.13271435859195D+03

 The electronic state is 1-A.
 Alpha  occ. eigenvalues --  -14.84051 -10.66738 -10.66140  -1.04289  -0.89347
 Alpha  occ. eigenvalues --   -0.59674  -0.54829  -0.53566  -0.44744  -0.39393
 Alpha  occ. eigenvalues --   -0.39158
 Alpha virt. eigenvalues --    0.03821   0.08236   0.08303   0.10189   0.11293
 Alpha virt. eigenvalues --    0.11542   0.15365   0.15966   0.16811   0.20017
 Alpha virt. eigenvalues --    0.20106   0.25155   0.32745   0.34336   0.35465

 Mulliken charges:
               1
     1  C   -0.080230
     2  C   -0.002852
     3  N   -0.203806
     4  H    0.092838
     5  H    0.099244
     6  H    0.094806
 Sum of Mulliken charges =   0.00000

 Dipole moment (field-independent basis, Debye):
    X=             -4.1274    Y=              0.0122    Z=              0.0193  Tot=              4.1274
 Quadrupole moment (field-independent basis, Debye-Ang):
   XX=            -20.9559   YY=            -17.6793   ZZ=            -17.7711
   XY=              0.0672   XZ=              0.0144   YZ=              0.0448

 Normal termination of Gaussian 09 at Wed Aug 26 11:01:59 2020.
