 Gaussian 09, Revision D.01,
 Gaussian 09:  ES64L-G09RevD.01 24-Apr-2013

 --------------------
 #p B2PLYPD3/Def2QZVP
 --------------------

 ------------
 cyanomethane
 ------------
 Symbolic Z-matrix:
 Charge =  0 Multiplicity = 1

                         Standard orientation:
 ---------------------------------------------------------------------
 Center     Atomic      Atomic             Coordinates (Angstroms)
 Number     Number       Type             X           Y           Z
 ---------------------------------------------------------------------
      1          6           0        1.178779    0.007073   -0.004274
      2          6           0       -0.284888   -0.029258   -0.003315
      3          7           0       -1.436328    0.013455    0.002286
      4          1           0        1.547156    1.049375   -0.018493
      5          1           0        1.571508   -0.529932   -0.847251
      6          1           0        1.572286   -0.480519    0.895272
 ---------------------------------------------------------------------

 SCF Done:  E(RB2PLYPD3) =  -132.535273442     A.U. after   11 cycles
 E2(B2PLYPD3) =    -0.1803294539D+00 E(B2PLYPD3) =    -0.13271560289556D+03

 The electronic state is 1-A.
 Alpha  occ. eigenvalues --  -14.84190 -10.67243 -10.66269  -1.04226  -0.88991
 Alpha  occ. eigenvalues --   -0.59792  -0.53972  -0.53369  -0.44824  -0.39216
 Alpha  occ. eigenvalues --   -0.39123
 Alpha virt. eigenvalues --    0.03707   0.07740   0.08092   0.10188   0.11405
 Alpha virt. eigenvalues --    0.11529   0.15373   0.16220   0.16696   0.20045
 Alpha virt. eigenvalues --    0.20081   0.25297   0.32699   0.34422   0.34805

 Mulliken charges:
               1
     1  C   -0.081438
     2  C   -0.000957
     3  N   -0.204310
     4  H    0.097391
     5  H    0.096009
     6  H    0.093305
 Sum of Mulliken charges =   0.00000

 Dipole moment (field-independent basis, Debye):
    X=              4.1275    Y=             -0.0310    Z=             -0.0007  Tot=              4.1276
 Quadrupole moment (field-independent basis, Debye-Ang):
   XX=            -20.9278   YY=            -17.7130   ZZ=            -17.8395
   XY=              0.0253   XZ=              0.0222   YZ=              0.0203

 Normal termination of Gaussian 09 at Thu Aug 27 00:13:53 2020.
