 Gaussian 09, Revision D.01,
 Gaussian 09:  ES64L-G09RevD.01 24-Apr-2013

 --------------------
 #p B2PLYPD3/Def2QZVP
 --------------------

 ------------
 cyanomethane
 ------------
 Symbolic Z-matrix:
 Charge =  0 Multiplicity = 1

                         Standard orientation:
 ---------------------------------------------------------------------
 Center     Atomic      Atomic             Coordinates (Angstroms)
 Number     Number       Type             X           Y           Z
 ---------------------------------------------------------------------
      1          6           0        1.209959    0.004541   -0.027971
      2          6           0       -0.274403   -0.013509   -0.055147
      3          7           0       -1.453067    0.010170    0.047654
      4          1           0        1.301924   -0.597821   -0.768448
      5          1           0        1.706986   -0.460691    0.957821
      6          1           0        1.549226    1.041133   -0.024238
 ---------------------------------------------------------------------

 SCF Done:  E(RB2PLYPD3) =  -132.497890445     A.U. after   13 cycles
 E2(B2PLYPD3) =    -0.1837370000D+00 E(B2PLYPD3) =    -0.13268162744492D+03

 The electronic state is 1-A.
 Alpha  occ. eigenvalues --  -14.85011 -10.67286 -10.67133  -1.02987  -0.90010
 Alpha  occ. eigenvalues --   -0.59292  -0.57233  -0.50980  -0.44716  -0.38636
 Alpha  occ. eigenvalues --   -0.38106
 Alpha virt. eigenvalues --    0.03072   0.06260   0.09220   0.09827   0.10590
 Alpha virt. eigenvalues --    0.11429   0.14651   0.15365   0.16904   0.20061
 Alpha virt. eigenvalues --    0.20369   0.24844   0.31193   0.33101   0.35908

 Mulliken charges:
               1
     1  C   -0.110395
     2  C    0.001012
     3  N   -0.218145
     4  H    0.126468
     5  H    0.089441
     6  H    0.111619
 Sum of Mulliken charges =   0.00000

 Dipole moment (field-independent basis, Debye):
    X=              4.1270    Y=              0.0049    Z=             -0.0475  Tot=              4.1273
 Quadrupole moment (field-independent basis, Debye-Ang):
   XX=            -21.2219   YY=            -17.6784   ZZ=            -17.9694
   XY=              0.1444   XZ=              0.5676   YZ=              0.2085

 Normal termination of Gaussian 09 at Wed Aug 26 23:44:44 2020.
