 Gaussian 09, Revision D.01,
 Gaussian 09:  ES64L-G09RevD.01 24-Apr-2013

 --------------------
 #p B2PLYPD3/Def2QZVP
 --------------------

 ------------
 cyanomethane
 ------------
 Symbolic Z-matrix:
 Charge =  0 Multiplicity = 1

                         Standard orientation:
 ---------------------------------------------------------------------
 Center     Atomic      Atomic             Coordinates (Angstroms)
 Number     Number       Type             X           Y           Z
 ---------------------------------------------------------------------
      1          6           0        1.174829   -0.002720   -0.003133
      2          6           0       -0.284071   -0.021635    0.002335
      3          7           0       -1.432838    0.013515   -0.002308
      4          1           0        1.591460    0.975744   -0.271520
      5          1           0        1.557663   -0.709353   -0.663810
      6          1           0        1.536194   -0.214865    0.956274
 ---------------------------------------------------------------------

 SCF Done:  E(RB2PLYPD3) =  -132.533381591     A.U. after   12 cycles
 E2(B2PLYPD3) =    -0.1797173305D+00 E(B2PLYPD3) =    -0.13271309892181D+03

 The electronic state is 1-A.
 Alpha  occ. eigenvalues --  -14.84114 -10.66219 -10.66152  -1.04371  -0.89796
 Alpha  occ. eigenvalues --   -0.60452  -0.54926  -0.53592  -0.44843  -0.39378
 Alpha  occ. eigenvalues --   -0.39231
 Alpha virt. eigenvalues --    0.03844   0.07959   0.08597   0.10200   0.11348
 Alpha virt. eigenvalues --    0.11569   0.15531   0.16293   0.16911   0.20032
 Alpha virt. eigenvalues --    0.20109   0.25360   0.32973   0.34767   0.35477

 Mulliken charges:
               1
     1  C   -0.066457
     2  C   -0.001029
     3  N   -0.203647
     4  H    0.088415
     5  H    0.092307
     6  H    0.090412
 Sum of Mulliken charges =   0.00000

 Dipole moment (field-independent basis, Debye):
    X=              4.1371    Y=             -0.0290    Z=              0.0182  Tot=              4.1373
 Quadrupole moment (field-independent basis, Debye-Ang):
   XX=            -20.7544   YY=            -17.7298   ZZ=            -17.7698
   XY=              0.0893   XZ=             -0.0024   YZ=              0.0341

 Normal termination of Gaussian 09 at Thu Aug 27 00:11:42 2020.
