 Gaussian 09, Revision D.01,
 Gaussian 09:  ES64L-G09RevD.01 24-Apr-2013

 --------------------
 #p B2PLYPD3/Def2QZVP
 --------------------

 ------------
 cyanomethane
 ------------
 Symbolic Z-matrix:
 Charge =  0 Multiplicity = 1

                         Standard orientation:
 ---------------------------------------------------------------------
 Center     Atomic      Atomic             Coordinates (Angstroms)
 Number     Number       Type             X           Y           Z
 ---------------------------------------------------------------------
      1          6           0        1.169459   -0.002783   -0.019135
      2          6           0       -0.277811    0.010685   -0.026222
      3          7           0       -1.423636   -0.006803    0.019227
      4          1           0        1.588719   -0.061188    1.003501
      5          1           0        1.498287    0.895264   -0.380771
      6          1           0        1.528554   -0.833866   -0.485174
 ---------------------------------------------------------------------

 SCF Done:  E(RB2PLYPD3) =  -132.528237026     A.U. after   11 cycles
 E2(B2PLYPD3) =    -0.1794267760D+00 E(B2PLYPD3) =    -0.13270766380209D+03

 The electronic state is 1-A.
 Alpha  occ. eigenvalues --  -14.83947 -10.65938 -10.65701  -1.04458  -0.90387
 Alpha  occ. eigenvalues --   -0.60479  -0.56824  -0.52823  -0.44772  -0.39514
 Alpha  occ. eigenvalues --   -0.39022
 Alpha virt. eigenvalues --    0.03854   0.07946   0.08986   0.10185   0.11175
 Alpha virt. eigenvalues --    0.11821   0.15593   0.16354   0.16722   0.19966
 Alpha virt. eigenvalues --    0.20174   0.25555   0.33097   0.34292   0.36237

 Mulliken charges:
               1
     1  C   -0.066584
     2  C   -0.002070
     3  N   -0.203494
     4  H    0.080581
     5  H    0.095800
     6  H    0.095767
 Sum of Mulliken charges =   0.00000

 Dipole moment (field-independent basis, Debye):
    X=              4.1246    Y=              0.0110    Z=             -0.0067  Tot=              4.1247
 Quadrupole moment (field-independent basis, Debye-Ang):
   XX=            -20.8166   YY=            -17.5001   ZZ=            -17.8765
   XY=             -0.0627   XZ=              0.2297   YZ=              0.0185

 Normal termination of Gaussian 09 at Wed Aug 26 15:19:56 2020.
