 Gaussian 09, Revision D.01,
 Gaussian 09:  ES64L-G09RevD.01 24-Apr-2013

 --------------------
 #p B2PLYPD3/Def2QZVP
 --------------------

 ------------
 cyanomethane
 ------------
 Symbolic Z-matrix:
 Charge =  0 Multiplicity = 1

                         Standard orientation:
 ---------------------------------------------------------------------
 Center     Atomic      Atomic             Coordinates (Angstroms)
 Number     Number       Type             X           Y           Z
 ---------------------------------------------------------------------
      1          6           0        1.175499    0.006268    0.001185
      2          6           0       -0.288621   -0.050700   -0.011261
      3          7           0       -1.436258    0.023645    0.006115
      4          1           0        1.542799    1.068329   -0.031525
      5          1           0        1.592610   -0.514882   -0.822876
      6          1           0        1.597126   -0.452368    0.872051
 ---------------------------------------------------------------------

 SCF Done:  E(RB2PLYPD3) =  -132.533627868     A.U. after   12 cycles
 E2(B2PLYPD3) =    -0.1801504102D+00 E(B2PLYPD3) =    -0.13271377827812D+03

 The electronic state is 1-A.
 Alpha  occ. eigenvalues --  -14.84218 -10.66998 -10.66290  -1.04369  -0.89072
 Alpha  occ. eigenvalues --   -0.60292  -0.53814  -0.53264  -0.44901  -0.39320
 Alpha  occ. eigenvalues --   -0.39245
 Alpha virt. eigenvalues --    0.03636   0.07670   0.08279   0.10183   0.11409
 Alpha virt. eigenvalues --    0.11553   0.15410   0.16339   0.16939   0.20007
 Alpha virt. eigenvalues --    0.20068   0.25420   0.32839   0.34253   0.35085

 Mulliken charges:
               1
     1  C   -0.073086
     2  C    0.001261
     3  N   -0.202906
     4  H    0.093137
     5  H    0.091035
     6  H    0.090558
 Sum of Mulliken charges =   0.00000

 Dipole moment (field-independent basis, Debye):
    X=              4.1263    Y=             -0.0554    Z=             -0.0079  Tot=              4.1267
 Quadrupole moment (field-independent basis, Debye-Ang):
   XX=            -20.7688   YY=            -17.7128   ZZ=            -17.8961
   XY=              0.0441   XZ=              0.0426   YZ=              0.0050

 Normal termination of Gaussian 09 at Wed Aug 26 10:50:52 2020.
