 Gaussian 09, Revision D.01,
 Gaussian 09:  ES64L-G09RevD.01 24-Apr-2013

 --------------------
 #p B2PLYPD3/Def2QZVP
 --------------------

 ------------
 cyanomethane
 ------------
 Symbolic Z-matrix:
 Charge =  0 Multiplicity = 1

                         Standard orientation:
 ---------------------------------------------------------------------
 Center     Atomic      Atomic             Coordinates (Angstroms)
 Number     Number       Type             X           Y           Z
 ---------------------------------------------------------------------
      1          6           0       -1.166645    0.034815   -0.004027
      2          6           0        0.272680   -0.070214   -0.016424
      3          7           0        1.456777    0.033780    0.008011
      4          1           0       -1.593768   -0.074624    1.008434
      5          1           0       -1.606368   -0.819269   -0.524828
      6          1           0       -1.633520    0.869825   -0.416974
 ---------------------------------------------------------------------

 SCF Done:  E(RB2PLYPD3) =  -132.523811194     A.U. after   12 cycles
 E2(B2PLYPD3) =    -0.1838932307D+00 E(B2PLYPD3) =    -0.13270770442444D+03

 The electronic state is 1-A.
 Alpha  occ. eigenvalues --  -14.85496 -10.67574 -10.66716  -1.03039  -0.89585
 Alpha  occ. eigenvalues --   -0.62093  -0.53905  -0.52619  -0.45278  -0.38521
 Alpha  occ. eigenvalues --   -0.38221
 Alpha virt. eigenvalues --    0.03599   0.06529   0.06972   0.09855   0.11333
 Alpha virt. eigenvalues --    0.11397   0.15633   0.15893   0.17799   0.20156
 Alpha virt. eigenvalues --    0.20518   0.26015   0.32547   0.34111   0.35293

 Mulliken charges:
               1
     1  C   -0.053497
     2  C    0.014785
     3  N   -0.218129
     4  H    0.083815
     5  H    0.080316
     6  H    0.092710
 Sum of Mulliken charges =   0.00000

 Dipole moment (field-independent basis, Debye):
    X=             -4.1797    Y=             -0.0569    Z=             -0.0094  Tot=              4.1801
 Quadrupole moment (field-independent basis, Debye-Ang):
   XX=            -20.4872   YY=            -17.9905   ZZ=            -18.0382
   XY=             -0.1304   XZ=             -0.0320   YZ=             -0.0592

 Normal termination of Gaussian 09 at Wed Aug 26 21:04:18 2020.
