 Gaussian 09, Revision D.01,
 Gaussian 09:  ES64L-G09RevD.01 24-Apr-2013

 --------------------
 #p B2PLYPD3/Def2QZVP
 --------------------

 ------------
 cyanomethane
 ------------
 Symbolic Z-matrix:
 Charge =  0 Multiplicity = 1

                         Standard orientation:
 ---------------------------------------------------------------------
 Center     Atomic      Atomic             Coordinates (Angstroms)
 Number     Number       Type             X           Y           Z
 ---------------------------------------------------------------------
      1          6           0        1.184152   -0.012803   -0.017688
      2          6           0       -0.276484    0.011575    0.019536
      3          7           0       -1.445060    0.001005   -0.004285
      4          1           0        1.596328   -0.217263    0.972777
      5          1           0        1.613006    0.977161   -0.297028
      6          1           0        1.460074   -0.759562   -0.656836
 ---------------------------------------------------------------------

 SCF Done:  E(RB2PLYPD3) =  -132.529871438     A.U. after   12 cycles
 E2(B2PLYPD3) =    -0.1816140087D+00 E(B2PLYPD3) =    -0.13271148544670D+03

 The electronic state is 1-A.
 Alpha  occ. eigenvalues --  -14.84633 -10.66809 -10.66725  -1.03568  -0.89589
 Alpha  occ. eigenvalues --   -0.60005  -0.55603  -0.52818  -0.44859  -0.38918
 Alpha  occ. eigenvalues --   -0.38641
 Alpha virt. eigenvalues --    0.03770   0.07347   0.08132   0.10199   0.11106
 Alpha virt. eigenvalues --    0.11435   0.15296   0.16140   0.16571   0.20091
 Alpha virt. eigenvalues --    0.20204   0.25301   0.32387   0.34130   0.35525

 Mulliken charges:
               1
     1  C   -0.076899
     2  C    0.001296
     3  N   -0.212995
     4  H    0.090481
     5  H    0.093833
     6  H    0.104283
 Sum of Mulliken charges =   0.00000

 Dipole moment (field-independent basis, Debye):
    X=              4.1608    Y=             -0.0135    Z=              0.0219  Tot=              4.1608
 Quadrupole moment (field-independent basis, Debye-Ang):
   XX=            -20.9133   YY=            -17.7212   ZZ=            -17.8963
   XY=              0.0842   XZ=              0.0959   YZ=              0.0890

 Normal termination of Gaussian 09 at Wed Aug 26 10:49:52 2020.
