 Gaussian 09, Revision D.01,
 Gaussian 09:  ES64L-G09RevD.01 24-Apr-2013

 --------------------
 #p B2PLYPD3/Def2QZVP
 --------------------

 ------------
 cyanomethane
 ------------
 Symbolic Z-matrix:
 Charge =  0 Multiplicity = 1

                         Standard orientation:
 ---------------------------------------------------------------------
 Center     Atomic      Atomic             Coordinates (Angstroms)
 Number     Number       Type             X           Y           Z
 ---------------------------------------------------------------------
      1          6           0       -1.171194    0.010505    0.005567
      2          6           0        0.273383    0.014352   -0.005166
      3          7           0        1.433633   -0.013767    0.001928
      4          1           0       -1.483000    1.026263   -0.143553
      5          1           0       -1.572758   -0.414819    0.931799
      6          1           0       -1.592810   -0.664218   -0.804150
 ---------------------------------------------------------------------

 SCF Done:  E(RB2PLYPD3) =  -132.532270234     A.U. after   12 cycles
 E2(B2PLYPD3) =    -0.1812032199D+00 E(B2PLYPD3) =    -0.13271347345411D+03

 The electronic state is 1-A.
 Alpha  occ. eigenvalues --  -14.84350 -10.67368 -10.66383  -1.03906  -0.89262
 Alpha  occ. eigenvalues --   -0.59839  -0.54934  -0.52545  -0.44823  -0.38945
 Alpha  occ. eigenvalues --   -0.38674
 Alpha virt. eigenvalues --    0.03663   0.07167   0.08012   0.10130   0.11264
 Alpha virt. eigenvalues --    0.11712   0.15373   0.16185   0.16480   0.20044
 Alpha virt. eigenvalues --    0.20208   0.25564   0.32602   0.33911   0.34926

 Mulliken charges:
               1
     1  C   -0.086499
     2  C    0.000500
     3  N   -0.209023
     4  H    0.104081
     5  H    0.097600
     6  H    0.093341
 Sum of Mulliken charges =   0.00000

 Dipole moment (field-independent basis, Debye):
    X=             -4.1267    Y=              0.0052    Z=              0.0065  Tot=              4.1267
 Quadrupole moment (field-independent basis, Debye-Ang):
   XX=            -21.0455   YY=            -17.6315   ZZ=            -17.9179
   XY=              0.2072   XZ=             -0.0268   YZ=             -0.0490

 Normal termination of Gaussian 09 at Wed Aug 26 22:01:56 2020.
