 Gaussian 09, Revision D.01,
 Gaussian 09:  ES64L-G09RevD.01 24-Apr-2013

 --------------------
 #p B2PLYPD3/Def2QZVP
 --------------------

 ------------
 cyanomethane
 ------------
 Symbolic Z-matrix:
 Charge =  0 Multiplicity = 1

                         Standard orientation:
 ---------------------------------------------------------------------
 Center     Atomic      Atomic             Coordinates (Angstroms)
 Number     Number       Type             X           Y           Z
 ---------------------------------------------------------------------
      1          6           0       -1.177831    0.007576    0.008550
      2          6           0        0.266786   -0.028634   -0.003757
      3          7           0        1.431192    0.016702    0.000256
      4          1           0       -1.501213   -0.127203    0.958899
      5          1           0       -1.497230   -0.826901   -0.600009
      6          1           0       -1.553625    0.963536   -0.389437
 ---------------------------------------------------------------------

 SCF Done:  E(RB2PLYPD3) =  -132.529894186     A.U. after   12 cycles
 E2(B2PLYPD3) =    -0.1811220019D+00 E(B2PLYPD3) =    -0.13271101618783D+03

 The electronic state is 1-A.
 Alpha  occ. eigenvalues --  -14.84367 -10.66396 -10.66289  -1.03677  -0.90203
 Alpha  occ. eigenvalues --   -0.59908  -0.55218  -0.54385  -0.44734  -0.38801
 Alpha  occ. eigenvalues --   -0.38669
 Alpha virt. eigenvalues --    0.03804   0.07707   0.08426   0.10115   0.11295
 Alpha virt. eigenvalues --    0.11350   0.15440   0.15666   0.16547   0.20152
 Alpha virt. eigenvalues --    0.20193   0.25591   0.32814   0.34459   0.35127

 Mulliken charges:
               1
     1  C   -0.083227
     2  C   -0.000526
     3  N   -0.213433
     4  H    0.100565
     5  H    0.097458
     6  H    0.099163
 Sum of Mulliken charges =   0.00000

 Dipole moment (field-independent basis, Debye):
    X=             -4.1337    Y=             -0.0364    Z=              0.0199  Tot=              4.1339
 Quadrupole moment (field-independent basis, Debye-Ang):
   XX=            -21.1009   YY=            -17.6091   ZZ=            -17.7818
   XY=             -0.0988   XZ=             -0.0369   YZ=             -0.0077

 Normal termination of Gaussian 09 at Wed Aug 26 15:48:14 2020.
