 Gaussian 09, Revision D.01,
 Gaussian 09:  ES64L-G09RevD.01 24-Apr-2013

 --------------------
 #p B2PLYPD3/Def2QZVP
 --------------------

 ------------
 cyanomethane
 ------------
 Symbolic Z-matrix:
 Charge =  0 Multiplicity = 1

                         Standard orientation:
 ---------------------------------------------------------------------
 Center     Atomic      Atomic             Coordinates (Angstroms)
 Number     Number       Type             X           Y           Z
 ---------------------------------------------------------------------
      1          6           0       -1.170482   -0.002606    0.000091
      2          6           0        0.280976   -0.005272   -0.013620
      3          7           0        1.428734   -0.000429    0.004300
      4          1           0       -1.524138    0.993150   -0.331663
      5          1           0       -1.524064   -0.163646    1.018892
      6          1           0       -1.615894   -0.779236   -0.636151
 ---------------------------------------------------------------------

 SCF Done:  E(RB2PLYPD3) =  -132.535484315     A.U. after   12 cycles
 E2(B2PLYPD3) =    -0.1800260206D+00 E(B2PLYPD3) =    -0.13271551033582D+03

 The electronic state is 1-A.
 Alpha  occ. eigenvalues --  -14.84009 -10.67309 -10.66055  -1.04404  -0.89078
 Alpha  occ. eigenvalues --   -0.59800  -0.53656  -0.53621  -0.44786  -0.39218
 Alpha  occ. eigenvalues --   -0.39128
 Alpha virt. eigenvalues --    0.03729   0.07790   0.07946   0.10186   0.11556
 Alpha virt. eigenvalues --    0.11664   0.15447   0.16159   0.16713   0.20047
 Alpha virt. eigenvalues --    0.20084   0.25465   0.32775   0.34303   0.34727

 Mulliken charges:
               1
     1  C   -0.086190
     2  C   -0.001376
     3  N   -0.202568
     4  H    0.096751
     5  H    0.096901
     6  H    0.096483
 Sum of Mulliken charges =   0.00000

 Dipole moment (field-independent basis, Debye):
    X=             -4.1133    Y=              0.0033    Z=              0.0089  Tot=              4.1133
 Quadrupole moment (field-independent basis, Debye-Ang):
   XX=            -20.9857   YY=            -17.7066   ZZ=            -17.7863
   XY=              0.0563   XZ=             -0.0124   YZ=              0.0033

 Normal termination of Gaussian 09 at Wed Aug 26 18:51:37 2020.
