 Gaussian 09, Revision D.01,
 Gaussian 09:  ES64L-G09RevD.01 24-Apr-2013

 --------------------
 #p B2PLYPD3/Def2QZVP
 --------------------

 ------------
 cyanomethane
 ------------
 Symbolic Z-matrix:
 Charge =  0 Multiplicity = 1

                         Standard orientation:
 ---------------------------------------------------------------------
 Center     Atomic      Atomic             Coordinates (Angstroms)
 Number     Number       Type             X           Y           Z
 ---------------------------------------------------------------------
      1          6           0       -1.173503    0.000132   -0.001137
      2          6           0        0.289040    0.007656   -0.023856
      3          7           0        1.440290   -0.001099    0.013403
      4          1           0       -1.581319   -0.455560    0.930770
      5          1           0       -1.561745   -0.593408   -0.816136
      6          1           0       -1.632189    1.009935   -0.058499
 ---------------------------------------------------------------------

 SCF Done:  E(RB2PLYPD3) =  -132.533920325     A.U. after   12 cycles
 E2(B2PLYPD3) =    -0.1805132217D+00 E(B2PLYPD3) =    -0.13271443354684D+03

 The electronic state is 1-A.
 Alpha  occ. eigenvalues --  -14.84306 -10.67501 -10.66408  -1.04323  -0.88719
 Alpha  occ. eigenvalues --   -0.60269  -0.53615  -0.52635  -0.44946  -0.39279
 Alpha  occ. eigenvalues --   -0.39145
 Alpha virt. eigenvalues --    0.03653   0.07404   0.07914   0.10169   0.11422
 Alpha virt. eigenvalues --    0.11647   0.15425   0.16476   0.16955   0.20012
 Alpha virt. eigenvalues --    0.20106   0.25303   0.32586   0.34278   0.34809

 Mulliken charges:
               1
     1  C   -0.075601
     2  C    0.001780
     3  N   -0.202969
     4  H    0.090824
     5  H    0.094026
     6  H    0.091939
 Sum of Mulliken charges =   0.00000

 Dipole moment (field-independent basis, Debye):
    X=             -4.1329    Y=             -0.0124    Z=             -0.0174  Tot=              4.1330
 Quadrupole moment (field-independent basis, Debye-Ang):
   XX=            -20.7637   YY=            -17.8224   ZZ=            -17.8796
   XY=             -0.0097   XZ=             -0.0974   YZ=              0.0338

 Normal termination of Gaussian 09 at Wed Aug 26 15:07:28 2020.
