 Gaussian 09, Revision D.01,
 Gaussian 09:  ES64L-G09RevD.01 24-Apr-2013

 --------------------
 #p B2PLYPD3/Def2QZVP
 --------------------

 ------------
 cyanomethane
 ------------
 Symbolic Z-matrix:
 Charge =  0 Multiplicity = 1

                         Standard orientation:
 ---------------------------------------------------------------------
 Center     Atomic      Atomic             Coordinates (Angstroms)
 Number     Number       Type             X           Y           Z
 ---------------------------------------------------------------------
      1          6           0        1.176883    0.003543    0.000128
      2          6           0       -0.280196   -0.007760   -0.009051
      3          7           0       -1.438383    0.008240    0.005906
      4          1           0        1.511998   -0.653433   -0.789490
      5          1           0        1.555103   -0.389897    0.947367
      6          1           0        1.621461    1.010952   -0.145673
 ---------------------------------------------------------------------

 SCF Done:  E(RB2PLYPD3) =  -132.534330194     A.U. after   12 cycles
 E2(B2PLYPD3) =    -0.1809121071D+00 E(B2PLYPD3) =    -0.13271524230120D+03

 The electronic state is 1-A.
 Alpha  occ. eigenvalues --  -14.84353 -10.67289 -10.66435  -1.03993  -0.89103
 Alpha  occ. eigenvalues --   -0.59905  -0.53977  -0.53352  -0.44851  -0.39002
 Alpha  occ. eigenvalues --   -0.38954
 Alpha virt. eigenvalues --    0.03709   0.07454   0.08009   0.10160   0.11402
 Alpha virt. eigenvalues --    0.11494   0.15402   0.15980   0.16877   0.20085
 Alpha virt. eigenvalues --    0.20140   0.25365   0.32616   0.34495   0.34644

 Mulliken charges:
               1
     1  C   -0.082376
     2  C    0.000482
     3  N   -0.207461
     4  H    0.097580
     5  H    0.095690
     6  H    0.096085
 Sum of Mulliken charges =   0.00000

 Dipole moment (field-independent basis, Debye):
    X=              4.1370    Y=             -0.0292    Z=             -0.0060  Tot=              4.1371
 Quadrupole moment (field-independent basis, Debye-Ang):
   XX=            -20.9398   YY=            -17.7646   ZZ=            -17.8281
   XY=              0.0826   XZ=              0.0601   YZ=              0.0162

 Normal termination of Gaussian 09 at Wed Aug 26 14:43:26 2020.
