 Gaussian 09, Revision D.01,
 Gaussian 09:  ES64L-G09RevD.01 24-Apr-2013

 --------------------
 #p B2PLYPD3/Def2QZVP
 --------------------

 ------------
 cyanomethane
 ------------
 Symbolic Z-matrix:
 Charge =  0 Multiplicity = 1

                         Standard orientation:
 ---------------------------------------------------------------------
 Center     Atomic      Atomic             Coordinates (Angstroms)
 Number     Number       Type             X           Y           Z
 ---------------------------------------------------------------------
      1          6           0       -1.178291    0.002218    0.007187
      2          6           0        0.280670   -0.001117   -0.020824
      3          7           0        1.428670   -0.000912    0.008019
      4          1           0       -1.511533   -0.170228    0.995824
      5          1           0       -1.570804   -0.784135   -0.629922
      6          1           0       -1.532632    0.954140   -0.340213
 ---------------------------------------------------------------------

 SCF Done:  E(RB2PLYPD3) =  -132.535770265     A.U. after   11 cycles
 E2(B2PLYPD3) =    -0.1796934302D+00 E(B2PLYPD3) =    -0.13271546369513D+03

 The electronic state is 1-A.
 Alpha  occ. eigenvalues --  -14.83968 -10.66587 -10.66009  -1.04335  -0.89589
 Alpha  occ. eigenvalues --   -0.59682  -0.54660  -0.54082  -0.44721  -0.39261
 Alpha  occ. eigenvalues --   -0.39212
 Alpha virt. eigenvalues --    0.03857   0.08192   0.08361   0.10207   0.11445
 Alpha virt. eigenvalues --    0.11509   0.15441   0.16284   0.16374   0.20058
 Alpha virt. eigenvalues --    0.20081   0.25338   0.32889   0.34800   0.35071

 Mulliken charges:
               1
     1  C   -0.080658
     2  C   -0.003848
     3  N   -0.203790
     4  H    0.097627
     5  H    0.094008
     6  H    0.096660
 Sum of Mulliken charges =   0.00000

 Dipole moment (field-independent basis, Debye):
    X=             -4.1206    Y=             -0.0003    Z=             -0.0032  Tot=              4.1206
 Quadrupole moment (field-independent basis, Debye-Ang):
   XX=            -20.9905   YY=            -17.6746   ZZ=            -17.7175
   XY=              0.0322   XZ=             -0.0266   YZ=             -0.0194

 Normal termination of Gaussian 09 at Thu Aug 27 00:08:03 2020.
