 Gaussian 09, Revision D.01,
 Gaussian 09:  ES64L-G09RevD.01 24-Apr-2013

 --------------------
 #p B2PLYPD3/Def2QZVP
 --------------------

 ------------
 cyanomethane
 ------------
 Symbolic Z-matrix:
 Charge =  0 Multiplicity = 1

                         Standard orientation:
 ---------------------------------------------------------------------
 Center     Atomic      Atomic             Coordinates (Angstroms)
 Number     Number       Type             X           Y           Z
 ---------------------------------------------------------------------
      1          6           0        1.180611    0.001032   -0.015605
      2          6           0       -0.278048    0.021700    0.007879
      3          7           0       -1.439716   -0.013301   -0.002295
      4          1           0        1.529788    1.016479    0.047330
      5          1           0        1.563836   -0.506216   -0.864151
      6          1           0        1.569012   -0.553547    0.879239
 ---------------------------------------------------------------------

 SCF Done:  E(RB2PLYPD3) =  -132.533204267     A.U. after   12 cycles
 E2(B2PLYPD3) =    -0.1811351474D+00 E(B2PLYPD3) =    -0.13271433941443D+03

 The electronic state is 1-A.
 Alpha  occ. eigenvalues --  -14.84435 -10.67066 -10.66514  -1.03821  -0.89306
 Alpha  occ. eigenvalues --   -0.59936  -0.54898  -0.52985  -0.44834  -0.39024
 Alpha  occ. eigenvalues --   -0.38763
 Alpha virt. eigenvalues --    0.03732   0.07524   0.08058   0.10137   0.11193
 Alpha virt. eigenvalues --    0.11542   0.15378   0.16049   0.16651   0.20063
 Alpha virt. eigenvalues --    0.20181   0.25340   0.32579   0.34040   0.35270

 Mulliken charges:
               1
     1  C   -0.080790
     2  C    0.000412
     3  N   -0.209677
     4  H    0.099108
     5  H    0.099599
     6  H    0.091348
 Sum of Mulliken charges =   0.00000

 Dipole moment (field-independent basis, Debye):
    X=              4.1407    Y=              0.0094    Z=              0.0061  Tot=              4.1407
 Quadrupole moment (field-independent basis, Debye-Ang):
   XX=            -20.9762   YY=            -17.7084   ZZ=            -17.8592
   XY=             -0.1286   XZ=              0.0050   YZ=              0.0597

 Normal termination of Gaussian 09 at Wed Aug 26 23:16:35 2020.
