 Gaussian 09, Revision D.01,
 Gaussian 09:  ES64L-G09RevD.01 24-Apr-2013

 --------------------
 #p B2PLYPD3/Def2QZVP
 --------------------

 ------------
 cyanomethane
 ------------
 Symbolic Z-matrix:
 Charge =  0 Multiplicity = 1

                         Standard orientation:
 ---------------------------------------------------------------------
 Center     Atomic      Atomic             Coordinates (Angstroms)
 Number     Number       Type             X           Y           Z
 ---------------------------------------------------------------------
      1          6           0       -1.175471    0.011006   -0.002584
      2          6           0        0.292732   -0.040876    0.005444
      3          7           0        1.436459    0.017591   -0.003537
      4          1           0       -1.546562    1.046275   -0.010444
      5          1           0       -1.593912   -0.482193    0.853738
      6          1           0       -1.618302   -0.508001   -0.835698
 ---------------------------------------------------------------------

 SCF Done:  E(RB2PLYPD3) =  -132.534648085     A.U. after   11 cycles
 E2(B2PLYPD3) =    -0.1797128760D+00 E(B2PLYPD3) =    -0.13271436096092D+03

 The electronic state is 1-A.
 Alpha  occ. eigenvalues --  -14.84103 -10.66966 -10.66199  -1.04571  -0.88998
 Alpha  occ. eigenvalues --   -0.60369  -0.53719  -0.53194  -0.44901  -0.39476
 Alpha  occ. eigenvalues --   -0.39402
 Alpha virt. eigenvalues --    0.03721   0.07883   0.08206   0.10205   0.11511
 Alpha virt. eigenvalues --    0.11558   0.15403   0.16436   0.17090   0.20002
 Alpha virt. eigenvalues --    0.20040   0.25305   0.32816   0.34739   0.34902

 Mulliken charges:
               1
     1  C   -0.069766
     2  C    0.000670
     3  N   -0.200327
     4  H    0.093403
     5  H    0.087874
     6  H    0.088147
 Sum of Mulliken charges =   0.00000

 Dipole moment (field-independent basis, Debye):
    X=             -4.1299    Y=             -0.0470    Z=              0.0109  Tot=              4.1302
 Quadrupole moment (field-independent basis, Debye-Ang):
   XX=            -20.6999   YY=            -17.6958   ZZ=            -17.9263
   XY=             -0.0026   XZ=              0.0227   YZ=              0.0008

 Normal termination of Gaussian 09 at Wed Aug 26 15:35:24 2020.
