 Gaussian 09, Revision D.01,
 Gaussian 09:  ES64L-G09RevD.01 24-Apr-2013

 --------------------
 #p B2PLYPD3/Def2QZVP
 --------------------

 ------------
 cyanomethane
 ------------
 Symbolic Z-matrix:
 Charge =  0 Multiplicity = 1

                         Standard orientation:
 ---------------------------------------------------------------------
 Center     Atomic      Atomic             Coordinates (Angstroms)
 Number     Number       Type             X           Y           Z
 ---------------------------------------------------------------------
      1          6           0       -1.191570    0.032242    0.017135
      2          6           0        0.267371   -0.032687    0.051072
      3          7           0        1.441458    0.019070   -0.034699
      4          1           0       -1.410278   -0.373338    0.930305
      5          1           0       -1.537057   -0.800274   -0.815070
      6          1           0       -1.597685    1.042788   -0.281580
 ---------------------------------------------------------------------

 SCF Done:  E(RB2PLYPD3) =  -132.511654692     A.U. after   13 cycles
 E2(B2PLYPD3) =    -0.1835142930D+00 E(B2PLYPD3) =    -0.13269516898530D+03

 The electronic state is 1-A.
 Alpha  occ. eigenvalues --  -14.84754 -10.68340 -10.66851  -1.03135  -0.89074
 Alpha  occ. eigenvalues --   -0.58390  -0.56135  -0.51256  -0.44719  -0.38578
 Alpha  occ. eigenvalues --   -0.37937
 Alpha virt. eigenvalues --    0.03050   0.06083   0.08528   0.09893   0.10818
 Alpha virt. eigenvalues --    0.11633   0.14733   0.15171   0.16886   0.20074
 Alpha virt. eigenvalues --    0.20338   0.25397   0.30847   0.32873   0.35056

 Mulliken charges:
               1
     1  C   -0.115350
     2  C    0.006461
     3  N   -0.217733
     4  H    0.115826
     5  H    0.093986
     6  H    0.116811
 Sum of Mulliken charges =   0.00000

 Dipole moment (field-independent basis, Debye):
    X=             -4.1038    Y=             -0.0289    Z=              0.0569  Tot=              4.1042
 Quadrupole moment (field-independent basis, Debye-Ang):
   XX=            -21.4788   YY=            -17.6265   ZZ=            -17.9198
   XY=             -0.1521   XZ=              0.2672   YZ=             -0.1776

 Normal termination of Gaussian 09 at Wed Aug 26 23:51:30 2020.
