 Gaussian 09, Revision D.01,
 Gaussian 09:  ES64L-G09RevD.01 24-Apr-2013

 --------------------
 #p B2PLYPD3/Def2QZVP
 --------------------

 ------------
 cyanomethane
 ------------
 Symbolic Z-matrix:
 Charge =  0 Multiplicity = 1

                         Standard orientation:
 ---------------------------------------------------------------------
 Center     Atomic      Atomic             Coordinates (Angstroms)
 Number     Number       Type             X           Y           Z
 ---------------------------------------------------------------------
      1          6           0        1.166369   -0.008535   -0.002063
      2          6           0       -0.280757   -0.016828    0.003300
      3          7           0       -1.428016    0.013034   -0.001832
      4          1           0        1.603652    0.981171   -0.319268
      5          1           0        1.530904   -0.743257   -0.655342
      6          1           0        1.547882   -0.176974    0.980012
 ---------------------------------------------------------------------

 SCF Done:  E(RB2PLYPD3) =  -132.533626857     A.U. after   11 cycles
 E2(B2PLYPD3) =    -0.1798212725D+00 E(B2PLYPD3) =    -0.13271344812902D+03

 The electronic state is 1-A.
 Alpha  occ. eigenvalues --  -14.84047 -10.66682 -10.66058  -1.04458  -0.89559
 Alpha  occ. eigenvalues --   -0.60350  -0.54931  -0.52910  -0.44842  -0.39355
 Alpha  occ. eigenvalues --   -0.39109
 Alpha virt. eigenvalues --    0.03754   0.07619   0.08436   0.10173   0.11421
 Alpha virt. eigenvalues --    0.11743   0.15567   0.16351   0.16800   0.20011
 Alpha virt. eigenvalues --    0.20121   0.25563   0.32900   0.34304   0.35331

 Mulliken charges:
               1
     1  C   -0.074015
     2  C   -0.001163
     3  N   -0.202506
     4  H    0.088391
     5  H    0.096326
     6  H    0.092967
 Sum of Mulliken charges =   0.00000

 Dipole moment (field-independent basis, Debye):
    X=              4.1205    Y=             -0.0281    Z=              0.0135  Tot=              4.1206
 Quadrupole moment (field-independent basis, Debye-Ang):
   XX=            -20.8338   YY=            -17.7530   ZZ=            -17.7499
   XY=              0.1153   XZ=              0.0092   YZ=              0.0582

 Normal termination of Gaussian 09 at Thu Aug 27 00:14:37 2020.
