 Gaussian 09, Revision D.01,
 Gaussian 09:  ES64L-G09RevD.01 24-Apr-2013

 --------------------
 #p B2PLYPD3/Def2QZVP
 --------------------

 ------------
 cyanomethane
 ------------
 Symbolic Z-matrix:
 Charge =  0 Multiplicity = 1

                         Standard orientation:
 ---------------------------------------------------------------------
 Center     Atomic      Atomic             Coordinates (Angstroms)
 Number     Number       Type             X           Y           Z
 ---------------------------------------------------------------------
      1          6           0        1.179776   -0.019746    0.002085
      2          6           0       -0.290456    0.006008    0.027367
      3          7           0       -1.437046    0.001434   -0.012639
      4          1           0        1.604848    1.014619   -0.133482
      5          1           0        1.529626   -0.564702   -0.811553
      6          1           0        1.588924   -0.377527    0.856797
 ---------------------------------------------------------------------

 SCF Done:  E(RB2PLYPD3) =  -132.529496643     A.U. after   11 cycles
 E2(B2PLYPD3) =    -0.1795772364D+00 E(B2PLYPD3) =    -0.13270907387931D+03

 The electronic state is 1-A.
 Alpha  occ. eigenvalues --  -14.84125 -10.66271 -10.66211  -1.04466  -0.89662
 Alpha  occ. eigenvalues --   -0.60611  -0.55409  -0.52766  -0.44875  -0.39604
 Alpha  occ. eigenvalues --   -0.39255
 Alpha virt. eigenvalues --    0.03805   0.07901   0.08715   0.10233   0.11236
 Alpha virt. eigenvalues --    0.11653   0.15451   0.16603   0.16847   0.19987
 Alpha virt. eigenvalues --    0.20093   0.25149   0.32625   0.34356   0.35927

 Mulliken charges:
               1
     1  C   -0.064341
     2  C    0.000440
     3  N   -0.202224
     4  H    0.082037
     5  H    0.092024
     6  H    0.092063
 Sum of Mulliken charges =   0.00000

 Dipole moment (field-independent basis, Debye):
    X=              4.1388    Y=             -0.0141    Z=              0.0147  Tot=              4.1389
 Quadrupole moment (field-independent basis, Debye-Ang):
   XX=            -20.6825   YY=            -17.8169   ZZ=            -17.7362
   XY=              0.0315   XZ=             -0.0483   YZ=              0.0053

 Normal termination of Gaussian 09 at Wed Aug 26 11:39:15 2020.
