 Gaussian 09, Revision D.01,
 Gaussian 09:  ES64L-G09RevD.01 24-Apr-2013

 --------------------
 #p B2PLYPD3/Def2QZVP
 --------------------

 ------------
 cyanomethane
 ------------
 Symbolic Z-matrix:
 Charge =  0 Multiplicity = 1

                         Standard orientation:
 ---------------------------------------------------------------------
 Center     Atomic      Atomic             Coordinates (Angstroms)
 Number     Number       Type             X           Y           Z
 ---------------------------------------------------------------------
      1          6           0        1.198748   -0.017469   -0.001206
      2          6           0       -0.264390    0.031159    0.028733
      3          7           0       -1.443840   -0.001311   -0.006881
      4          1           0        1.536338   -0.412402    0.906419
      5          1           0        1.653674    1.021989   -0.193768
      6          1           0        1.310714   -0.682550   -0.829648
 ---------------------------------------------------------------------

 SCF Done:  E(RB2PLYPD3) =  -132.524023941     A.U. after   13 cycles
 E2(B2PLYPD3) =    -0.1828915067D+00 E(B2PLYPD3) =    -0.13270691544773D+03

 The electronic state is 1-A.
 Alpha  occ. eigenvalues --  -14.84693 -10.67364 -10.66894  -1.03003  -0.89643
 Alpha  occ. eigenvalues --   -0.58966  -0.55373  -0.53613  -0.44615  -0.38416
 Alpha  occ. eigenvalues --   -0.38210
 Alpha virt. eigenvalues --    0.03651   0.07127   0.08272   0.10204   0.11022
 Alpha virt. eigenvalues --    0.11258   0.14715   0.15416   0.16300   0.20208
 Alpha virt. eigenvalues --    0.20253   0.25204   0.31771   0.34226   0.34723

 Mulliken charges:
               1
     1  C   -0.103029
     2  C    0.000310
     3  N   -0.220725
     4  H    0.107897
     5  H    0.101026
     6  H    0.114522
 Sum of Mulliken charges =   0.00000

 Dipole moment (field-independent basis, Debye):
    X=              4.1506    Y=             -0.0276    Z=              0.0059  Tot=              4.1507
 Quadrupole moment (field-independent basis, Debye-Ang):
   XX=            -21.3660   YY=            -17.7316   ZZ=            -17.7747
   XY=              0.1794   XZ=              0.1242   YZ=              0.0153

 Normal termination of Gaussian 09 at Wed Aug 26 23:34:28 2020.
