 Gaussian 09, Revision D.01,
 Gaussian 09:  ES64L-G09RevD.01 24-Apr-2013

 --------------------
 #p B2PLYPD3/Def2QZVP
 --------------------

 ------------
 cyanomethane
 ------------
 Symbolic Z-matrix:
 Charge =  0 Multiplicity = 1

                         Standard orientation:
 ---------------------------------------------------------------------
 Center     Atomic      Atomic             Coordinates (Angstroms)
 Number     Number       Type             X           Y           Z
 ---------------------------------------------------------------------
      1          6           0        1.175333    0.011700    0.000431
      2          6           0       -0.284979   -0.020256    0.003508
      3          7           0       -1.433035    0.010691   -0.003576
      4          1           0        1.584939    1.004022   -0.219098
      5          1           0        1.568452   -0.709610   -0.742260
      6          1           0        1.535728   -0.317912    0.962759
 ---------------------------------------------------------------------

 SCF Done:  E(RB2PLYPD3) =  -132.535309267     A.U. after   12 cycles
 E2(B2PLYPD3) =    -0.1800453510D+00 E(B2PLYPD3) =    -0.13271535461793D+03

 The electronic state is 1-A.
 Alpha  occ. eigenvalues --  -14.84075 -10.67258 -10.66142  -1.04382  -0.88999
 Alpha  occ. eigenvalues --   -0.59805  -0.53953  -0.53294  -0.44813  -0.39302
 Alpha  occ. eigenvalues --   -0.39164
 Alpha virt. eigenvalues --    0.03723   0.07744   0.08123   0.10174   0.11482
 Alpha virt. eigenvalues --    0.11603   0.15424   0.16053   0.16938   0.20050
 Alpha virt. eigenvalues --    0.20071   0.25349   0.32734   0.34356   0.34858

 Mulliken charges:
               1
     1  C   -0.082596
     2  C   -0.001328
     3  N   -0.202470
     4  H    0.097962
     5  H    0.093000
     6  H    0.095431
 Sum of Mulliken charges =   0.00000

 Dipole moment (field-independent basis, Debye):
    X=              4.1204    Y=             -0.0299    Z=              0.0168  Tot=              4.1205
 Quadrupole moment (field-independent basis, Debye-Ang):
   XX=            -20.9291   YY=            -17.7008   ZZ=            -17.8286
   XY=              0.0457   XZ=             -0.0228   YZ=             -0.0243

 Normal termination of Gaussian 09 at Wed Aug 26 23:58:17 2020.
