 Gaussian 09, Revision D.01,
 Gaussian 09:  ES64L-G09RevD.01 24-Apr-2013

 --------------------
 #p B2PLYPD3/Def2QZVP
 --------------------

 ------------
 cyanomethane
 ------------
 Symbolic Z-matrix:
 Charge =  0 Multiplicity = 1

                         Standard orientation:
 ---------------------------------------------------------------------
 Center     Atomic      Atomic             Coordinates (Angstroms)
 Number     Number       Type             X           Y           Z
 ---------------------------------------------------------------------
      1          6           0       -1.165742    0.041825    0.019770
      2          6           0        0.296972   -0.043247   -0.059197
      3          7           0        1.417861    0.009408    0.022659
      4          1           0       -1.477194    1.057183   -0.170759
      5          1           0       -1.517808   -0.381633    0.970790
      6          1           0       -1.717402   -0.732876   -0.722079
 ---------------------------------------------------------------------

 SCF Done:  E(RB2PLYPD3) =  -132.524359925     A.U. after   12 cycles
 E2(B2PLYPD3) =    -0.1788134885D+00 E(B2PLYPD3) =    -0.13270317341350D+03

 The electronic state is 1-A.
 Alpha  occ. eigenvalues --  -14.83455 -10.68221 -10.65477  -1.05386  -0.88125
 Alpha  occ. eigenvalues --   -0.59111  -0.55145  -0.50599  -0.44761  -0.40095
 Alpha  occ. eigenvalues --   -0.39277
 Alpha virt. eigenvalues --    0.03495   0.07062   0.08379   0.10189   0.11569
 Alpha virt. eigenvalues --    0.12232   0.15193   0.16215   0.17251   0.19779
 Alpha virt. eigenvalues --    0.19997   0.25637   0.31238   0.34130   0.35337

 Mulliken charges:
               1
     1  C   -0.096308
     2  C   -0.002374
     3  N   -0.188107
     4  H    0.109384
     5  H    0.097587
     6  H    0.079817
 Sum of Mulliken charges =   0.00000

 Dipole moment (field-independent basis, Debye):
    X=             -4.0415    Y=             -0.0371    Z=              0.0115  Tot=              4.0417
 Quadrupole moment (field-independent basis, Debye-Ang):
   XX=            -21.0061   YY=            -17.4522   ZZ=            -18.0370
   XY=              0.1589   XZ=             -0.1514   YZ=             -0.1626

 Normal termination of Gaussian 09 at Wed Aug 26 18:47:36 2020.
