 Gaussian 09, Revision D.01,
 Gaussian 09:  ES64L-G09RevD.01 24-Apr-2013

 --------------------
 #p B2PLYPD3/Def2QZVP
 --------------------

 ------------
 cyanomethane
 ------------
 Symbolic Z-matrix:
 Charge =  0 Multiplicity = 1

                         Standard orientation:
 ---------------------------------------------------------------------
 Center     Atomic      Atomic             Coordinates (Angstroms)
 Number     Number       Type             X           Y           Z
 ---------------------------------------------------------------------
      1          6           0       -1.198959   -0.001060   -0.029409
      2          6           0        0.278009    0.028065    0.000110
      3          7           0        1.444742   -0.018872    0.001369
      4          1           0       -1.478749    1.062722   -0.159299
      5          1           0       -1.529559   -0.354115    1.065676
      6          1           0       -1.579185   -0.738534   -0.740168
 ---------------------------------------------------------------------

 SCF Done:  E(RB2PLYPD3) =  -132.523713489     A.U. after   12 cycles
 E2(B2PLYPD3) =    -0.1823793829D+00 E(B2PLYPD3) =    -0.13270609287163D+03

 The electronic state is 1-A.
 Alpha  occ. eigenvalues --  -14.84458 -10.68747 -10.66635  -1.03465  -0.88232
 Alpha  occ. eigenvalues --   -0.58451  -0.54895  -0.51642  -0.44652  -0.38851
 Alpha  occ. eigenvalues --   -0.38338
 Alpha virt. eigenvalues --    0.03343   0.06927   0.07917   0.10076   0.10989
 Alpha virt. eigenvalues --    0.11611   0.14868   0.15338   0.16525   0.20054
 Alpha virt. eigenvalues --    0.20236   0.24931   0.31444   0.32582   0.35021

 Mulliken charges:
               1
     1  C   -0.113485
     2  C    0.003031
     3  N   -0.212471
     4  H    0.112232
     5  H    0.097111
     6  H    0.113583
 Sum of Mulliken charges =   0.00000

 Dipole moment (field-independent basis, Debye):
    X=             -4.1177    Y=              0.0171    Z=              0.0046  Tot=              4.1178
 Quadrupole moment (field-independent basis, Debye-Ang):
   XX=            -21.4668   YY=            -17.6080   ZZ=            -17.9309
   XY=              0.2038   XZ=             -0.0114   YZ=              0.0866

 Normal termination of Gaussian 09 at Wed Aug 26 22:14:51 2020.
