 Gaussian 09, Revision D.01,
 Gaussian 09:  ES64L-G09RevD.01 24-Apr-2013

 --------------------
 #p B2PLYPD3/Def2QZVP
 --------------------

 ------------
 cyanomethane
 ------------
 Symbolic Z-matrix:
 Charge =  0 Multiplicity = 1

                         Standard orientation:
 ---------------------------------------------------------------------
 Center     Atomic      Atomic             Coordinates (Angstroms)
 Number     Number       Type             X           Y           Z
 ---------------------------------------------------------------------
      1          6           0        1.168249    0.006139   -0.001475
      2          6           0       -0.281253   -0.020603    0.004522
      3          7           0       -1.429699    0.009956   -0.001239
      4          1           0        1.575755   -0.128883    1.005159
      5          1           0        1.553902    0.951810   -0.391143
      6          1           0        1.556258   -0.805837   -0.623625
 ---------------------------------------------------------------------

 SCF Done:  E(RB2PLYPD3) =  -132.535842138     A.U. after   11 cycles
 E2(B2PLYPD3) =    -0.1800585409D+00 E(B2PLYPD3) =    -0.13271590067888D+03

 The electronic state is 1-A.
 Alpha  occ. eigenvalues --  -14.84078 -10.67128 -10.66107  -1.04395  -0.89176
 Alpha  occ. eigenvalues --   -0.60070  -0.53744  -0.53565  -0.44834  -0.39196
 Alpha  occ. eigenvalues --   -0.39167
 Alpha virt. eigenvalues --    0.03747   0.07784   0.07940   0.10163   0.11579
 Alpha virt. eigenvalues --    0.11605   0.15507   0.16320   0.16706   0.20050
 Alpha virt. eigenvalues --    0.20076   0.25535   0.32877   0.34550   0.34687

 Mulliken charges:
               1
     1  C   -0.080139
     2  C   -0.000890
     3  N   -0.202785
     4  H    0.093710
     5  H    0.095940
     6  H    0.094165
 Sum of Mulliken charges =   0.00000

 Dipole moment (field-independent basis, Debye):
    X=              4.1173    Y=             -0.0160    Z=              0.0028  Tot=              4.1174
 Quadrupole moment (field-independent basis, Debye-Ang):
   XX=            -20.9070   YY=            -17.7424   ZZ=            -17.7817
   XY=              0.0488   XZ=              0.0125   YZ=             -0.0020

 Normal termination of Gaussian 09 at Wed Aug 26 23:59:44 2020.
