 Gaussian 09, Revision D.01,
 Gaussian 09:  ES64L-G09RevD.01 24-Apr-2013

 --------------------
 #p B2PLYPD3/Def2QZVP
 --------------------

 ------------
 cyanomethane
 ------------
 Symbolic Z-matrix:
 Charge =  0 Multiplicity = 1

                         Standard orientation:
 ---------------------------------------------------------------------
 Center     Atomic      Atomic             Coordinates (Angstroms)
 Number     Number       Type             X           Y           Z
 ---------------------------------------------------------------------
      1          6           0        1.170758    0.009944   -0.001622
      2          6           0       -0.273421   -0.012252   -0.012642
      3          7           0       -1.431187    0.008940    0.008443
      4          1           0        1.496536   -0.648412   -0.778588
      5          1           0        1.547866   -0.394107    0.941192
      6          1           0        1.589890    0.993788   -0.136123
 ---------------------------------------------------------------------

 SCF Done:  E(RB2PLYPD3) =  -132.534481537     A.U. after   12 cycles
 E2(B2PLYPD3) =    -0.1806885536D+00 E(B2PLYPD3) =    -0.13271517009048D+03

 The electronic state is 1-A.
 Alpha  occ. eigenvalues --  -14.84267 -10.66705 -10.66293  -1.04004  -0.89694
 Alpha  occ. eigenvalues --   -0.60144  -0.54608  -0.53731  -0.44813  -0.39003
 Alpha  occ. eigenvalues --   -0.38845
 Alpha virt. eigenvalues --    0.03800   0.07655   0.08143   0.10131   0.11384
 Alpha virt. eigenvalues --    0.11563   0.15515   0.15865   0.16870   0.20097
 Alpha virt. eigenvalues --    0.20165   0.25606   0.32920   0.34442   0.35063

 Mulliken charges:
               1
     1  C   -0.079087
     2  C   -0.000021
     3  N   -0.208609
     4  H    0.096569
     5  H    0.093513
     6  H    0.097634
 Sum of Mulliken charges =   0.00000

 Dipole moment (field-independent basis, Debye):
    X=              4.1334    Y=             -0.0293    Z=             -0.0105  Tot=              4.1335
 Quadrupole moment (field-independent basis, Debye-Ang):
   XX=            -20.9575   YY=            -17.6900   ZZ=            -17.8031
   XY=              0.0696   XZ=              0.0813   YZ=              0.0169

 Normal termination of Gaussian 09 at Wed Aug 26 23:37:40 2020.
