 Gaussian 09, Revision D.01,
 Gaussian 09:  ES64L-G09RevD.01 24-Apr-2013

 --------------------
 #p B2PLYPD3/Def2QZVP
 --------------------

 ------------
 cyanomethane
 ------------
 Symbolic Z-matrix:
 Charge =  0 Multiplicity = 1

                         Standard orientation:
 ---------------------------------------------------------------------
 Center     Atomic      Atomic             Coordinates (Angstroms)
 Number     Number       Type             X           Y           Z
 ---------------------------------------------------------------------
      1          6           0        1.168494    0.003142    0.000441
      2          6           0       -0.272410   -0.027640   -0.006214
      3          7           0       -1.428504    0.014268   -0.004279
      4          1           0        1.584983    0.980085   -0.408345
      5          1           0        1.597957   -0.851299   -0.569400
      6          1           0        1.440088   -0.081671    1.042338
 ---------------------------------------------------------------------

 SCF Done:  E(RB2PLYPD3) =  -132.532089152     A.U. after   12 cycles
 E2(B2PLYPD3) =    -0.1809865314D+00 E(B2PLYPD3) =    -0.13271307568390D+03

 The electronic state is 1-A.
 Alpha  occ. eigenvalues --  -14.84199 -10.67593 -10.66226  -1.04049  -0.89169
 Alpha  occ. eigenvalues --   -0.59484  -0.54131  -0.53190  -0.44778  -0.38883
 Alpha  occ. eigenvalues --   -0.38797
 Alpha virt. eigenvalues --    0.03609   0.07186   0.07985   0.10144   0.11514
 Alpha virt. eigenvalues --    0.11637   0.15419   0.15693   0.16797   0.20099
 Alpha virt. eigenvalues --    0.20149   0.25659   0.32552   0.34066   0.34465

 Mulliken charges:
               1
     1  C   -0.094909
     2  C    0.000601
     3  N   -0.207564
     4  H    0.099277
     5  H    0.099470
     6  H    0.103124
 Sum of Mulliken charges =   0.00000

 Dipole moment (field-independent basis, Debye):
    X=              4.1101    Y=             -0.0237    Z=              0.0344  Tot=              4.1104
 Quadrupole moment (field-independent basis, Debye-Ang):
   XX=            -21.1291   YY=            -17.7052   ZZ=            -17.7887
   XY=              0.0729   XZ=             -0.0922   YZ=              0.0091

 Normal termination of Gaussian 09 at Wed Aug 26 11:48:09 2020.
