 Gaussian 09, Revision D.01,
 Gaussian 09:  ES64L-G09RevD.01 24-Apr-2013

 --------------------
 #p B2PLYPD3/Def2QZVP
 --------------------

 ------------
 cyanomethane
 ------------
 Symbolic Z-matrix:
 Charge =  0 Multiplicity = 1

                         Standard orientation:
 ---------------------------------------------------------------------
 Center     Atomic      Atomic             Coordinates (Angstroms)
 Number     Number       Type             X           Y           Z
 ---------------------------------------------------------------------
      1          6           0       -1.199364    0.023930   -0.005439
      2          6           0        0.270859    0.001389    0.048674
      3          7           0        1.440419   -0.012365   -0.016450
      4          1           0       -1.370825    1.050776   -0.169279
      5          1           0       -1.653013   -0.449652    0.892380
      6          1           0       -1.488066   -0.666487   -0.867362
 ---------------------------------------------------------------------

 SCF Done:  E(RB2PLYPD3) =  -132.525145444     A.U. after   12 cycles
 E2(B2PLYPD3) =    -0.1823293379D+00 E(B2PLYPD3) =    -0.13270747478237D+03

 The electronic state is 1-A.
 Alpha  occ. eigenvalues --  -14.84463 -10.67835 -10.66623  -1.03313  -0.89107
 Alpha  occ. eigenvalues --   -0.58489  -0.55938  -0.52380  -0.44579  -0.38687
 Alpha  occ. eigenvalues --   -0.38326
 Alpha virt. eigenvalues --    0.03527   0.07166   0.08329   0.10202   0.10913
 Alpha virt. eigenvalues --    0.11461   0.14777   0.15533   0.16093   0.20101
 Alpha virt. eigenvalues --    0.20235   0.25087   0.32086   0.33068   0.35324

 Mulliken charges:
               1
     1  C   -0.106080
     2  C   -0.000456
     3  N   -0.216320
     4  H    0.117945
     5  H    0.102333
     6  H    0.102578
 Sum of Mulliken charges =   0.00000

 Dipole moment (field-independent basis, Debye):
    X=             -4.1294    Y=             -0.0126    Z=              0.0141  Tot=              4.1294
 Quadrupole moment (field-independent basis, Debye-Ang):
   XX=            -21.4286   YY=            -17.5205   ZZ=            -17.9540
   XY=              0.3224   XZ=             -0.0504   YZ=             -0.0527

 Normal termination of Gaussian 09 at Wed Aug 26 22:38:57 2020.
