 Gaussian 09, Revision D.01,
 Gaussian 09:  ES64L-G09RevD.01 24-Apr-2013

 --------------------
 #p B2PLYPD3/Def2QZVP
 --------------------

 ------------
 cyanomethane
 ------------
 Symbolic Z-matrix:
 Charge =  0 Multiplicity = 1

                         Standard orientation:
 ---------------------------------------------------------------------
 Center     Atomic      Atomic             Coordinates (Angstroms)
 Number     Number       Type             X           Y           Z
 ---------------------------------------------------------------------
      1          6           0        1.200671    0.012382    0.027970
      2          6           0       -0.274571   -0.034945   -0.046977
      3          7           0       -1.452848    0.010414    0.013349
      4          1           0        1.473333    1.045271   -0.175111
      5          1           0        1.687027   -0.653383   -0.724134
      6          1           0        1.452976   -0.329405    0.919840
 ---------------------------------------------------------------------

 SCF Done:  E(RB2PLYPD3) =  -132.522473479     A.U. after   12 cycles
 E2(B2PLYPD3) =    -0.1825960422D+00 E(B2PLYPD3) =    -0.13270506952123D+03

 The electronic state is 1-A.
 Alpha  occ. eigenvalues --  -14.84913 -10.67068 -10.66678  -1.03050  -0.89772
 Alpha  occ. eigenvalues --   -0.59685  -0.56117  -0.53144  -0.44789  -0.38668
 Alpha  occ. eigenvalues --   -0.38424
 Alpha virt. eigenvalues --    0.03757   0.07245   0.08196   0.10226   0.10905
 Alpha virt. eigenvalues --    0.11196   0.15003   0.15977   0.16240   0.20163
 Alpha virt. eigenvalues --    0.20182   0.25125   0.31884   0.34371   0.35421

 Mulliken charges:
               1
     1  C   -0.085043
     2  C    0.002654
     3  N   -0.219014
     4  H    0.104740
     5  H    0.088876
     6  H    0.107788
 Sum of Mulliken charges =   0.00000

 Dipole moment (field-independent basis, Debye):
    X=              4.1706    Y=             -0.0198    Z=              0.0020  Tot=              4.1706
 Quadrupole moment (field-independent basis, Debye-Ang):
   XX=            -21.0283   YY=            -17.6945   ZZ=            -17.9206
   XY=             -0.0942   XZ=             -0.0418   YZ=             -0.1138

 Normal termination of Gaussian 09 at Wed Aug 26 20:19:38 2020.
