 Gaussian 09, Revision D.01,
 Gaussian 09:  ES64L-G09RevD.01 24-Apr-2013

 --------------------
 #p B2PLYPD3/Def2QZVP
 --------------------

 ------------
 cyanomethane
 ------------
 Symbolic Z-matrix:
 Charge =  0 Multiplicity = 1

                         Standard orientation:
 ---------------------------------------------------------------------
 Center     Atomic      Atomic             Coordinates (Angstroms)
 Number     Number       Type             X           Y           Z
 ---------------------------------------------------------------------
      1          6           0        1.191812   -0.009121    0.008569
      2          6           0       -0.285759    0.008419   -0.028262
      3          7           0       -1.430044   -0.007681    0.016255
      4          1           0        1.566928   -0.241286    1.011363
      5          1           0        1.464301    1.030510   -0.277880
      6          1           0        1.542757   -0.731241   -0.729112
 ---------------------------------------------------------------------

 SCF Done:  E(RB2PLYPD3) =  -132.533792558     A.U. after   12 cycles
 E2(B2PLYPD3) =    -0.1798535040D+00 E(B2PLYPD3) =    -0.13271364606196D+03

 The electronic state is 1-A.
 Alpha  occ. eigenvalues --  -14.83813 -10.67655 -10.65917  -1.04363  -0.88731
 Alpha  occ. eigenvalues --   -0.58582  -0.54195  -0.53594  -0.44589  -0.39342
 Alpha  occ. eigenvalues --   -0.39155
 Alpha virt. eigenvalues --    0.03675   0.07981   0.08416   0.10191   0.11406
 Alpha virt. eigenvalues --    0.11564   0.15171   0.15519   0.16671   0.20045
 Alpha virt. eigenvalues --    0.20074   0.25015   0.32554   0.33921   0.34803

 Mulliken charges:
               1
     1  C   -0.102848
     2  C   -0.004862
     3  N   -0.201889
     4  H    0.103948
     5  H    0.101840
     6  H    0.103811
 Sum of Mulliken charges =   0.00000

 Dipole moment (field-independent basis, Debye):
    X=              4.0980    Y=              0.0170    Z=             -0.0240  Tot=              4.0981
 Quadrupole moment (field-independent basis, Debye-Ang):
   XX=            -21.2735   YY=            -17.6765   ZZ=            -17.6726
   XY=             -0.1061   XZ=              0.1319   YZ=              0.0174

 Normal termination of Gaussian 09 at Wed Aug 26 11:45:47 2020.
