 Gaussian 09, Revision D.01,
 Gaussian 09:  ES64L-G09RevD.01 24-Apr-2013

 --------------------
 #p B2PLYPD3/Def2QZVP
 --------------------

 ------------
 cyanomethane
 ------------
 Symbolic Z-matrix:
 Charge =  0 Multiplicity = 1

                         Standard orientation:
 ---------------------------------------------------------------------
 Center     Atomic      Atomic             Coordinates (Angstroms)
 Number     Number       Type             X           Y           Z
 ---------------------------------------------------------------------
      1          6           0       -1.179530   -0.021032   -0.016710
      2          6           0        0.279210    0.018111    0.030542
      3          7           0        1.420434   -0.006155   -0.023413
      4          1           0       -1.391583   -0.459505    0.858025
      5          1           0       -1.616663   -0.475503   -0.789567
      6          1           0       -1.532870    0.995619    0.012443
 ---------------------------------------------------------------------

 SCF Done:  E(RB2PLYPD3) =  -132.521381380     A.U. after   12 cycles
 E2(B2PLYPD3) =    -0.1789356400D+00 E(B2PLYPD3) =    -0.13270031701989D+03

 The electronic state is 1-A.
 Alpha  occ. eigenvalues --  -14.83767 -10.65815 -10.65085  -1.04585  -0.90895
 Alpha  occ. eigenvalues --   -0.60785  -0.56023  -0.54336  -0.44678  -0.39527
 Alpha  occ. eigenvalues --   -0.39294
 Alpha virt. eigenvalues --    0.04014   0.08347   0.09425   0.10120   0.11386
 Alpha virt. eigenvalues --    0.11628   0.15287   0.15678   0.17464   0.20082
 Alpha virt. eigenvalues --    0.20165   0.25453   0.33125   0.35002   0.36037

 Mulliken charges:
               1
     1  C   -0.073933
     2  C   -0.001058
     3  N   -0.202765
     4  H    0.097791
     5  H    0.092815
     6  H    0.087150
 Sum of Mulliken charges =   0.00000

 Dipole moment (field-independent basis, Debye):
    X=             -4.1117    Y=              0.0092    Z=              0.0576  Tot=              4.1121
 Quadrupole moment (field-independent basis, Debye-Ang):
   XX=            -20.8621   YY=            -17.6481   ZZ=            -17.5990
   XY=              0.0068   XZ=              0.2371   YZ=             -0.0096

 Normal termination of Gaussian 09 at Wed Aug 26 19:39:49 2020.
