 Gaussian 09, Revision D.01,
 Gaussian 09:  ES64L-G09RevD.01 24-Apr-2013

 --------------------
 #p B2PLYPD3/Def2QZVP
 --------------------

 ------------
 cyanomethane
 ------------
 Symbolic Z-matrix:
 Charge =  0 Multiplicity = 1

                         Standard orientation:
 ---------------------------------------------------------------------
 Center     Atomic      Atomic             Coordinates (Angstroms)
 Number     Number       Type             X           Y           Z
 ---------------------------------------------------------------------
      1          6           0       -1.178011   -0.002453   -0.011891
      2          6           0        0.286382    0.013135    0.016808
      3          7           0        1.434485   -0.006616   -0.011422
      4          1           0       -1.608714   -0.537863   -0.857793
      5          1           0       -1.565501    1.030408    0.000059
      6          1           0       -1.517405   -0.510320    0.908184
 ---------------------------------------------------------------------

 SCF Done:  E(RB2PLYPD3) =  -132.534815189     A.U. after   12 cycles
 E2(B2PLYPD3) =    -0.1801407863D+00 E(B2PLYPD3) =    -0.13271495597510D+03

 The electronic state is 1-A.
 Alpha  occ. eigenvalues --  -14.84083 -10.67463 -10.66174  -1.04369  -0.88815
 Alpha  occ. eigenvalues --   -0.59718  -0.53638  -0.53316  -0.44807  -0.39299
 Alpha  occ. eigenvalues --   -0.39156
 Alpha virt. eigenvalues --    0.03701   0.07723   0.08045   0.10166   0.11482
 Alpha virt. eigenvalues --    0.11597   0.15382   0.15940   0.17026   0.20046
 Alpha virt. eigenvalues --    0.20083   0.25274   0.32657   0.34159   0.34833

 Mulliken charges:
               1
     1  C   -0.086090
     2  C   -0.000850
     3  N   -0.202367
     4  H    0.097900
     5  H    0.096375
     6  H    0.095032
 Sum of Mulliken charges =   0.00000

 Dipole moment (field-independent basis, Debye):
    X=             -4.1188    Y=              0.0016    Z=              0.0271  Tot=              4.1189
 Quadrupole moment (field-independent basis, Debye-Ang):
   XX=            -20.9576   YY=            -17.7374   ZZ=            -17.8076
   XY=              0.0558   XZ=              0.1044   YZ=              0.0150

 Normal termination of Gaussian 09 at Thu Aug 27 00:07:35 2020.
