 Gaussian 09, Revision D.01,
 Gaussian 09:  ES64L-G09RevD.01 24-Apr-2013

 --------------------
 #p B2PLYPD3/Def2QZVP
 --------------------

 ------------
 cyanomethane
 ------------
 Symbolic Z-matrix:
 Charge =  0 Multiplicity = 1

                         Standard orientation:
 ---------------------------------------------------------------------
 Center     Atomic      Atomic             Coordinates (Angstroms)
 Number     Number       Type             X           Y           Z
 ---------------------------------------------------------------------
      1          6           0        1.160915    0.000597   -0.022790
      2          6           0       -0.280423   -0.024581   -0.002085
      3          7           0       -1.418170    0.013531   -0.003245
      4          1           0        1.578262    1.022123   -0.159705
      5          1           0        1.615156   -0.686509   -0.645660
      6          1           0        1.450818   -0.286427    0.977325
 ---------------------------------------------------------------------

 SCF Done:  E(RB2PLYPD3) =  -132.531575315     A.U. after   12 cycles
 E2(B2PLYPD3) =    -0.1790616762D+00 E(B2PLYPD3) =    -0.13271063699146D+03

 The electronic state is 1-A.
 Alpha  occ. eigenvalues --  -14.83707 -10.66416 -10.65735  -1.04818  -0.89839
 Alpha  occ. eigenvalues --   -0.60623  -0.54762  -0.53240  -0.44766  -0.39615
 Alpha  occ. eigenvalues --   -0.39140
 Alpha virt. eigenvalues --    0.03792   0.07940   0.08597   0.10185   0.11494
 Alpha virt. eigenvalues --    0.11995   0.15618   0.15655   0.17727   0.20061
 Alpha virt. eigenvalues --    0.20116   0.25715   0.33164   0.33939   0.35565

 Mulliken charges:
               1
     1  C   -0.077223
     2  C    0.000191
     3  N   -0.199021
     4  H    0.093353
     5  H    0.094799
     6  H    0.087901
 Sum of Mulliken charges =   0.00000

 Dipole moment (field-independent basis, Debye):
    X=              4.1110    Y=             -0.0464    Z=              0.0599  Tot=              4.1117
 Quadrupole moment (field-independent basis, Debye-Ang):
   XX=            -20.8287   YY=            -17.5647   ZZ=            -17.8451
   XY=              0.0304   XZ=             -0.0029   YZ=              0.0560

 Normal termination of Gaussian 09 at Wed Aug 26 23:21:56 2020.
