 Gaussian 09, Revision D.01,
 Gaussian 09:  ES64L-G09RevD.01 24-Apr-2013

 --------------------
 #p B2PLYPD3/Def2QZVP
 --------------------

 ------------
 cyanomethane
 ------------
 Symbolic Z-matrix:
 Charge =  0 Multiplicity = 1

                         Standard orientation:
 ---------------------------------------------------------------------
 Center     Atomic      Atomic             Coordinates (Angstroms)
 Number     Number       Type             X           Y           Z
 ---------------------------------------------------------------------
      1          6           0        1.182074    0.000778   -0.004475
      2          6           0       -0.283717    0.032377    0.010681
      3          7           0       -1.421680   -0.012177   -0.006906
      4          1           0        1.492096   -0.728941   -0.717017
      5          1           0        1.478344   -0.328637    0.952884
      6          1           0        1.591179    0.943892   -0.224764
 ---------------------------------------------------------------------

 SCF Done:  E(RB2PLYPD3) =  -132.534527285     A.U. after   11 cycles
 E2(B2PLYPD3) =    -0.1787375205D+00 E(B2PLYPD3) =    -0.13271326480532D+03

 The electronic state is 1-A.
 Alpha  occ. eigenvalues --  -14.83629 -10.66177 -10.65669  -1.04662  -0.89846
 Alpha  occ. eigenvalues --   -0.59377  -0.55148  -0.54475  -0.44609  -0.39574
 Alpha  occ. eigenvalues --   -0.39397
 Alpha virt. eigenvalues --    0.03914   0.08590   0.08843   0.10260   0.11393
 Alpha virt. eigenvalues --    0.11647   0.15425   0.15966   0.16603   0.19991
 Alpha virt. eigenvalues --    0.20085   0.25237   0.33070   0.34801   0.35504

 Mulliken charges:
               1
     1  C   -0.082429
     2  C   -0.007232
     3  N   -0.199549
     4  H    0.096426
     5  H    0.095997
     6  H    0.096787
 Sum of Mulliken charges =   0.00000

 Dipole moment (field-independent basis, Debye):
    X=              4.1071    Y=              0.0006    Z=              0.0199  Tot=              4.1071
 Quadrupole moment (field-independent basis, Debye-Ang):
   XX=            -21.0214   YY=            -17.5743   ZZ=            -17.6788
   XY=             -0.0268   XZ=             -0.0486   YZ=             -0.0151

 Normal termination of Gaussian 09 at Wed Aug 26 14:45:59 2020.
