 Gaussian 09, Revision D.01,
 Gaussian 09:  ES64L-G09RevD.01 24-Apr-2013

 --------------------
 #p B2PLYPD3/Def2QZVP
 --------------------

 ------------
 cyanomethane
 ------------
 Symbolic Z-matrix:
 Charge =  0 Multiplicity = 1

                         Standard orientation:
 ---------------------------------------------------------------------
 Center     Atomic      Atomic             Coordinates (Angstroms)
 Number     Number       Type             X           Y           Z
 ---------------------------------------------------------------------
      1          6           0        1.151043    0.008544   -0.021654
      2          6           0       -0.280179    0.035716   -0.045457
      3          7           0       -1.417261   -0.027487    0.037953
      4          1           0        1.755491   -0.330268    0.943353
      5          1           0        1.428958    0.977936   -0.148067
      6          1           0        1.511195   -0.720823   -0.658293
 ---------------------------------------------------------------------

 SCF Done:  E(RB2PLYPD3) =  -132.514431468     A.U. after   12 cycles
 E2(B2PLYPD3) =    -0.1798972743D+00 E(B2PLYPD3) =    -0.13269432874199D+03

 The electronic state is 1-A.
 Alpha  occ. eigenvalues --  -14.83966 -10.66343 -10.65859  -1.04830  -0.90135
 Alpha  occ. eigenvalues --   -0.60929  -0.57394  -0.50401  -0.44928  -0.39692
 Alpha  occ. eigenvalues --   -0.38686
 Alpha virt. eigenvalues --    0.03224   0.06810   0.09123   0.10061   0.11216
 Alpha virt. eigenvalues --    0.12217   0.15569   0.16268   0.17586   0.19829
 Alpha virt. eigenvalues --    0.20403   0.25997   0.32067   0.33990   0.36331

 Mulliken charges:
               1
     1  C   -0.076033
     2  C    0.002775
     3  N   -0.198568
     4  H    0.074371
     5  H    0.100375
     6  H    0.097080
 Sum of Mulliken charges =   0.00000

 Dipole moment (field-independent basis, Debye):
    X=              4.0868    Y=              0.0251    Z=             -0.0718  Tot=              4.0875
 Quadrupole moment (field-independent basis, Debye-Ang):
   XX=            -20.6625   YY=            -17.4390   ZZ=            -18.1446
   XY=             -0.3365   XZ=              0.3915   YZ=              0.1169

 Normal termination of Gaussian 09 at Wed Aug 26 23:35:47 2020.
