 Gaussian 09, Revision D.01,
 Gaussian 09:  ES64L-G09RevD.01 24-Apr-2013

 --------------------
 #p B2PLYPD3/Def2QZVP
 --------------------

 ------------
 cyanomethane
 ------------
 Symbolic Z-matrix:
 Charge =  0 Multiplicity = 1

                         Standard orientation:
 ---------------------------------------------------------------------
 Center     Atomic      Atomic             Coordinates (Angstroms)
 Number     Number       Type             X           Y           Z
 ---------------------------------------------------------------------
      1          6           0        1.160505    0.014784    0.014009
      2          6           0       -0.267719   -0.001046   -0.030475
      3          7           0       -1.432483   -0.006244    0.008449
      4          1           0        1.493457    1.022949   -0.047852
      5          1           0        1.664503   -0.586198   -0.808146
      6          1           0        1.512705   -0.475465    0.895647
 ---------------------------------------------------------------------

 SCF Done:  E(RB2PLYPD3) =  -132.530672972     A.U. after   12 cycles
 E2(B2PLYPD3) =    -0.1815257609D+00 E(B2PLYPD3) =    -0.13271219873330D+03

 The electronic state is 1-A.
 Alpha  occ. eigenvalues --  -14.84514 -10.66843 -10.66502  -1.03800  -0.89785
 Alpha  occ. eigenvalues --   -0.60624  -0.55383  -0.52475  -0.44913  -0.38852
 Alpha  occ. eigenvalues --   -0.38504
 Alpha virt. eigenvalues --    0.03742   0.06991   0.07904   0.10125   0.11265
 Alpha virt. eigenvalues --    0.11762   0.15498   0.16355   0.16583   0.20072
 Alpha virt. eigenvalues --    0.20225   0.25909   0.32495   0.34368   0.35183

 Mulliken charges:
               1
     1  C   -0.074740
     2  C    0.002923
     3  N   -0.211654
     4  H    0.101011
     5  H    0.085943
     6  H    0.096518
 Sum of Mulliken charges =   0.00000

 Dipole moment (field-independent basis, Debye):
    X=              4.1421    Y=             -0.0081    Z=              0.0100  Tot=              4.1421
 Quadrupole moment (field-independent basis, Debye-Ang):
   XX=            -20.8807   YY=            -17.6415   ZZ=            -17.9709
   XY=             -0.1710   XZ=             -0.0093   YZ=             -0.0702

 Normal termination of Gaussian 09 at Wed Aug 26 13:06:19 2020.
