 Gaussian 09, Revision D.01,
 Gaussian 09:  ES64L-G09RevD.01 24-Apr-2013

 --------------------
 #p B2PLYPD3/Def2QZVP
 --------------------

 ------------
 cyanomethane
 ------------
 Symbolic Z-matrix:
 Charge =  0 Multiplicity = 1

                         Standard orientation:
 ---------------------------------------------------------------------
 Center     Atomic      Atomic             Coordinates (Angstroms)
 Number     Number       Type             X           Y           Z
 ---------------------------------------------------------------------
      1          6           0       -1.187472   -0.015187   -0.007528
      2          6           0        0.273423    0.003053    0.040981
      3          7           0        1.439715   -0.001827   -0.020065
      4          1           0       -1.506266    1.018444   -0.178983
      5          1           0       -1.546658   -0.327307    0.907429
      6          1           0       -1.540784   -0.605546   -0.788709
 ---------------------------------------------------------------------

 SCF Done:  E(RB2PLYPD3) =  -132.530436835     A.U. after   12 cycles
 E2(B2PLYPD3) =    -0.1812617478D+00 E(B2PLYPD3) =    -0.13271169858306D+03

 The electronic state is 1-A.
 Alpha  occ. eigenvalues --  -14.84522 -10.66599 -10.66194  -1.03565  -0.90039
 Alpha  occ. eigenvalues --   -0.59956  -0.55699  -0.53981  -0.44780  -0.38921
 Alpha  occ. eigenvalues --   -0.38672
 Alpha virt. eigenvalues --    0.03833   0.07839   0.08377   0.10137   0.11064
 Alpha virt. eigenvalues --    0.11372   0.15408   0.15763   0.16606   0.20107
 Alpha virt. eigenvalues --    0.20211   0.25345   0.32740   0.34354   0.35677

 Mulliken charges:
               1
     1  C   -0.075701
     2  C    0.000019
     3  N   -0.213688
     4  H    0.093137
     5  H    0.097368
     6  H    0.098863
 Sum of Mulliken charges =   0.00000

 Dipole moment (field-independent basis, Debye):
    X=             -4.1513    Y=              0.0098    Z=              0.0260  Tot=              4.1514
 Quadrupole moment (field-independent basis, Debye-Ang):
   XX=            -20.9892   YY=            -17.7703   ZZ=            -17.7037
   XY=              0.0201   XZ=              0.0925   YZ=              0.0145

 Normal termination of Gaussian 09 at Wed Aug 26 14:49:14 2020.
