 Gaussian 09, Revision D.01,
 Gaussian 09:  ES64L-G09RevD.01 24-Apr-2013

 --------------------
 #p B2PLYPD3/Def2QZVP
 --------------------

 ------------
 cyanomethane
 ------------
 Symbolic Z-matrix:
 Charge =  0 Multiplicity = 1

                         Standard orientation:
 ---------------------------------------------------------------------
 Center     Atomic      Atomic             Coordinates (Angstroms)
 Number     Number       Type             X           Y           Z
 ---------------------------------------------------------------------
      1          6           0        1.176534   -0.010117    0.003693
      2          6           0       -0.274955    0.017590    0.005549
      3          7           0       -1.434805   -0.007984   -0.003515
      4          1           0        1.547185    1.016127   -0.152330
      5          1           0        1.545803   -0.625830   -0.812314
      6          1           0        1.541172   -0.379248    0.933800
 ---------------------------------------------------------------------

 SCF Done:  E(RB2PLYPD3) =  -132.534808265     A.U. after   11 cycles
 E2(B2PLYPD3) =    -0.1808868872D+00 E(B2PLYPD3) =    -0.13271569515204D+03

 The electronic state is 1-A.
 Alpha  occ. eigenvalues --  -14.84325 -10.66947 -10.66374  -1.03896  -0.89461
 Alpha  occ. eigenvalues --   -0.59850  -0.54553  -0.53662  -0.44798  -0.38972
 Alpha  occ. eigenvalues --   -0.38827
 Alpha virt. eigenvalues --    0.03777   0.07738   0.07973   0.10151   0.11339
 Alpha virt. eigenvalues --    0.11482   0.15441   0.16052   0.16507   0.20110
 Alpha virt. eigenvalues --    0.20137   0.25460   0.32731   0.34347   0.35008

 Mulliken charges:
               1
     1  C   -0.082501
     2  C   -0.000528
     3  N   -0.209243
     4  H    0.094876
     5  H    0.097789
     6  H    0.099607
 Sum of Mulliken charges =   0.00000

 Dipole moment (field-independent basis, Debye):
    X=              4.1340    Y=              0.0113    Z=              0.0035  Tot=              4.1340
 Quadrupole moment (field-independent basis, Debye-Ang):
   XX=            -21.0179   YY=            -17.7743   ZZ=            -17.7284
   XY=             -0.0377   XZ=             -0.0276   YZ=             -0.0107

 Normal termination of Gaussian 09 at Thu Aug 27 00:06:39 2020.
