 Gaussian 09, Revision D.01,
 Gaussian 09:  ES64L-G09RevD.01 24-Apr-2013

 --------------------
 #p B2PLYPD3/Def2QZVP
 --------------------

 ------------
 cyanomethane
 ------------
 Symbolic Z-matrix:
 Charge =  0 Multiplicity = 1

                         Standard orientation:
 ---------------------------------------------------------------------
 Center     Atomic      Atomic             Coordinates (Angstroms)
 Number     Number       Type             X           Y           Z
 ---------------------------------------------------------------------
      1          6           0        1.168517   -0.000872   -0.004497
      2          6           0       -0.278840   -0.001905    0.002397
      3          7           0       -1.429219    0.003106   -0.003339
      4          1           0        1.590733    1.003431   -0.254706
      5          1           0        1.561429   -0.742755   -0.697919
      6          1           0        1.514310   -0.265755    0.988604
 ---------------------------------------------------------------------

 SCF Done:  E(RB2PLYPD3) =  -132.535147012     A.U. after   12 cycles
 E2(B2PLYPD3) =    -0.1802213232D+00 E(B2PLYPD3) =    -0.13271536833480D+03

 The electronic state is 1-A.
 Alpha  occ. eigenvalues --  -14.84084 -10.67215 -10.66114  -1.04317  -0.89210
 Alpha  occ. eigenvalues --   -0.59914  -0.53889  -0.53503  -0.44809  -0.39149
 Alpha  occ. eigenvalues --   -0.39061
 Alpha virt. eigenvalues --    0.03728   0.07621   0.08025   0.10165   0.11549
 Alpha virt. eigenvalues --    0.11636   0.15493   0.16077   0.16800   0.20072
 Alpha virt. eigenvalues --    0.20092   0.25535   0.32790   0.34380   0.34701

 Mulliken charges:
               1
     1  C   -0.084010
     2  C   -0.000932
     3  N   -0.203868
     4  H    0.095697
     5  H    0.097157
     6  H    0.095956
 Sum of Mulliken charges =   0.00000

 Dipole moment (field-independent basis, Debye):
    X=              4.1176    Y=             -0.0187    Z=              0.0229  Tot=              4.1177
 Quadrupole moment (field-independent basis, Debye-Ang):
   XX=            -20.9685   YY=            -17.6976   ZZ=            -17.8070
   XY=              0.0194   XZ=             -0.0198   YZ=              0.0127

 Normal termination of Gaussian 09 at Thu Aug 27 00:12:55 2020.
