 Gaussian 09, Revision D.01,
 Gaussian 09:  ES64L-G09RevD.01 24-Apr-2013

 --------------------
 #p B2PLYPD3/Def2QZVP
 --------------------

 ------------
 cyanomethane
 ------------
 Symbolic Z-matrix:
 Charge =  0 Multiplicity = 1

                         Standard orientation:
 ---------------------------------------------------------------------
 Center     Atomic      Atomic             Coordinates (Angstroms)
 Number     Number       Type             X           Y           Z
 ---------------------------------------------------------------------
      1          6           0       -1.184184   -0.021935   -0.017813
      2          6           0        0.257186    0.017972    0.071653
      3          7           0        1.431393   -0.011590   -0.040662
      4          1           0       -1.413106   -0.070322    0.945055
      5          1           0       -1.577863   -0.812081   -0.569123
      6          1           0       -1.466792    0.987313   -0.414342
 ---------------------------------------------------------------------

 SCF Done:  E(RB2PLYPD3) =  -132.516798292     A.U. after   13 cycles
 E2(B2PLYPD3) =    -0.1826179152D+00 E(B2PLYPD3) =    -0.13269941620678D+03

 The electronic state is 1-A.
 Alpha  occ. eigenvalues --  -14.84726 -10.66742 -10.65895  -1.03155  -0.90847
 Alpha  occ. eigenvalues --   -0.59895  -0.56268  -0.54313  -0.44723  -0.38452
 Alpha  occ. eigenvalues --   -0.38197
 Alpha virt. eigenvalues --    0.03610   0.07179   0.08827   0.09887   0.11088
 Alpha virt. eigenvalues --    0.11292   0.14654   0.15544   0.17084   0.20198
 Alpha virt. eigenvalues --    0.20334   0.25878   0.32728   0.34204   0.35545

 Mulliken charges:
               1
     1  C   -0.095351
     2  C    0.005115
     3  N   -0.220868
     4  H    0.107019
     5  H    0.104178
     6  H    0.099907
 Sum of Mulliken charges =   0.00000

 Dipole moment (field-independent basis, Debye):
    X=             -4.1190    Y=              0.0141    Z=              0.0851  Tot=              4.1199
 Quadrupole moment (field-independent basis, Debye-Ang):
   XX=            -21.2299   YY=            -17.5794   ZZ=            -17.7880
   XY=              0.1347   XZ=              0.2015   YZ=              0.0368

 Normal termination of Gaussian 09 at Wed Aug 26 19:41:49 2020.
