 Gaussian 09, Revision D.01,
 Gaussian 09:  ES64L-G09RevD.01 24-Apr-2013

 --------------------
 #p B2PLYPD3/Def2QZVP
 --------------------

 ------------
 cyanomethane
 ------------
 Symbolic Z-matrix:
 Charge =  0 Multiplicity = 1

                         Standard orientation:
 ---------------------------------------------------------------------
 Center     Atomic      Atomic             Coordinates (Angstroms)
 Number     Number       Type             X           Y           Z
 ---------------------------------------------------------------------
      1          6           0        1.157926   -0.009263    0.007293
      2          6           0       -0.282850   -0.000919   -0.026447
      3          7           0       -1.424156   -0.001681    0.015862
      4          1           0        1.619162   -0.259307    1.009545
      5          1           0        1.521970    1.046089   -0.258937
      6          1           0        1.577502   -0.713925   -0.746716
 ---------------------------------------------------------------------

 SCF Done:  E(RB2PLYPD3) =  -132.531099657     A.U. after   12 cycles
 E2(B2PLYPD3) =    -0.1800750034D+00 E(B2PLYPD3) =    -0.13271117466069D+03

 The electronic state is 1-A.
 Alpha  occ. eigenvalues --  -14.83924 -10.68111 -10.65932  -1.04719  -0.88524
 Alpha  occ. eigenvalues --   -0.59855  -0.53183  -0.52435  -0.44861  -0.39301
 Alpha  occ. eigenvalues --   -0.39098
 Alpha virt. eigenvalues --    0.03535   0.07175   0.07660   0.10116   0.11735
 Alpha virt. eigenvalues --    0.11936   0.15518   0.16041   0.17141   0.20007
 Alpha virt. eigenvalues --    0.20086   0.25711   0.32670   0.33558   0.34398

 Mulliken charges:
               1
     1  C   -0.093583
     2  C    0.001373
     3  N   -0.197979
     4  H    0.097782
     5  H    0.094412
     6  H    0.097994
 Sum of Mulliken charges =   0.00000

 Dipole moment (field-independent basis, Debye):
    X=              4.0849    Y=              0.0073    Z=             -0.0269  Tot=              4.0850
 Quadrupole moment (field-independent basis, Debye-Ang):
   XX=            -20.9762   YY=            -17.7873   ZZ=            -17.7851
   XY=             -0.0499   XZ=              0.1322   YZ=              0.0254

 Normal termination of Gaussian 09 at Wed Aug 26 15:43:58 2020.
