 Gaussian 09, Revision D.01,
 Gaussian 09:  ES64L-G09RevD.01 24-Apr-2013

 --------------------
 #p B2PLYPD3/Def2QZVP
 --------------------

 ------------
 cyanomethane
 ------------
 Symbolic Z-matrix:
 Charge =  0 Multiplicity = 1

                         Standard orientation:
 ---------------------------------------------------------------------
 Center     Atomic      Atomic             Coordinates (Angstroms)
 Number     Number       Type             X           Y           Z
 ---------------------------------------------------------------------
      1          6           0       -1.177440   -0.010349   -0.009923
      2          6           0        0.280014    0.027255    0.001421
      3          7           0        1.426839   -0.012196    0.000203
      4          1           0       -1.531761   -0.122770    0.996686
      5          1           0       -1.523676   -0.825540   -0.571437
      6          1           0       -1.547877    0.932247   -0.375664
 ---------------------------------------------------------------------

 SCF Done:  E(RB2PLYPD3) =  -132.535018062     A.U. after   11 cycles
 E2(B2PLYPD3) =    -0.1795707875D+00 E(B2PLYPD3) =    -0.13271458884992D+03

 The electronic state is 1-A.
 Alpha  occ. eigenvalues --  -14.83932 -10.66385 -10.65961  -1.04370  -0.89755
 Alpha  occ. eigenvalues --   -0.59767  -0.55143  -0.53891  -0.44713  -0.39351
 Alpha  occ. eigenvalues --   -0.39159
 Alpha virt. eigenvalues --    0.03879   0.08315   0.08396   0.10186   0.11369
 Alpha virt. eigenvalues --    0.11596   0.15467   0.16047   0.16638   0.20021
 Alpha virt. eigenvalues --    0.20117   0.25394   0.32985   0.34588   0.35421

 Mulliken charges:
               1
     1  C   -0.078593
     2  C   -0.003843
     3  N   -0.203657
     4  H    0.092042
     5  H    0.098874
     6  H    0.095177
 Sum of Mulliken charges =   0.00000

 Dipole moment (field-independent basis, Debye):
    X=             -4.1188    Y=              0.0139    Z=              0.0203  Tot=              4.1189
 Quadrupole moment (field-independent basis, Debye-Ang):
   XX=            -20.9801   YY=            -17.5877   ZZ=            -17.7776
   XY=              0.0589   XZ=             -0.0522   YZ=              0.0289

 Normal termination of Gaussian 09 at Wed Aug 26 19:50:19 2020.
