 Gaussian 09, Revision D.01,
 Gaussian 09:  ES64L-G09RevD.01 24-Apr-2013

 --------------------
 #p B2PLYPD3/Def2QZVP
 --------------------

 ------------
 cyanomethane
 ------------
 Symbolic Z-matrix:
 Charge =  0 Multiplicity = 1

                         Standard orientation:
 ---------------------------------------------------------------------
 Center     Atomic      Atomic             Coordinates (Angstroms)
 Number     Number       Type             X           Y           Z
 ---------------------------------------------------------------------
      1          6           0        1.175453   -0.008196    0.007379
      2          6           0       -0.269875    0.020718    0.005567
      3          7           0       -1.433409   -0.005880   -0.002863
      4          1           0        1.533167   -0.220184    0.981927
      5          1           0        1.581618    0.971698   -0.341912
      6          1           0        1.485611   -0.785486   -0.697648
 ---------------------------------------------------------------------

 SCF Done:  E(RB2PLYPD3) =  -132.533527192     A.U. after   11 cycles
 E2(B2PLYPD3) =    -0.1812706379D+00 E(B2PLYPD3) =    -0.13271479783023D+03

 The electronic state is 1-A.
 Alpha  occ. eigenvalues --  -14.84371 -10.67079 -10.66412  -1.03739  -0.89525
 Alpha  occ. eigenvalues --   -0.59677  -0.54740  -0.53597  -0.44768  -0.38820
 Alpha  occ. eigenvalues --   -0.38658
 Alpha virt. eigenvalues --    0.03743   0.07531   0.07956   0.10147   0.11314
 Alpha virt. eigenvalues --    0.11497   0.15410   0.16023   0.16270   0.20133
 Alpha virt. eigenvalues --    0.20163   0.25546   0.32616   0.34186   0.34899

 Mulliken charges:
               1
     1  C   -0.088282
     2  C   -0.000036
     3  N   -0.211515
     4  H    0.102352
     5  H    0.096531
     6  H    0.100950
 Sum of Mulliken charges =   0.00000

 Dipole moment (field-independent basis, Debye):
    X=              4.1310    Y=             -0.0026    Z=              0.0033  Tot=              4.1310
 Quadrupole moment (field-independent basis, Debye-Ang):
   XX=            -21.1183   YY=            -17.7562   ZZ=            -17.7232
   XY=              0.0191   XZ=             -0.0025   YZ=              0.0012

 Normal termination of Gaussian 09 at Thu Aug 27 00:12:21 2020.
