 Gaussian 09, Revision D.01,
 Gaussian 09:  ES64L-G09RevD.01 24-Apr-2013

 --------------------
 #p B2PLYPD3/Def2QZVP
 --------------------

 ------------
 cyanomethane
 ------------
 Symbolic Z-matrix:
 Charge =  0 Multiplicity = 1

                         Standard orientation:
 ---------------------------------------------------------------------
 Center     Atomic      Atomic             Coordinates (Angstroms)
 Number     Number       Type             X           Y           Z
 ---------------------------------------------------------------------
      1          6           0       -1.182078    0.002538   -0.008141
      2          6           0        0.280869    0.017241    0.009313
      3          7           0        1.429770   -0.010288   -0.006483
      4          1           0       -1.565044   -0.808846   -0.605980
      5          1           0       -1.533644    0.923775   -0.356872
      6          1           0       -1.502447   -0.161587    1.001202
 ---------------------------------------------------------------------

 SCF Done:  E(RB2PLYPD3) =  -132.534708546     A.U. after   12 cycles
 E2(B2PLYPD3) =    -0.1797135623D+00 E(B2PLYPD3) =    -0.13271442210843D+03

 The electronic state is 1-A.
 Alpha  occ. eigenvalues --  -14.83982 -10.66424 -10.66035  -1.04279  -0.89720
 Alpha  occ. eigenvalues --   -0.59622  -0.55147  -0.53978  -0.44702  -0.39316
 Alpha  occ. eigenvalues --   -0.39143
 Alpha virt. eigenvalues --    0.03865   0.08155   0.08624   0.10206   0.11307
 Alpha virt. eigenvalues --    0.11540   0.15427   0.15920   0.16680   0.20049
 Alpha virt. eigenvalues --    0.20115   0.25257   0.32930   0.34634   0.35363

 Mulliken charges:
               1
     1  C   -0.080040
     2  C   -0.004151
     3  N   -0.204553
     4  H    0.095442
     5  H    0.098525
     6  H    0.094776
 Sum of Mulliken charges =   0.00000

 Dipole moment (field-independent basis, Debye):
    X=             -4.1253    Y=              0.0107    Z=              0.0228  Tot=              4.1254
 Quadrupole moment (field-independent basis, Debye-Ang):
   XX=            -20.9947   YY=            -17.6384   ZZ=            -17.7371
   XY=              0.0856   XZ=              0.0468   YZ=             -0.0244

 Normal termination of Gaussian 09 at Thu Aug 27 00:06:35 2020.
