 Gaussian 09, Revision D.01,
 Gaussian 09:  ES64L-G09RevD.01 24-Apr-2013

 --------------------
 #p B2PLYPD3/Def2QZVP
 --------------------

 ------------
 cyanomethane
 ------------
 Symbolic Z-matrix:
 Charge =  0 Multiplicity = 1

                         Standard orientation:
 ---------------------------------------------------------------------
 Center     Atomic      Atomic             Coordinates (Angstroms)
 Number     Number       Type             X           Y           Z
 ---------------------------------------------------------------------
      1          6           0       -1.170133    0.039444   -0.014308
      2          6           0        0.252858   -0.080947    0.003268
      3          7           0        1.430527    0.036388   -0.003707
      4          1           0       -1.458207   -0.184817    0.963815
      5          1           0       -1.548991   -0.759458   -0.590175
      6          1           0       -1.502837    0.938581   -0.281453
 ---------------------------------------------------------------------

 SCF Done:  E(RB2PLYPD3) =  -132.519534498     A.U. after   13 cycles
 E2(B2PLYPD3) =    -0.1826166516D+00 E(B2PLYPD3) =    -0.13270215114968D+03

 The electronic state is 1-A.
 Alpha  occ. eigenvalues --  -14.84876 -10.66826 -10.65130  -1.03115  -0.91243
 Alpha  occ. eigenvalues --   -0.60949  -0.56731  -0.54528  -0.44855  -0.38472
 Alpha  occ. eigenvalues --   -0.38085
 Alpha virt. eigenvalues --    0.03841   0.07417   0.08201   0.09898   0.11186
 Alpha virt. eigenvalues --    0.11359   0.15136   0.15718   0.17052   0.20160
 Alpha virt. eigenvalues --    0.20370   0.26348   0.33090   0.34522   0.35986

 Mulliken charges:
               1
     1  C   -0.067882
     2  C    0.006821
     3  N   -0.222497
     4  H    0.090746
     5  H    0.091442
     6  H    0.101370
 Sum of Mulliken charges =   0.00000

 Dipole moment (field-independent basis, Debye):
    X=             -4.1460    Y=             -0.0656    Z=              0.0453  Tot=              4.1468
 Quadrupole moment (field-independent basis, Debye-Ang):
   XX=            -20.9792   YY=            -17.5513   ZZ=            -17.8747
   XY=             -0.0833   XZ=             -0.0203   YZ=             -0.0372

 Normal termination of Gaussian 09 at Wed Aug 26 23:38:56 2020.
