 Gaussian 09, Revision D.01,
 Gaussian 09:  ES64L-G09RevD.01 24-Apr-2013

 --------------------
 #p B2PLYPD3/Def2QZVP
 --------------------

 ------------
 cyanomethane
 ------------
 Symbolic Z-matrix:
 Charge =  0 Multiplicity = 1

                         Standard orientation:
 ---------------------------------------------------------------------
 Center     Atomic      Atomic             Coordinates (Angstroms)
 Number     Number       Type             X           Y           Z
 ---------------------------------------------------------------------
      1          6           0        1.151890   -0.006157   -0.004404
      2          6           0       -0.262597   -0.044939   -0.049071
      3          7           0       -1.428855    0.037049    0.026536
      4          1           0        1.457362   -0.533535   -0.780834
      5          1           0        1.481447   -0.474179    0.917607
      6          1           0        1.727410    1.054951   -0.001676
 ---------------------------------------------------------------------

 SCF Done:  E(RB2PLYPD3) =  -132.512789834     A.U. after   13 cycles
 E2(B2PLYPD3) =    -0.1824555634D+00 E(B2PLYPD3) =    -0.13269524539733D+03

 The electronic state is 1-A.
 Alpha  occ. eigenvalues --  -14.84754 -10.66690 -10.66615  -1.03691  -0.90371
 Alpha  occ. eigenvalues --   -0.60653  -0.56130  -0.51758  -0.45021  -0.38677
 Alpha  occ. eigenvalues --   -0.38245
 Alpha virt. eigenvalues --    0.03048   0.06181   0.08600   0.09910   0.11145
 Alpha virt. eigenvalues --    0.11853   0.15370   0.15790   0.17514   0.20053
 Alpha virt. eigenvalues --    0.20495   0.26275   0.32020   0.33845   0.35065

 Mulliken charges:
               1
     1  C   -0.083926
     2  C    0.006092
     3  N   -0.213302
     4  H    0.105065
     5  H    0.096016
     6  H    0.090055
 Sum of Mulliken charges =   0.00000

 Dipole moment (field-independent basis, Debye):
    X=              4.1176    Y=             -0.1087    Z=             -0.0199  Tot=              4.1191
 Quadrupole moment (field-independent basis, Debye-Ang):
   XX=            -20.8307   YY=            -17.8366   ZZ=            -17.8139
   XY=              0.2815   XZ=              0.1798   YZ=              0.0620

 Normal termination of Gaussian 09 at Wed Aug 26 23:22:15 2020.
