 Gaussian 09, Revision D.01,
 Gaussian 09:  ES64L-G09RevD.01 24-Apr-2013

 --------------------
 #p B2PLYPD3/Def2QZVP
 --------------------

 ------------
 cyanomethane
 ------------
 Symbolic Z-matrix:
 Charge =  0 Multiplicity = 1

                         Standard orientation:
 ---------------------------------------------------------------------
 Center     Atomic      Atomic             Coordinates (Angstroms)
 Number     Number       Type             X           Y           Z
 ---------------------------------------------------------------------
      1          6           0       -1.189643    0.001528    0.007066
      2          6           0        0.286120    0.009911    0.007935
      3          7           0        1.438233   -0.000180   -0.001861
      4          1           0       -1.565683   -0.359751    0.973110
      5          1           0       -1.473500   -0.729530   -0.812267
      6          1           0       -1.607305    1.021906   -0.237825
 ---------------------------------------------------------------------

 SCF Done:  E(RB2PLYPD3) =  -132.532182544     A.U. after   12 cycles
 E2(B2PLYPD3) =    -0.1807021171D+00 E(B2PLYPD3) =    -0.13271288466062D+03

 The electronic state is 1-A.
 Alpha  occ. eigenvalues --  -14.84095 -10.68280 -10.66243  -1.04133  -0.88273
 Alpha  occ. eigenvalues --   -0.58751  -0.53656  -0.52923  -0.44694  -0.39183
 Alpha  occ. eigenvalues --   -0.38968
 Alpha virt. eigenvalues --    0.03555   0.07592   0.07894   0.10215   0.11364
 Alpha virt. eigenvalues --    0.11596   0.15104   0.15782   0.16599   0.20049
 Alpha virt. eigenvalues --    0.20095   0.24976   0.32203   0.33540   0.34568

 Mulliken charges:
               1
     1  C   -0.104010
     2  C   -0.001123
     3  N   -0.204258
     4  H    0.104811
     5  H    0.102239
     6  H    0.102341
 Sum of Mulliken charges =   0.00000

 Dipole moment (field-independent basis, Debye):
    X=             -4.1154    Y=             -0.0127    Z=             -0.0005  Tot=              4.1154
 Quadrupole moment (field-independent basis, Debye-Ang):
   XX=            -21.2176   YY=            -17.7453   ZZ=            -17.7670
   XY=             -0.0604   XZ=             -0.0354   YZ=             -0.0286

 Normal termination of Gaussian 09 at Wed Aug 26 16:11:42 2020.
