 Gaussian 09, Revision D.01,
 Gaussian 09:  ES64L-G09RevD.01 24-Apr-2013

 --------------------
 #p B2PLYPD3/Def2QZVP
 --------------------

 ------------
 cyanomethane
 ------------
 Symbolic Z-matrix:
 Charge =  0 Multiplicity = 1

                         Standard orientation:
 ---------------------------------------------------------------------
 Center     Atomic      Atomic             Coordinates (Angstroms)
 Number     Number       Type             X           Y           Z
 ---------------------------------------------------------------------
      1          6           0       -1.163357   -0.015256   -0.020186
      2          6           0        0.281097    0.029772   -0.005877
      3          7           0        1.426804   -0.008573    0.009375
      4          1           0       -1.613599   -0.087228    1.035238
      5          1           0       -1.473329   -0.860615   -0.538747
      6          1           0       -1.607146    0.920762   -0.405738
 ---------------------------------------------------------------------

 SCF Done:  E(RB2PLYPD3) =  -132.530870999     A.U. after   11 cycles
 E2(B2PLYPD3) =    -0.1800009436D+00 E(B2PLYPD3) =    -0.13271087194267D+03

 The electronic state is 1-A.
 Alpha  occ. eigenvalues --  -14.84026 -10.67180 -10.66032  -1.04526  -0.89249
 Alpha  occ. eigenvalues --   -0.60144  -0.55278  -0.51906  -0.44850  -0.39433
 Alpha  occ. eigenvalues --   -0.38953
 Alpha virt. eigenvalues --    0.03668   0.07280   0.08243   0.10174   0.11416
 Alpha virt. eigenvalues --    0.11925   0.15494   0.16515   0.16679   0.19952
 Alpha virt. eigenvalues --    0.20134   0.25648   0.32582   0.33642   0.35584

 Mulliken charges:
               1
     1  C   -0.080528
     2  C   -0.000294
     3  N   -0.201473
     4  H    0.085456
     5  H    0.103196
     6  H    0.093642
 Sum of Mulliken charges =   0.00000

 Dipole moment (field-independent basis, Debye):
    X=             -4.1077    Y=              0.0096    Z=             -0.0057  Tot=              4.1077
 Quadrupole moment (field-independent basis, Debye-Ang):
   XX=            -20.8832   YY=            -17.6340   ZZ=            -17.9089
   XY=             -0.0417   XZ=             -0.1561   YZ=              0.0787

 Normal termination of Gaussian 09 at Wed Aug 26 15:44:28 2020.
