 Gaussian 09, Revision D.01,
 Gaussian 09:  ES64L-G09RevD.01 24-Apr-2013

 --------------------
 #p B2PLYPD3/Def2QZVP
 --------------------

 ------------
 cyanomethane
 ------------
 Symbolic Z-matrix:
 Charge =  0 Multiplicity = 1

                         Standard orientation:
 ---------------------------------------------------------------------
 Center     Atomic      Atomic             Coordinates (Angstroms)
 Number     Number       Type             X           Y           Z
 ---------------------------------------------------------------------
      1          6           0       -1.160794   -0.024077   -0.005176
      2          6           0        0.281389    0.016927    0.021167
      3          7           0        1.440051    0.009099   -0.006325
      4          1           0       -1.591408   -0.358660    0.930596
      5          1           0       -1.423718   -0.696801   -0.778294
      6          1           0       -1.788799    1.034670   -0.203971
 ---------------------------------------------------------------------

 SCF Done:  E(RB2PLYPD3) =  -132.519017364     A.U. after   12 cycles
 E2(B2PLYPD3) =    -0.1817206486D+00 E(B2PLYPD3) =    -0.13270073801313D+03

 The electronic state is 1-A.
 Alpha  occ. eigenvalues --  -14.84555 -10.68047 -10.66621  -1.04158  -0.88881
 Alpha  occ. eigenvalues --   -0.60362  -0.54746  -0.50661  -0.45046  -0.39109
 Alpha  occ. eigenvalues --   -0.38639
 Alpha virt. eigenvalues --    0.03163   0.06117   0.07960   0.10202   0.11413
 Alpha virt. eigenvalues --    0.11892   0.15349   0.16195   0.17297   0.20009
 Alpha virt. eigenvalues --    0.20272   0.25650   0.30771   0.33770   0.35113

 Mulliken charges:
               1
     1  C   -0.084872
     2  C    0.005893
     3  N   -0.205823
     4  H    0.096024
     5  H    0.104454
     6  H    0.084323
 Sum of Mulliken charges =   0.00000

 Dipole moment (field-independent basis, Debye):
    X=             -4.1181    Y=             -0.0865    Z=              0.0283  Tot=              4.1191
 Quadrupole moment (field-independent basis, Debye-Ang):
   XX=            -20.7649   YY=            -17.9376   ZZ=            -17.9140
   XY=             -0.1540   XZ=             -0.0915   YZ=              0.0972

 Normal termination of Gaussian 09 at Wed Aug 26 23:33:35 2020.
