 Gaussian 09, Revision D.01,
 Gaussian 09:  ES64L-G09RevD.01 24-Apr-2013

 --------------------
 #p B2PLYPD3/Def2QZVP
 --------------------

 ------------
 cyanomethane
 ------------
 Symbolic Z-matrix:
 Charge =  0 Multiplicity = 1

                         Standard orientation:
 ---------------------------------------------------------------------
 Center     Atomic      Atomic             Coordinates (Angstroms)
 Number     Number       Type             X           Y           Z
 ---------------------------------------------------------------------
      1          6           0       -1.184248    0.005136    0.001078
      2          6           0        0.280184   -0.013840   -0.004996
      3          7           0        1.430810    0.005143    0.002945
      4          1           0       -1.508667    0.904077   -0.485255
      5          1           0       -1.536883   -0.020643    1.017608
      6          1           0       -1.545734   -0.867214   -0.529466
 ---------------------------------------------------------------------

 SCF Done:  E(RB2PLYPD3) =  -132.535901892     A.U. after   11 cycles
 E2(B2PLYPD3) =    -0.1799539101D+00 E(B2PLYPD3) =    -0.13271585580251D+03

 The electronic state is 1-A.
 Alpha  occ. eigenvalues --  -14.83998 -10.66835 -10.66061  -1.04195  -0.89430
 Alpha  occ. eigenvalues --   -0.59265  -0.54572  -0.54216  -0.44674  -0.39175
 Alpha  occ. eigenvalues --   -0.39145
 Alpha virt. eigenvalues --    0.03826   0.08221   0.08300   0.10210   0.11410
 Alpha virt. eigenvalues --    0.11436   0.15345   0.16117   0.16266   0.20075
 Alpha virt. eigenvalues --    0.20093   0.25204   0.32786   0.34727   0.34882

 Mulliken charges:
               1
     1  C   -0.087122
     2  C   -0.004539
     3  N   -0.205177
     4  H    0.100408
     5  H    0.098652
     6  H    0.097779
 Sum of Mulliken charges =   0.00000

 Dipole moment (field-independent basis, Debye):
    X=             -4.1213    Y=             -0.0063    Z=             -0.0022  Tot=              4.1213
 Quadrupole moment (field-independent basis, Debye-Ang):
   XX=            -21.0972   YY=            -17.6736   ZZ=            -17.7028
   XY=             -0.0017   XZ=             -0.0294   YZ=             -0.0125

 Normal termination of Gaussian 09 at Thu Aug 27 00:02:21 2020.
