 Gaussian 09, Revision D.01,
 Gaussian 09:  ES64L-G09RevD.01 24-Apr-2013

 --------------------
 #p B2PLYPD3/Def2QZVP
 --------------------

 ------------
 cyanomethane
 ------------
 Symbolic Z-matrix:
 Charge =  0 Multiplicity = 1

                         Standard orientation:
 ---------------------------------------------------------------------
 Center     Atomic      Atomic             Coordinates (Angstroms)
 Number     Number       Type             X           Y           Z
 ---------------------------------------------------------------------
      1          6           0        1.173853   -0.005807    0.007384
      2          6           0       -0.274518    0.005098   -0.024593
      3          7           0       -1.442010   -0.000498    0.010392
      4          1           0        1.590668    1.025833   -0.180214
      5          1           0        1.570296   -0.680630   -0.748968
      6          1           0        1.537096   -0.337455    0.959696
 ---------------------------------------------------------------------

 SCF Done:  E(RB2PLYPD3) =  -132.532875926     A.U. after   12 cycles
 E2(B2PLYPD3) =    -0.1817758479D+00 E(B2PLYPD3) =    -0.13271465177362D+03

 The electronic state is 1-A.
 Alpha  occ. eigenvalues --  -14.84643 -10.67273 -10.66707  -1.03648  -0.89232
 Alpha  occ. eigenvalues --   -0.60241  -0.53983  -0.53303  -0.44921  -0.38764
 Alpha  occ. eigenvalues --   -0.38692
 Alpha virt. eigenvalues --    0.03696   0.07278   0.07609   0.10121   0.11345
 Alpha virt. eigenvalues --    0.11435   0.15452   0.16306   0.16482   0.20128
 Alpha virt. eigenvalues --    0.20161   0.25534   0.32477   0.34269   0.34813

 Mulliken charges:
               1
     1  C   -0.079141
     2  C    0.002700
     3  N   -0.211693
     4  H    0.093974
     5  H    0.095975
     6  H    0.098185
 Sum of Mulliken charges =   0.00000

 Dipole moment (field-independent basis, Debye):
    X=              4.1466    Y=             -0.0162    Z=             -0.0016  Tot=              4.1466
 Quadrupole moment (field-independent basis, Debye-Ang):
   XX=            -20.9275   YY=            -17.7887   ZZ=            -17.8702
   XY=             -0.0132   XZ=              0.0530   YZ=              0.0031

 Normal termination of Gaussian 09 at Wed Aug 26 09:30:56 2020.
