 Gaussian 09, Revision D.01,
 Gaussian 09:  ES64L-G09RevD.01 24-Apr-2013

 --------------------
 #p B2PLYPD3/Def2QZVP
 --------------------

 ------------
 cyanomethane
 ------------
 Symbolic Z-matrix:
 Charge =  0 Multiplicity = 1

                         Standard orientation:
 ---------------------------------------------------------------------
 Center     Atomic      Atomic             Coordinates (Angstroms)
 Number     Number       Type             X           Y           Z
 ---------------------------------------------------------------------
      1          6           0        1.176514    0.021621    0.017397
      2          6           0       -0.252628   -0.016941   -0.057682
      3          7           0       -1.426099    0.000137    0.020000
      4          1           0        1.406202    1.071587   -0.056940
      5          1           0        1.611007   -0.627665   -0.826815
      6          1           0        1.422166   -0.472963    0.985462
 ---------------------------------------------------------------------

 SCF Done:  E(RB2PLYPD3) =  -132.525170728     A.U. after   12 cycles
 E2(B2PLYPD3) =    -0.1828091543D+00 E(B2PLYPD3) =    -0.13270797988225D+03

 The electronic state is 1-A.
 Alpha  occ. eigenvalues --  -14.84465 -10.67769 -10.66501  -1.03214  -0.89606
 Alpha  occ. eigenvalues --   -0.58355  -0.55750  -0.53148  -0.44593  -0.38304
 Alpha  occ. eigenvalues --   -0.38026
 Alpha virt. eigenvalues --    0.03533   0.06944   0.07799   0.10070   0.11187
 Alpha virt. eigenvalues --    0.11515   0.15043   0.15534   0.15749   0.20182
 Alpha virt. eigenvalues --    0.20251   0.25845   0.31961   0.33582   0.34632

 Mulliken charges:
               1
     1  C   -0.112849
     2  C    0.003329
     3  N   -0.220057
     4  H    0.117155
     5  H    0.101057
     6  H    0.111365
 Sum of Mulliken charges =   0.00000

 Dipole moment (field-independent basis, Debye):
    X=              4.0961    Y=             -0.0121    Z=             -0.0074  Tot=              4.0961
 Quadrupole moment (field-independent basis, Debye-Ang):
   XX=            -21.6113   YY=            -17.5387   ZZ=            -17.8163
   XY=             -0.1571   XZ=             -0.0134   YZ=             -0.0567

 Normal termination of Gaussian 09 at Thu Aug 27 00:19:44 2020.
