 Gaussian 09, Revision D.01,
 Gaussian 09:  ES64L-G09RevD.01 24-Apr-2013

 --------------------
 #p B2PLYPD3/Def2QZVP
 --------------------

 ------------
 cyanomethane
 ------------
 Symbolic Z-matrix:
 Charge =  0 Multiplicity = 1

                         Standard orientation:
 ---------------------------------------------------------------------
 Center     Atomic      Atomic             Coordinates (Angstroms)
 Number     Number       Type             X           Y           Z
 ---------------------------------------------------------------------
      1          6           0        1.196559   -0.011514    0.006071
      2          6           0       -0.285701   -0.014825   -0.023528
      3          7           0       -1.445835    0.003706   -0.002696
      4          1           0        1.611573    0.896455   -0.523296
      5          1           0        1.703589   -0.895999   -0.372064
      6          1           0        1.340534    0.131641    1.018976
 ---------------------------------------------------------------------

 SCF Done:  E(RB2PLYPD3) =  -132.527281872     A.U. after   13 cycles
 E2(B2PLYPD3) =    -0.1811200280D+00 E(B2PLYPD3) =    -0.13270840189991D+03

 The electronic state is 1-A.
 Alpha  occ. eigenvalues --  -14.84365 -10.67260 -10.66614  -1.03852  -0.89218
 Alpha  occ. eigenvalues --   -0.59495  -0.54872  -0.52884  -0.44747  -0.39117
 Alpha  occ. eigenvalues --   -0.38860
 Alpha virt. eigenvalues --    0.03708   0.07368   0.08563   0.10328   0.11185
 Alpha virt. eigenvalues --    0.11488   0.14906   0.15515   0.17376   0.20107
 Alpha virt. eigenvalues --    0.20203   0.24844   0.31911   0.34255   0.35421

 Mulliken charges:
               1
     1  C   -0.092517
     2  C    0.001128
     3  N   -0.209653
     4  H    0.093091
     5  H    0.100718
     6  H    0.107233
 Sum of Mulliken charges =   0.00000

 Dipole moment (field-independent basis, Debye):
    X=              4.1605    Y=              0.0099    Z=              0.0484  Tot=              4.1608
 Quadrupole moment (field-independent basis, Debye-Ang):
   XX=            -20.9472   YY=            -17.7536   ZZ=            -17.8723
   XY=             -0.0315   XZ=             -0.1782   YZ=              0.0585

 Normal termination of Gaussian 09 at Wed Aug 26 18:20:26 2020.
