 Gaussian 09, Revision D.01,
 Gaussian 09:  ES64L-G09RevD.01 24-Apr-2013

 --------------------
 #p B2PLYPD3/Def2QZVP
 --------------------

 ------------
 cyanomethane
 ------------
 Symbolic Z-matrix:
 Charge =  0 Multiplicity = 1

                         Standard orientation:
 ---------------------------------------------------------------------
 Center     Atomic      Atomic             Coordinates (Angstroms)
 Number     Number       Type             X           Y           Z
 ---------------------------------------------------------------------
      1          6           0       -1.186428   -0.001248    0.006709
      2          6           0        0.274590    0.017483   -0.010786
      3          7           0        1.438347   -0.011123    0.004018
      4          1           0       -1.513274    0.897518   -0.487700
      5          1           0       -1.520540   -0.033200    1.019242
      6          1           0       -1.563585   -0.883870   -0.535207
 ---------------------------------------------------------------------

 SCF Done:  E(RB2PLYPD3) =  -132.533975816     A.U. after   11 cycles
 E2(B2PLYPD3) =    -0.1812019554D+00 E(B2PLYPD3) =    -0.13271517777178D+03

 The electronic state is 1-A.
 Alpha  occ. eigenvalues --  -14.84390 -10.67001 -10.66470  -1.03679  -0.89443
 Alpha  occ. eigenvalues --   -0.59373  -0.54790  -0.53891  -0.44734  -0.38855
 Alpha  occ. eigenvalues --   -0.38776
 Alpha virt. eigenvalues --    0.03765   0.07720   0.08160   0.10160   0.11227
 Alpha virt. eigenvalues --    0.11354   0.15323   0.15844   0.16368   0.20122
 Alpha virt. eigenvalues --    0.20164   0.25263   0.32603   0.34447   0.34901

 Mulliken charges:
               1
     1  C   -0.087696
     2  C   -0.001512
     3  N   -0.211561
     4  H    0.100590
     5  H    0.101896
     6  H    0.098283
 Sum of Mulliken charges =   0.00000

 Dipole moment (field-independent basis, Debye):
    X=             -4.1385    Y=              0.0176    Z=             -0.0023  Tot=              4.1386
 Quadrupole moment (field-independent basis, Debye-Ang):
   XX=            -21.1247   YY=            -17.7393   ZZ=            -17.7328
   XY=              0.0921   XZ=             -0.0106   YZ=             -0.0207

 Normal termination of Gaussian 09 at Thu Aug 27 00:02:37 2020.
