 Gaussian 09, Revision D.01,
 Gaussian 09:  ES64L-G09RevD.01 24-Apr-2013

 --------------------
 #p B2PLYPD3/Def2QZVP
 --------------------

 ------------
 cyanomethane
 ------------
 Symbolic Z-matrix:
 Charge =  0 Multiplicity = 1

                         Standard orientation:
 ---------------------------------------------------------------------
 Center     Atomic      Atomic             Coordinates (Angstroms)
 Number     Number       Type             X           Y           Z
 ---------------------------------------------------------------------
      1          6           0       -1.184385    0.005191    0.006232
      2          6           0        0.275880   -0.011366    0.001989
      3          7           0        1.439748    0.006490   -0.000896
      4          1           0       -1.548181   -0.309405    0.967656
      5          1           0       -1.524665   -0.701054   -0.770459
      6          1           0       -1.554355    1.002082   -0.240254
 ---------------------------------------------------------------------

 SCF Done:  E(RB2PLYPD3) =  -132.534379327     A.U. after   12 cycles
 E2(B2PLYPD3) =    -0.1812857061D+00 E(B2PLYPD3) =    -0.13271566503338D+03

 The electronic state is 1-A.
 Alpha  occ. eigenvalues --  -14.84420 -10.67236 -10.66510  -1.03704  -0.89232
 Alpha  occ. eigenvalues --   -0.59491  -0.54418  -0.53686  -0.44770  -0.38886
 Alpha  occ. eigenvalues --   -0.38750
 Alpha virt. eigenvalues --    0.03736   0.07698   0.07912   0.10163   0.11255
 Alpha virt. eigenvalues --    0.11400   0.15323   0.15928   0.16423   0.20122
 Alpha virt. eigenvalues --    0.20153   0.25269   0.32556   0.34228   0.34885

 Mulliken charges:
               1
     1  C   -0.087855
     2  C   -0.000533
     3  N   -0.210944
     4  H    0.101198
     5  H    0.098047
     6  H    0.100087
 Sum of Mulliken charges =   0.00000

 Dipole moment (field-independent basis, Debye):
    X=             -4.1404    Y=             -0.0117    Z=             -0.0026  Tot=              4.1405
 Quadrupole moment (field-independent basis, Debye-Ang):
   XX=            -21.0949   YY=            -17.7694   ZZ=            -17.7523
   XY=             -0.0459   XZ=              0.0012   YZ=             -0.0243

 Normal termination of Gaussian 09 at Wed Aug 26 23:31:26 2020.
