 Gaussian 09, Revision D.01,
 Gaussian 09:  ES64L-G09RevD.01 24-Apr-2013

 --------------------
 #p B2PLYPD3/Def2QZVP
 --------------------

 ------------
 cyanomethane
 ------------
 Symbolic Z-matrix:
 Charge =  0 Multiplicity = 1

                         Standard orientation:
 ---------------------------------------------------------------------
 Center     Atomic      Atomic             Coordinates (Angstroms)
 Number     Number       Type             X           Y           Z
 ---------------------------------------------------------------------
      1          6           0       -1.208053   -0.016861   -0.018395
      2          6           0        0.298593    0.062226   -0.026445
      3          7           0        1.438535   -0.031621    0.018301
      4          1           0       -1.576752   -0.104801    0.961864
      5          1           0       -1.518890   -0.865207   -0.486128
      6          1           0       -1.517345    0.919159   -0.334800
 ---------------------------------------------------------------------

 SCF Done:  E(RB2PLYPD3) =  -132.524249882     A.U. after   12 cycles
 E2(B2PLYPD3) =    -0.1792647964D+00 E(B2PLYPD3) =    -0.13270351467834D+03

 The electronic state is 1-A.
 Alpha  occ. eigenvalues --  -14.83930 -10.66039 -10.65918  -1.04404  -0.89789
 Alpha  occ. eigenvalues --   -0.59465  -0.56851  -0.52860  -0.44647  -0.39754
 Alpha  occ. eigenvalues --   -0.39354
 Alpha virt. eigenvalues --    0.03835   0.08484   0.09218   0.10075   0.10923
 Alpha virt. eigenvalues --    0.11577   0.15136   0.15956   0.17019   0.19839
 Alpha virt. eigenvalues --    0.20156   0.24673   0.32730   0.34468   0.36358

 Mulliken charges:
               1
     1  C   -0.069894
     2  C   -0.005502
     3  N   -0.201394
     4  H    0.081635
     5  H    0.098933
     6  H    0.096222
 Sum of Mulliken charges =   0.00000

 Dipole moment (field-independent basis, Debye):
    X=             -4.1370    Y=              0.0408    Z=              0.0360  Tot=              4.1374
 Quadrupole moment (field-independent basis, Debye-Ang):
   XX=            -20.8748   YY=            -17.3729   ZZ=            -17.9946
   XY=              0.1960   XZ=             -0.3049   YZ=              0.0440

 Normal termination of Gaussian 09 at Wed Aug 26 20:40:53 2020.
