 Gaussian 09, Revision D.01,
 Gaussian 09:  ES64L-G09RevD.01 24-Apr-2013

 --------------------
 #p B2PLYPD3/Def2QZVP
 --------------------

 ------------
 cyanomethane
 ------------
 Symbolic Z-matrix:
 Charge =  0 Multiplicity = 1

                         Standard orientation:
 ---------------------------------------------------------------------
 Center     Atomic      Atomic             Coordinates (Angstroms)
 Number     Number       Type             X           Y           Z
 ---------------------------------------------------------------------
      1          6           0        1.154035   -0.023867    0.012982
      2          6           0       -0.250330   -0.049522    0.038277
      3          7           0       -1.433804    0.027463   -0.013590
      4          1           0        1.483065   -0.723676   -0.697543
      5          1           0        1.643028   -0.042158    0.928735
      6          1           0        1.488303    1.013931   -0.443616
 ---------------------------------------------------------------------

 SCF Done:  E(RB2PLYPD3) =  -132.519280112     A.U. after   12 cycles
 E2(B2PLYPD3) =    -0.1836446064D+00 E(B2PLYPD3) =    -0.13270292471800D+03

 The electronic state is 1-A.
 Alpha  occ. eigenvalues --  -14.85019 -10.67008 -10.66699  -1.03027  -0.90378
 Alpha  occ. eigenvalues --   -0.61417  -0.56428  -0.51899  -0.44977  -0.38366
 Alpha  occ. eigenvalues --   -0.37567
 Alpha virt. eigenvalues --    0.03263   0.06664   0.07555   0.10012   0.10940
 Alpha virt. eigenvalues --    0.11874   0.15658   0.15696   0.16989   0.20162
 Alpha virt. eigenvalues --    0.20359   0.26260   0.32082   0.33131   0.35929

 Mulliken charges:
               1
     1  C   -0.078139
     2  C    0.009742
     3  N   -0.221750
     4  H    0.102359
     5  H    0.101204
     6  H    0.086585
 Sum of Mulliken charges =   0.00000

 Dipole moment (field-independent basis, Debye):
    X=              4.1692    Y=             -0.0086    Z=             -0.0063  Tot=              4.1692
 Quadrupole moment (field-independent basis, Debye-Ang):
   XX=            -20.9469   YY=            -17.9514   ZZ=            -17.7371
   XY=              0.2057   XZ=              0.0092   YZ=              0.1324

 Normal termination of Gaussian 09 at Wed Aug 26 23:19:17 2020.
