 Gaussian 09, Revision D.01,
 Gaussian 09:  ES64L-G09RevD.01 24-Apr-2013

 --------------------
 #p B2PLYPD3/Def2QZVP
 --------------------

 ------------
 cyanomethane
 ------------
 Symbolic Z-matrix:
 Charge =  0 Multiplicity = 1

                         Standard orientation:
 ---------------------------------------------------------------------
 Center     Atomic      Atomic             Coordinates (Angstroms)
 Number     Number       Type             X           Y           Z
 ---------------------------------------------------------------------
      1          6           0        1.147719    0.039081    0.003129
      2          6           0       -0.257015   -0.012974   -0.055251
      3          7           0       -1.434198   -0.002867    0.020517
      4          1           0        1.523256    0.954369   -0.163094
      5          1           0        1.691715   -0.741553   -0.681090
      6          1           0        1.480193   -0.349390    1.013296
 ---------------------------------------------------------------------

 SCF Done:  E(RB2PLYPD3) =  -132.518456630     A.U. after   12 cycles
 E2(B2PLYPD3) =    -0.1831632108D+00 E(B2PLYPD3) =    -0.13270161984082D+03

 The electronic state is 1-A.
 Alpha  occ. eigenvalues --  -14.84948 -10.67028 -10.66879  -1.03370  -0.90041
 Alpha  occ. eigenvalues --   -0.61516  -0.55754  -0.51509  -0.45058  -0.38575
 Alpha  occ. eigenvalues --   -0.37822
 Alpha virt. eigenvalues --    0.03518   0.06043   0.07548   0.10006   0.11121
 Alpha virt. eigenvalues --    0.11946   0.15589   0.16055   0.17082   0.20114
 Alpha virt. eigenvalues --    0.20298   0.26338   0.31908   0.33427   0.35463

 Mulliken charges:
               1
     1  C   -0.073930
     2  C    0.008913
     3  N   -0.217304
     4  H    0.105670
     5  H    0.084152
     6  H    0.092498
 Sum of Mulliken charges =   0.00000

 Dipole moment (field-independent basis, Debye):
    X=              4.1495    Y=             -0.0086    Z=              0.0195  Tot=              4.1495
 Quadrupole moment (field-independent basis, Debye-Ang):
   XX=            -20.8387   YY=            -17.7101   ZZ=            -18.0505
   XY=             -0.1471   XZ=              0.0796   YZ=             -0.0984

 Normal termination of Gaussian 09 at Wed Aug 26 22:23:30 2020.
