 Gaussian 09, Revision D.01,
 Gaussian 09:  ES64L-G09RevD.01 24-Apr-2013

 --------------------
 #p B2PLYPD3/Def2QZVP
 --------------------

 ------------
 cyanomethane
 ------------
 Symbolic Z-matrix:
 Charge =  0 Multiplicity = 1

                         Standard orientation:
 ---------------------------------------------------------------------
 Center     Atomic      Atomic             Coordinates (Angstroms)
 Number     Number       Type             X           Y           Z
 ---------------------------------------------------------------------
      1          6           0        1.178921    0.011759    0.005717
      2          6           0       -0.270423   -0.009795   -0.019765
      3          7           0       -1.431675    0.002461    0.006732
      4          1           0        1.519473    0.971138   -0.351577
      5          1           0        1.563655   -0.817853   -0.646073
      6          1           0        1.487604   -0.182296    1.034819
 ---------------------------------------------------------------------

 SCF Done:  E(RB2PLYPD3) =  -132.533611647     A.U. after   12 cycles
 E2(B2PLYPD3) =    -0.1811692048D+00 E(B2PLYPD3) =    -0.13271478085213D+03

 The electronic state is 1-A.
 Alpha  occ. eigenvalues --  -14.84260 -10.67367 -10.66308  -1.03785  -0.89320
 Alpha  occ. eigenvalues --   -0.59153  -0.54778  -0.53515  -0.44700  -0.38845
 Alpha  occ. eigenvalues --   -0.38674
 Alpha virt. eigenvalues --    0.03708   0.07605   0.07943   0.10147   0.11319
 Alpha virt. eigenvalues --    0.11516   0.15331   0.15895   0.16156   0.20118
 Alpha virt. eigenvalues --    0.20162   0.25462   0.32528   0.34055   0.34767

 Mulliken charges:
               1
     1  C   -0.096080
     2  C   -0.000936
     3  N   -0.210729
     4  H    0.105469
     5  H    0.098461
     6  H    0.103814
 Sum of Mulliken charges =   0.00000

 Dipole moment (field-independent basis, Debye):
    X=              4.1186    Y=             -0.0059    Z=             -0.0001  Tot=              4.1186
 Quadrupole moment (field-independent basis, Debye-Ang):
   XX=            -21.2444   YY=            -17.6830   ZZ=            -17.7426
   XY=             -0.0217   XZ=              0.0018   YZ=             -0.0462

 Normal termination of Gaussian 09 at Thu Aug 27 00:02:10 2020.
