 Gaussian 09, Revision D.01,
 Gaussian 09:  ES64L-G09RevD.01 24-Apr-2013

 --------------------
 #p B2PLYPD3/Def2QZVP
 --------------------

 ------------
 cyanomethane
 ------------
 Symbolic Z-matrix:
 Charge =  0 Multiplicity = 1

                         Standard orientation:
 ---------------------------------------------------------------------
 Center     Atomic      Atomic             Coordinates (Angstroms)
 Number     Number       Type             X           Y           Z
 ---------------------------------------------------------------------
      1          6           0       -1.168835    0.001038    0.001532
      2          6           0        0.275716    0.008903   -0.005440
      3          7           0        1.434013   -0.008660    0.000666
      4          1           0       -1.513013    1.014241   -0.165580
      5          1           0       -1.551159   -0.352685    0.942035
      6          1           0       -1.615201   -0.660581   -0.757666
 ---------------------------------------------------------------------

 SCF Done:  E(RB2PLYPD3) =  -132.534463989     A.U. after   12 cycles
 E2(B2PLYPD3) =    -0.1808111707D+00 E(B2PLYPD3) =    -0.13271527515934D+03

 The electronic state is 1-A.
 Alpha  occ. eigenvalues --  -14.84339 -10.66896 -10.66375  -1.04024  -0.89493
 Alpha  occ. eigenvalues --   -0.60371  -0.54371  -0.53327  -0.44871  -0.38974
 Alpha  occ. eigenvalues --   -0.38905
 Alpha virt. eigenvalues --    0.03774   0.07511   0.07973   0.10143   0.11404
 Alpha virt. eigenvalues --    0.11588   0.15494   0.16222   0.16741   0.20073
 Alpha virt. eigenvalues --    0.20167   0.25589   0.32822   0.34634   0.34766

 Mulliken charges:
               1
     1  C   -0.076111
     2  C    0.000898
     3  N   -0.207993
     4  H    0.096709
     5  H    0.094309
     6  H    0.092187
 Sum of Mulliken charges =   0.00000

 Dipole moment (field-independent basis, Debye):
    X=             -4.1377    Y=              0.0062    Z=              0.0123  Tot=              4.1378
 Quadrupole moment (field-independent basis, Debye-Ang):
   XX=            -20.8834   YY=            -17.7044   ZZ=            -17.8674
   XY=              0.1325   XZ=             -0.0002   YZ=             -0.0237

 Normal termination of Gaussian 09 at Wed Aug 26 09:50:49 2020.
