 Gaussian 09, Revision D.01,
 Gaussian 09:  ES64L-G09RevD.01 24-Apr-2013

 --------------------
 #p B2PLYPD3/Def2QZVP
 --------------------

 ------------
 cyanomethane
 ------------
 Symbolic Z-matrix:
 Charge =  0 Multiplicity = 1

                         Standard orientation:
 ---------------------------------------------------------------------
 Center     Atomic      Atomic             Coordinates (Angstroms)
 Number     Number       Type             X           Y           Z
 ---------------------------------------------------------------------
      1          6           0        1.175151   -0.006124   -0.006528
      2          6           0       -0.271384    0.016634    0.011668
      3          7           0       -1.431295   -0.007165   -0.002791
      4          1           0        1.566327   -0.120815    1.005785
      5          1           0        1.528582    0.950318   -0.411015
      6          1           0        1.501548   -0.842411   -0.606076
 ---------------------------------------------------------------------

 SCF Done:  E(RB2PLYPD3) =  -132.534822782     A.U. after   11 cycles
 E2(B2PLYPD3) =    -0.1809354226D+00 E(B2PLYPD3) =    -0.13271575820430D+03

 The electronic state is 1-A.
 Alpha  occ. eigenvalues --  -14.84263 -10.67050 -10.66295  -1.03872  -0.89494
 Alpha  occ. eigenvalues --   -0.59585  -0.54586  -0.53791  -0.44747  -0.38869
 Alpha  occ. eigenvalues --   -0.38791
 Alpha virt. eigenvalues --    0.03763   0.07773   0.07896   0.10152   0.11390
 Alpha virt. eigenvalues --    0.11484   0.15404   0.16062   0.16261   0.20110
 Alpha virt. eigenvalues --    0.20153   0.25535   0.32756   0.34372   0.34753

 Mulliken charges:
               1
     1  C   -0.088334
     2  C   -0.000952
     3  N   -0.209874
     4  H    0.096995
     5  H    0.099718
     6  H    0.102447
 Sum of Mulliken charges =   0.00000

 Dipole moment (field-independent basis, Debye):
    X=              4.1256    Y=              0.0056    Z=              0.0112  Tot=              4.1256
 Quadrupole moment (field-independent basis, Debye-Ang):
   XX=            -21.1207   YY=            -17.6566   ZZ=            -17.7923
   XY=             -0.0315   XZ=              0.0521   YZ=              0.0171

 Normal termination of Gaussian 09 at Thu Aug 27 00:09:37 2020.
