 Gaussian 09, Revision D.01,
 Gaussian 09:  ES64L-G09RevD.01 24-Apr-2013

 --------------------
 #p B2PLYPD3/Def2QZVP
 --------------------

 ------------
 cyanomethane
 ------------
 Symbolic Z-matrix:
 Charge =  0 Multiplicity = 1

                         Standard orientation:
 ---------------------------------------------------------------------
 Center     Atomic      Atomic             Coordinates (Angstroms)
 Number     Number       Type             X           Y           Z
 ---------------------------------------------------------------------
      1          6           0       -1.189106   -0.014160    0.015799
      2          6           0        0.260270    0.063650   -0.007224
      3          7           0        1.432536   -0.032298   -0.002861
      4          1           0       -1.504739    0.901135   -0.462685
      5          1           0       -1.417026   -0.091464    1.014022
      6          1           0       -1.532968   -0.880526   -0.582767
 ---------------------------------------------------------------------

 SCF Done:  E(RB2PLYPD3) =  -132.526282138     A.U. after   12 cycles
 E2(B2PLYPD3) =    -0.1823110175D+00 E(B2PLYPD3) =    -0.13270859315554D+03

 The electronic state is 1-A.
 Alpha  occ. eigenvalues --  -14.84568 -10.66670 -10.66587  -1.03203  -0.90116
 Alpha  occ. eigenvalues --   -0.58769  -0.56400  -0.53942  -0.44630  -0.38509
 Alpha  occ. eigenvalues --   -0.38288
 Alpha virt. eigenvalues --    0.03656   0.07465   0.08442   0.10031   0.11003
 Alpha virt. eigenvalues --    0.11262   0.15130   0.15372   0.16230   0.20183
 Alpha virt. eigenvalues --    0.20240   0.25600   0.32665   0.33967   0.35306

 Mulliken charges:
               1
     1  C   -0.097743
     2  C    0.000150
     3  N   -0.219265
     4  H    0.102684
     5  H    0.111403
     6  H    0.102770
 Sum of Mulliken charges =   0.00000

 Dipole moment (field-independent basis, Debye):
    X=             -4.1141    Y=              0.0393    Z=             -0.0014  Tot=              4.1143
 Quadrupole moment (field-independent basis, Debye-Ang):
   XX=            -21.3961   YY=            -17.7268   ZZ=            -17.6192
   XY=              0.1737   XZ=              0.1233   YZ=             -0.0253

 Normal termination of Gaussian 09 at Wed Aug 26 23:07:57 2020.
