 Gaussian 09, Revision D.01,
 Gaussian 09:  ES64L-G09RevD.01 24-Apr-2013

 --------------------
 #p B2PLYPD3/Def2QZVP
 --------------------

 ------------
 cyanomethane
 ------------
 Symbolic Z-matrix:
 Charge =  0 Multiplicity = 1

                         Standard orientation:
 ---------------------------------------------------------------------
 Center     Atomic      Atomic             Coordinates (Angstroms)
 Number     Number       Type             X           Y           Z
 ---------------------------------------------------------------------
      1          6           0       -1.169493    0.001966   -0.000237
      2          6           0        0.276037    0.012361   -0.008658
      3          7           0        1.431973   -0.005399    0.000516
      4          1           0       -1.581793   -0.738563   -0.720435
      5          1           0       -1.584851    0.991711   -0.231510
      6          1           0       -1.496428   -0.301316    1.001707
 ---------------------------------------------------------------------

 SCF Done:  E(RB2PLYPD3) =  -132.534684632     A.U. after   12 cycles
 E2(B2PLYPD3) =    -0.1807799332D+00 E(B2PLYPD3) =    -0.13271546456563D+03

 The electronic state is 1-A.
 Alpha  occ. eigenvalues --  -14.84238 -10.67391 -10.66278  -1.04090  -0.89145
 Alpha  occ. eigenvalues --   -0.59864  -0.53905  -0.53374  -0.44824  -0.38996
 Alpha  occ. eigenvalues --   -0.38885
 Alpha virt. eigenvalues --    0.03700   0.07516   0.07787   0.10157   0.11470
 Alpha virt. eigenvalues --    0.11625   0.15455   0.16106   0.16634   0.20080
 Alpha virt. eigenvalues --    0.20129   0.25559   0.32706   0.34235   0.34631

 Mulliken charges:
               1
     1  C   -0.086425
     2  C    0.000261
     3  N   -0.206655
     4  H    0.096296
     5  H    0.098187
     6  H    0.098337
 Sum of Mulliken charges =   0.00000

 Dipole moment (field-independent basis, Debye):
    X=             -4.1232    Y=             -0.0005    Z=              0.0127  Tot=              4.1232
 Quadrupole moment (field-independent basis, Debye-Ang):
   XX=            -21.0088   YY=            -17.7360   ZZ=            -17.8049
   XY=              0.0277   XZ=              0.0372   YZ=             -0.0151

 Normal termination of Gaussian 09 at Thu Aug 27 00:00:12 2020.
