 Gaussian 09, Revision D.01,
 Gaussian 09:  ES64L-G09RevD.01 24-Apr-2013

 --------------------
 #p B2PLYPD3/Def2QZVP
 --------------------

 ------------
 cyanomethane
 ------------
 Symbolic Z-matrix:
 Charge =  0 Multiplicity = 1

                         Standard orientation:
 ---------------------------------------------------------------------
 Center     Atomic      Atomic             Coordinates (Angstroms)
 Number     Number       Type             X           Y           Z
 ---------------------------------------------------------------------
      1          6           0       -1.214371    0.000259    0.009873
      2          6           0        0.291615    0.011263   -0.032189
      3          7           0        1.441292   -0.018474    0.019263
      4          1           0       -1.346409    1.042308   -0.225494
      5          1           0       -1.608898   -0.280990    0.945203
      6          1           0       -1.597203   -0.701134   -0.720658
 ---------------------------------------------------------------------

 SCF Done:  E(RB2PLYPD3) =  -132.527484433     A.U. after   12 cycles
 E2(B2PLYPD3) =    -0.1802606361D+00 E(B2PLYPD3) =    -0.13270774506896D+03

 The electronic state is 1-A.
 Alpha  occ. eigenvalues --  -14.83996 -10.67140 -10.66209  -1.04080  -0.89081
 Alpha  occ. eigenvalues --   -0.59376  -0.54440  -0.53590  -0.44528  -0.39307
 Alpha  occ. eigenvalues --   -0.39135
 Alpha virt. eigenvalues --    0.03766   0.08025   0.08963   0.10234   0.11179
 Alpha virt. eigenvalues --    0.11327   0.14640   0.15506   0.16880   0.20049
 Alpha virt. eigenvalues --    0.20130   0.24459   0.32302   0.34448   0.34977

 Mulliken charges:
               1
     1  C   -0.097485
     2  C   -0.005529
     3  N   -0.205423
     4  H    0.108476
     5  H    0.100387
     6  H    0.099574
 Sum of Mulliken charges =   0.00000

 Dipole moment (field-independent basis, Debye):
    X=             -4.1282    Y=              0.0180    Z=             -0.0143  Tot=              4.1283
 Quadrupole moment (field-independent basis, Debye-Ang):
   XX=            -21.1955   YY=            -17.5590   ZZ=            -17.8494
   XY=              0.3684   XZ=             -0.1993   YZ=             -0.0162

 Normal termination of Gaussian 09 at Wed Aug 26 22:40:18 2020.
