 Gaussian 09, Revision D.01,
 Gaussian 09:  ES64L-G09RevD.01 24-Apr-2013

 --------------------
 #p B2PLYPD3/Def2QZVP
 --------------------

 ------------
 cyanomethane
 ------------
 Symbolic Z-matrix:
 Charge =  0 Multiplicity = 1

                         Standard orientation:
 ---------------------------------------------------------------------
 Center     Atomic      Atomic             Coordinates (Angstroms)
 Number     Number       Type             X           Y           Z
 ---------------------------------------------------------------------
      1          6           0       -1.194639   -0.019126   -0.012115
      2          6           0        0.286327    0.036800    0.012694
      3          7           0        1.436466   -0.017518   -0.007602
      4          1           0       -1.505751   -0.084224    1.009278
      5          1           0       -1.552716   -0.854872   -0.550598
      6          1           0       -1.546920    0.955676   -0.408936
 ---------------------------------------------------------------------

 SCF Done:  E(RB2PLYPD3) =  -132.533274561     A.U. after   12 cycles
 E2(B2PLYPD3) =    -0.1801518036D+00 E(B2PLYPD3) =    -0.13271342636441D+03

 The electronic state is 1-A.
 Alpha  occ. eigenvalues --  -14.84062 -10.67074 -10.66170  -1.04141  -0.89121
 Alpha  occ. eigenvalues --   -0.59088  -0.54792  -0.53614  -0.44668  -0.39314
 Alpha  occ. eigenvalues --   -0.39084
 Alpha virt. eigenvalues --    0.03760   0.08097   0.08445   0.10148   0.11257
 Alpha virt. eigenvalues --    0.11445   0.15210   0.15595   0.16826   0.20022
 Alpha virt. eigenvalues --    0.20126   0.25020   0.32516   0.34203   0.35272

 Mulliken charges:
               1
     1  C   -0.089734
     2  C   -0.003608
     3  N   -0.205225
     4  H    0.097134
     5  H    0.103961
     6  H    0.097472
 Sum of Mulliken charges =   0.00000

 Dipole moment (field-independent basis, Debye):
    X=             -4.1229    Y=              0.0214    Z=              0.0415  Tot=              4.1232
 Quadrupole moment (field-independent basis, Debye-Ang):
   XX=            -21.1120   YY=            -17.5901   ZZ=            -17.8245
   XY=              0.1045   XZ=              0.0034   YZ=              0.0425

 Normal termination of Gaussian 09 at Wed Aug 26 13:41:37 2020.
