 Gaussian 09, Revision D.01,
 Gaussian 09:  ES64L-G09RevD.01 24-Apr-2013

 --------------------
 #p B2PLYPD3/Def2QZVP
 --------------------

 ------------
 cyanomethane
 ------------
 Symbolic Z-matrix:
 Charge =  0 Multiplicity = 1

                         Standard orientation:
 ---------------------------------------------------------------------
 Center     Atomic      Atomic             Coordinates (Angstroms)
 Number     Number       Type             X           Y           Z
 ---------------------------------------------------------------------
      1          6           0       -1.178043   -0.004589    0.012452
      2          6           0        0.280454    0.036513   -0.008304
      3          7           0        1.440639   -0.019023   -0.001143
      4          1           0       -1.565743    0.990263   -0.067404
      5          1           0       -1.515735   -0.468713    0.881622
      6          1           0       -1.617458   -0.579931   -0.831107
 ---------------------------------------------------------------------

 SCF Done:  E(RB2PLYPD3) =  -132.532431945     A.U. after   12 cycles
 E2(B2PLYPD3) =    -0.1809747303D+00 E(B2PLYPD3) =    -0.13271340667495D+03

 The electronic state is 1-A.
 Alpha  occ. eigenvalues --  -14.84488 -10.66685 -10.66553  -1.03899  -0.89514
 Alpha  occ. eigenvalues --   -0.60349  -0.55009  -0.53004  -0.44904  -0.39086
 Alpha  occ. eigenvalues --   -0.38880
 Alpha virt. eigenvalues --    0.03757   0.07513   0.08174   0.10144   0.11210
 Alpha virt. eigenvalues --    0.11523   0.15458   0.16252   0.16770   0.20035
 Alpha virt. eigenvalues --    0.20183   0.25407   0.32663   0.34417   0.35396

 Mulliken charges:
               1
     1  C   -0.071123
     2  C    0.001455
     3  N   -0.208991
     4  H    0.093431
     5  H    0.097229
     6  H    0.087998
 Sum of Mulliken charges =   0.00000

 Dipole moment (field-independent basis, Debye):
    X=             -4.1460    Y=              0.0191    Z=              0.0087  Tot=              4.1460
 Quadrupole moment (field-independent basis, Debye-Ang):
   XX=            -20.8157   YY=            -17.7572   ZZ=            -17.8559
   XY=              0.1273   XZ=              0.0685   YZ=             -0.0640

 Normal termination of Gaussian 09 at Wed Aug 26 10:58:47 2020.
