 Gaussian 09, Revision D.01,
 Gaussian 09:  ES64L-G09RevD.01 24-Apr-2013

 --------------------
 #p B2PLYPD3/Def2QZVP
 --------------------

 ------------
 cyanomethane
 ------------
 Symbolic Z-matrix:
 Charge =  0 Multiplicity = 1

                         Standard orientation:
 ---------------------------------------------------------------------
 Center     Atomic      Atomic             Coordinates (Angstroms)
 Number     Number       Type             X           Y           Z
 ---------------------------------------------------------------------
      1          6           0       -1.173031    0.007757    0.003427
      2          6           0        0.283852   -0.023304   -0.003404
      3          7           0        1.431000    0.009375    0.001136
      4          1           0       -1.532454    1.026984   -0.061552
      5          1           0       -1.569845   -0.447649    0.884344
      6          1           0       -1.579630   -0.551675   -0.830886
 ---------------------------------------------------------------------

 SCF Done:  E(RB2PLYPD3) =  -132.535898715     A.U. after   11 cycles
 E2(B2PLYPD3) =    -0.1797510095D+00 E(B2PLYPD3) =    -0.13271564972411D+03

 The electronic state is 1-A.
 Alpha  occ. eigenvalues --  -14.84045 -10.66721 -10.66093  -1.04427  -0.89397
 Alpha  occ. eigenvalues --   -0.60157  -0.54236  -0.53653  -0.44818  -0.39324
 Alpha  occ. eigenvalues --   -0.39247
 Alpha virt. eigenvalues --    0.03812   0.08042   0.08179   0.10198   0.11496
 Alpha virt. eigenvalues --    0.11564   0.15475   0.16384   0.16708   0.20043
 Alpha virt. eigenvalues --    0.20064   0.25412   0.32924   0.34762   0.34994

 Mulliken charges:
               1
     1  C   -0.074348
     2  C   -0.001675
     3  N   -0.202550
     4  H    0.095433
     5  H    0.092558
     6  H    0.090581
 Sum of Mulliken charges =   0.00000

 Dipole moment (field-independent basis, Debye):
    X=             -4.1260    Y=             -0.0238    Z=             -0.0001  Tot=              4.1260
 Quadrupole moment (field-independent basis, Debye-Ang):
   XX=            -20.8473   YY=            -17.6841   ZZ=            -17.8156
   XY=              0.0080   XZ=             -0.0045   YZ=             -0.0153

 Normal termination of Gaussian 09 at Thu Aug 27 00:02:34 2020.
