 Gaussian 09, Revision D.01,
 Gaussian 09:  ES64L-G09RevD.01 24-Apr-2013

 --------------------
 #p B2PLYPD3/Def2QZVP
 --------------------

 ------------
 cyanomethane
 ------------
 Symbolic Z-matrix:
 Charge =  0 Multiplicity = 1

                         Standard orientation:
 ---------------------------------------------------------------------
 Center     Atomic      Atomic             Coordinates (Angstroms)
 Number     Number       Type             X           Y           Z
 ---------------------------------------------------------------------
      1          6           0       -1.182150    0.005576   -0.000560
      2          6           0        0.283001   -0.018498    0.015216
      3          7           0        1.426676    0.008798   -0.009386
      4          1           0       -1.549738   -0.528716   -0.886285
      5          1           0       -1.526157    1.036451   -0.027078
      6          1           0       -1.515945   -0.491783    0.891131
 ---------------------------------------------------------------------

 SCF Done:  E(RB2PLYPD3) =  -132.535889133     A.U. after   11 cycles
 E2(B2PLYPD3) =    -0.1795276240D+00 E(B2PLYPD3) =    -0.13271541675723D+03

 The electronic state is 1-A.
 Alpha  occ. eigenvalues --  -14.83811 -10.67090 -10.65861  -1.04454  -0.89184
 Alpha  occ. eigenvalues --   -0.59059  -0.54488  -0.53853  -0.44648  -0.39321
 Alpha  occ. eigenvalues --   -0.39272
 Alpha virt. eigenvalues --    0.03771   0.08079   0.08470   0.10206   0.11469
 Alpha virt. eigenvalues --    0.11574   0.15347   0.15955   0.16477   0.20030
 Alpha virt. eigenvalues --    0.20073   0.25225   0.32820   0.34537   0.34779

 Mulliken charges:
               1
     1  C   -0.091898
     2  C   -0.005490
     3  N   -0.201451
     4  H    0.098161
     5  H    0.100617
     6  H    0.100062
 Sum of Mulliken charges =   0.00000

 Dipole moment (field-independent basis, Debye):
    X=             -4.1034    Y=             -0.0150    Z=              0.0160  Tot=              4.1035
 Quadrupole moment (field-independent basis, Debye-Ang):
   XX=            -21.1329   YY=            -17.6584   ZZ=            -17.6858
   XY=             -0.0384   XZ=              0.0750   YZ=             -0.0166

 Normal termination of Gaussian 09 at Thu Aug 27 00:12:54 2020.
