 Gaussian 09, Revision D.01,
 Gaussian 09:  ES64L-G09RevD.01 24-Apr-2013

 --------------------
 #p B2PLYPD3/Def2QZVP
 --------------------

 ------------
 cyanomethane
 ------------
 Symbolic Z-matrix:
 Charge =  0 Multiplicity = 1

                         Standard orientation:
 ---------------------------------------------------------------------
 Center     Atomic      Atomic             Coordinates (Angstroms)
 Number     Number       Type             X           Y           Z
 ---------------------------------------------------------------------
      1          6           0        1.171018   -0.009459   -0.005408
      2          6           0       -0.281229   -0.001083    0.011241
      3          7           0       -1.430224    0.004431   -0.002905
      4          1           0        1.589383    1.018883   -0.184802
      5          1           0        1.507518   -0.650308   -0.781529
      6          1           0        1.575929   -0.336342    0.951671
 ---------------------------------------------------------------------

 SCF Done:  E(RB2PLYPD3) =  -132.534720444     A.U. after   11 cycles
 E2(B2PLYPD3) =    -0.1800440876D+00 E(B2PLYPD3) =    -0.13271476453137D+03

 The electronic state is 1-A.
 Alpha  occ. eigenvalues --  -14.84064 -10.67097 -10.66103  -1.04367  -0.89234
 Alpha  occ. eigenvalues --   -0.59928  -0.54580  -0.52964  -0.44808  -0.39275
 Alpha  occ. eigenvalues --   -0.39084
 Alpha virt. eigenvalues --    0.03743   0.07629   0.08206   0.10187   0.11455
 Alpha virt. eigenvalues --    0.11680   0.15463   0.16405   0.16532   0.20031
 Alpha virt. eigenvalues --    0.20100   0.25454   0.32736   0.34214   0.35096

 Mulliken charges:
               1
     1  C   -0.081730
     2  C   -0.001542
     3  N   -0.203116
     4  H    0.091759
     5  H    0.099764
     6  H    0.094865
 Sum of Mulliken charges =   0.00000

 Dipole moment (field-independent basis, Debye):
    X=              4.1185    Y=             -0.0123    Z=              0.0043  Tot=              4.1186
 Quadrupole moment (field-independent basis, Debye-Ang):
   XX=            -20.9368   YY=            -17.7731   ZZ=            -17.7317
   XY=              0.0658   XZ=              0.0275   YZ=              0.0449

 Normal termination of Gaussian 09 at Thu Aug 27 00:05:08 2020.
