 Gaussian 09, Revision D.01,
 Gaussian 09:  ES64L-G09RevD.01 24-Apr-2013

 --------------------
 #p B2PLYPD3/Def2QZVP
 --------------------

 ------------
 cyanomethane
 ------------
 Symbolic Z-matrix:
 Charge =  0 Multiplicity = 1

                         Standard orientation:
 ---------------------------------------------------------------------
 Center     Atomic      Atomic             Coordinates (Angstroms)
 Number     Number       Type             X           Y           Z
 ---------------------------------------------------------------------
      1          6           0        1.179906    0.009139    0.007301
      2          6           0       -0.270712   -0.001309   -0.017984
      3          7           0       -1.432924   -0.001846    0.005042
      4          1           0        1.514075    1.013534   -0.199903
      5          1           0        1.575155   -0.708321   -0.757963
      6          1           0        1.486071   -0.339275    0.986663
 ---------------------------------------------------------------------

 SCF Done:  E(RB2PLYPD3) =  -132.533639568     A.U. after   12 cycles
 E2(B2PLYPD3) =    -0.1811957673D+00 E(B2PLYPD3) =    -0.13271483533505D+03

 The electronic state is 1-A.
 Alpha  occ. eigenvalues --  -14.84291 -10.67276 -10.66345  -1.03753  -0.89378
 Alpha  occ. eigenvalues --   -0.59207  -0.54916  -0.53497  -0.44707  -0.38840
 Alpha  occ. eigenvalues --   -0.38676
 Alpha virt. eigenvalues --    0.03725   0.07581   0.08018   0.10157   0.11283
 Alpha virt. eigenvalues --    0.11505   0.15326   0.15954   0.16132   0.20117
 Alpha virt. eigenvalues --    0.20171   0.25430   0.32534   0.34142   0.34814

 Mulliken charges:
               1
     1  C   -0.094094
     2  C   -0.001135
     3  N   -0.211102
     4  H    0.105002
     5  H    0.097751
     6  H    0.103578
 Sum of Mulliken charges =   0.00000

 Dipole moment (field-independent basis, Debye):
    X=              4.1241    Y=             -0.0035    Z=              0.0032  Tot=              4.1241
 Quadrupole moment (field-independent basis, Debye-Ang):
   XX=            -21.2177   YY=            -17.6636   ZZ=            -17.7729
   XY=             -0.0558   XZ=             -0.0162   YZ=             -0.0442

 Normal termination of Gaussian 09 at Thu Aug 27 00:04:01 2020.
