 Gaussian 09, Revision D.01,
 Gaussian 09:  ES64L-G09RevD.01 24-Apr-2013

 --------------------
 #p B2PLYPD3/Def2QZVP
 --------------------

 ------------
 cyanomethane
 ------------
 Symbolic Z-matrix:
 Charge =  0 Multiplicity = 1

                         Standard orientation:
 ---------------------------------------------------------------------
 Center     Atomic      Atomic             Coordinates (Angstroms)
 Number     Number       Type             X           Y           Z
 ---------------------------------------------------------------------
      1          6           0        1.188080    0.042452   -0.016216
      2          6           0       -0.296917   -0.072344   -0.001349
      3          7           0       -1.442913    0.033608   -0.002221
      4          1           0        1.607592    0.974169   -0.377548
      5          1           0        1.623942   -0.886471   -0.596935
      6          1           0        1.521875   -0.143600    1.095422
 ---------------------------------------------------------------------

 SCF Done:  E(RB2PLYPD3) =  -132.522248148     A.U. after   13 cycles
 E2(B2PLYPD3) =    -0.1813076702D+00 E(B2PLYPD3) =    -0.13270355581805D+03

 The electronic state is 1-A.
 Alpha  occ. eigenvalues --  -14.84289 -10.69119 -10.66455  -1.04321  -0.87368
 Alpha  occ. eigenvalues --   -0.59197  -0.53210  -0.51130  -0.44879  -0.39394
 Alpha  occ. eigenvalues --   -0.38892
 Alpha virt. eigenvalues --    0.03296   0.07082   0.07303   0.09954   0.11400
 Alpha virt. eigenvalues --    0.11701   0.15167   0.15405   0.17536   0.20008
 Alpha virt. eigenvalues --    0.20110   0.25325   0.31663   0.32446   0.34614

 Mulliken charges:
               1
     1  C   -0.106252
     2  C    0.006794
     3  N   -0.201199
     4  H    0.112441
     5  H    0.093701
     6  H    0.094516
 Sum of Mulliken charges =   0.00000

 Dipole moment (field-independent basis, Debye):
    X=              4.0820    Y=             -0.0445    Z=              0.0223  Tot=              4.0824
 Quadrupole moment (field-independent basis, Debye-Ang):
   XX=            -21.1165   YY=            -17.7205   ZZ=            -17.9912
   XY=              0.1810   XZ=             -0.0374   YZ=             -0.0824

 Normal termination of Gaussian 09 at Wed Aug 26 22:29:23 2020.
