 Gaussian 09, Revision D.01,
 Gaussian 09:  ES64L-G09RevD.01 24-Apr-2013

 --------------------
 #p B2PLYPD3/Def2QZVP
 --------------------

 ------------
 cyanomethane
 ------------
 Symbolic Z-matrix:
 Charge =  0 Multiplicity = 1

                         Standard orientation:
 ---------------------------------------------------------------------
 Center     Atomic      Atomic             Coordinates (Angstroms)
 Number     Number       Type             X           Y           Z
 ---------------------------------------------------------------------
      1          6           0        1.168028   -0.012690    0.007197
      2          6           0       -0.266817    0.040871    0.002896
      3          7           0       -1.434259   -0.019007   -0.003644
      4          1           0        1.559745    0.997217   -0.180256
      5          1           0        1.550874   -0.667851   -0.767616
      6          1           0        1.521929   -0.365400    0.912822
 ---------------------------------------------------------------------

 SCF Done:  E(RB2PLYPD3) =  -132.531592252     A.U. after   11 cycles
 E2(B2PLYPD3) =    -0.1815728874D+00 E(B2PLYPD3) =    -0.13271316513979D+03

 The electronic state is 1-A.
 Alpha  occ. eigenvalues --  -14.84589 -10.66590 -10.66409  -1.03624  -0.90025
 Alpha  occ. eigenvalues --   -0.60611  -0.54879  -0.53805  -0.44888  -0.38736
 Alpha  occ. eigenvalues --   -0.38589
 Alpha virt. eigenvalues --    0.03802   0.07457   0.07895   0.10062   0.11301
 Alpha virt. eigenvalues --    0.11467   0.15596   0.16060   0.16596   0.20117
 Alpha virt. eigenvalues --    0.20217   0.25829   0.32811   0.34485   0.35196

 Mulliken charges:
               1
     1  C   -0.073320
     2  C    0.002557
     3  N   -0.213584
     4  H    0.092902
     5  H    0.093841
     6  H    0.097604
 Sum of Mulliken charges =   0.00000

 Dipole moment (field-independent basis, Debye):
    X=              4.1427    Y=              0.0094    Z=              0.0110  Tot=              4.1427
 Quadrupole moment (field-independent basis, Debye-Ang):
   XX=            -20.9256   YY=            -17.7246   ZZ=            -17.8164
   XY=             -0.1193   XZ=             -0.0314   YZ=             -0.0288

 Normal termination of Gaussian 09 at Wed Aug 26 10:58:13 2020.
