 Gaussian 09, Revision D.01,
 Gaussian 09:  ES64L-G09RevD.01 24-Apr-2013

 --------------------
 #p B2PLYPD3/Def2QZVP
 --------------------

 ------------
 cyanomethane
 ------------
 Symbolic Z-matrix:
 Charge =  0 Multiplicity = 1

                         Standard orientation:
 ---------------------------------------------------------------------
 Center     Atomic      Atomic             Coordinates (Angstroms)
 Number     Number       Type             X           Y           Z
 ---------------------------------------------------------------------
      1          6           0        1.184109    0.009785   -0.000995
      2          6           0       -0.276386    0.044934   -0.014802
      3          7           0       -1.420289   -0.013705    0.009216
      4          1           0        1.411117   -0.662409   -0.864341
      5          1           0        1.453252   -0.572564    0.929778
      6          1           0        1.631314    1.002600   -0.035166
 ---------------------------------------------------------------------

 SCF Done:  E(RB2PLYPD3) =  -132.530785975     A.U. after   12 cycles
 E2(B2PLYPD3) =    -0.1801090604D+00 E(B2PLYPD3) =    -0.13271089503577D+03

 The electronic state is 1-A.
 Alpha  occ. eigenvalues --  -14.83683 -10.67907 -10.65795  -1.04332  -0.88882
 Alpha  occ. eigenvalues --   -0.58397  -0.54822  -0.52980  -0.44508  -0.39269
 Alpha  occ. eigenvalues --   -0.38801
 Alpha virt. eigenvalues --    0.03576   0.07863   0.08210   0.10214   0.11326
 Alpha virt. eigenvalues --    0.11961   0.15182   0.15359   0.16482   0.19962
 Alpha virt. eigenvalues --    0.20198   0.25272   0.32541   0.33142   0.34930

 Mulliken charges:
               1
     1  C   -0.113446
     2  C   -0.002970
     3  N   -0.203749
     4  H    0.106069
     5  H    0.103782
     6  H    0.110314
 Sum of Mulliken charges =   0.00000

 Dipole moment (field-independent basis, Debye):
    X=              4.0816    Y=             -0.0127    Z=             -0.0095  Tot=              4.0816
 Quadrupole moment (field-independent basis, Debye-Ang):
   XX=            -21.4444   YY=            -17.4710   ZZ=            -17.8098
   XY=              0.0437   XZ=              0.0910   YZ=              0.0170

 Normal termination of Gaussian 09 at Wed Aug 26 21:34:34 2020.
