 Gaussian 09, Revision D.01,
 Gaussian 09:  ES64L-G09RevD.01 24-Apr-2013

 --------------------
 #p B2PLYPD3/Def2QZVP
 --------------------

 ------------
 cyanomethane
 ------------
 Symbolic Z-matrix:
 Charge =  0 Multiplicity = 1

                         Standard orientation:
 ---------------------------------------------------------------------
 Center     Atomic      Atomic             Coordinates (Angstroms)
 Number     Number       Type             X           Y           Z
 ---------------------------------------------------------------------
      1          6           0        1.175719   -0.012404   -0.000550
      2          6           0       -0.271010    0.022017    0.003572
      3          7           0       -1.432489   -0.008792   -0.000727
      4          1           0        1.546427   -0.059218    1.026531
      5          1           0        1.543132    0.939541   -0.468565
      6          1           0        1.509613   -0.876459   -0.571010
 ---------------------------------------------------------------------

 SCF Done:  E(RB2PLYPD3) =  -132.533817365     A.U. after   11 cycles
 E2(B2PLYPD3) =    -0.1812415348D+00 E(B2PLYPD3) =    -0.13271505889977D+03

 The electronic state is 1-A.
 Alpha  occ. eigenvalues --  -14.84310 -10.67425 -10.66350  -1.03803  -0.89247
 Alpha  occ. eigenvalues --   -0.59394  -0.54394  -0.53519  -0.44749  -0.38826
 Alpha  occ. eigenvalues --   -0.38692
 Alpha virt. eigenvalues --    0.03693   0.07600   0.07738   0.10130   0.11396
 Alpha virt. eigenvalues --    0.11491   0.15380   0.15910   0.16305   0.20121
 Alpha virt. eigenvalues --    0.20151   0.25529   0.32575   0.34047   0.34685

 Mulliken charges:
               1
     1  C   -0.093778
     2  C   -0.000060
     3  N   -0.210335
     4  H    0.100995
     5  H    0.098630
     6  H    0.104548
 Sum of Mulliken charges =   0.00000

 Dipole moment (field-independent basis, Debye):
    X=              4.1203    Y=              0.0100    Z=              0.0071  Tot=              4.1203
 Quadrupole moment (field-independent basis, Debye-Ang):
   XX=            -21.1867   YY=            -17.7047   ZZ=            -17.7648
   XY=             -0.0230   XZ=              0.0315   YZ=              0.0336

 Normal termination of Gaussian 09 at Wed Aug 26 11:21:35 2020.
