 Gaussian 09, Revision D.01,
 Gaussian 09:  ES64L-G09RevD.01 24-Apr-2013

 --------------------
 #p B2PLYPD3/Def2QZVP
 --------------------

 ------------
 cyanomethane
 ------------
 Symbolic Z-matrix:
 Charge =  0 Multiplicity = 1

                         Standard orientation:
 ---------------------------------------------------------------------
 Center     Atomic      Atomic             Coordinates (Angstroms)
 Number     Number       Type             X           Y           Z
 ---------------------------------------------------------------------
      1          6           0       -1.175073    0.002711   -0.003296
      2          6           0        0.275962    0.007144    0.027092
      3          7           0        1.440090   -0.005639   -0.014739
      4          1           0       -1.541733    1.036099   -0.096740
      5          1           0       -1.560119   -0.454885    0.910183
      6          1           0       -1.584112   -0.600870   -0.853048
 ---------------------------------------------------------------------

 SCF Done:  E(RB2PLYPD3) =  -132.533255669     A.U. after   12 cycles
 E2(B2PLYPD3) =    -0.1816101966D+00 E(B2PLYPD3) =    -0.13271486586602D+03

 The electronic state is 1-A.
 Alpha  occ. eigenvalues --  -14.84536 -10.67533 -10.66599  -1.03747  -0.89012
 Alpha  occ. eigenvalues --   -0.59879  -0.54064  -0.53019  -0.44882  -0.38829
 Alpha  occ. eigenvalues --   -0.38718
 Alpha virt. eigenvalues --    0.03633   0.07220   0.07733   0.10121   0.11298
 Alpha virt. eigenvalues --    0.11526   0.15405   0.16090   0.16601   0.20093
 Alpha virt. eigenvalues --    0.20169   0.25494   0.32580   0.34162   0.34568

 Mulliken charges:
               1
     1  C   -0.084912
     2  C    0.001825
     3  N   -0.210176
     4  H    0.099732
     5  H    0.097423
     6  H    0.096108
 Sum of Mulliken charges =   0.00000

 Dipole moment (field-independent basis, Debye):
    X=             -4.1364    Y=             -0.0012    Z=              0.0235  Tot=              4.1364
 Quadrupole moment (field-independent basis, Debye-Ang):
   XX=            -20.9971   YY=            -17.7490   ZZ=            -17.8800
   XY=              0.0832   XZ=              0.0880   YZ=             -0.0259

 Normal termination of Gaussian 09 at Thu Aug 27 00:12:25 2020.
