 Gaussian 09, Revision D.01,
 Gaussian 09:  ES64L-G09RevD.01 24-Apr-2013

 --------------------
 #p B2PLYPD3/Def2QZVP
 --------------------

 ------------
 cyanomethane
 ------------
 Symbolic Z-matrix:
 Charge =  0 Multiplicity = 1

                         Standard orientation:
 ---------------------------------------------------------------------
 Center     Atomic      Atomic             Coordinates (Angstroms)
 Number     Number       Type             X           Y           Z
 ---------------------------------------------------------------------
      1          6           0        1.154133   -0.005719    0.020347
      2          6           0       -0.259969   -0.007578   -0.068652
      3          7           0       -1.441873    0.001859    0.032565
      4          1           0        1.538983    1.054388   -0.035998
      5          1           0        1.607100   -0.546149   -0.748192
      6          1           0        1.582043   -0.441471    0.846070
 ---------------------------------------------------------------------

 SCF Done:  E(RB2PLYPD3) =  -132.521749832     A.U. after   12 cycles
 E2(B2PLYPD3) =    -0.1833513399D+00 E(B2PLYPD3) =    -0.13270510117231D+03

 The electronic state is 1-A.
 Alpha  occ. eigenvalues --  -14.85234 -10.67195 -10.66015  -1.03139  -0.90451
 Alpha  occ. eigenvalues --   -0.62520  -0.54032  -0.53729  -0.45159  -0.38287
 Alpha  occ. eigenvalues --   -0.38244
 Alpha virt. eigenvalues --    0.03656   0.06687   0.07335   0.09947   0.11209
 Alpha virt. eigenvalues --    0.11604   0.15668   0.16174   0.17200   0.20166
 Alpha virt. eigenvalues --    0.20364   0.26352   0.32810   0.34174   0.35436

 Mulliken charges:
               1
     1  C   -0.053816
     2  C    0.013349
     3  N   -0.219383
     4  H    0.088358
     5  H    0.083359
     6  H    0.088133
 Sum of Mulliken charges =   0.00000

 Dipole moment (field-independent basis, Debye):
    X=              4.1742    Y=             -0.0450    Z=             -0.0349  Tot=              4.1746
 Quadrupole moment (field-independent basis, Debye-Ang):
   XX=            -20.5985   YY=            -17.7257   ZZ=            -18.0821
   XY=             -0.1375   XZ=              0.1539   YZ=             -0.0154

 Normal termination of Gaussian 09 at Wed Aug 26 20:11:57 2020.
