 Gaussian 09, Revision D.01,
 Gaussian 09:  ES64L-G09RevD.01 24-Apr-2013

 --------------------
 #p B2PLYPD3/Def2QZVP
 --------------------

 ------------
 cyanomethane
 ------------
 Symbolic Z-matrix:
 Charge =  0 Multiplicity = 1

                         Standard orientation:
 ---------------------------------------------------------------------
 Center     Atomic      Atomic             Coordinates (Angstroms)
 Number     Number       Type             X           Y           Z
 ---------------------------------------------------------------------
      1          6           0       -1.183332    0.021463    0.037941
      2          6           0        0.249927   -0.054595    0.013895
      3          7           0        1.435433    0.014656   -0.014164
      4          1           0       -1.440915   -0.021474    0.966566
      5          1           0       -1.627153   -0.881967   -0.637695
      6          1           0       -1.379534    0.999643   -0.540744
 ---------------------------------------------------------------------

 SCF Done:  E(RB2PLYPD3) =  -132.503857779     A.U. after   12 cycles
 E2(B2PLYPD3) =    -0.1839752340D+00 E(B2PLYPD3) =    -0.13268783301258D+03

 The electronic state is 1-A.
 Alpha  occ. eigenvalues --  -14.84835 -10.67671 -10.66918  -1.02805  -0.90077
 Alpha  occ. eigenvalues --   -0.59817  -0.56163  -0.51967  -0.44656  -0.38254
 Alpha  occ. eigenvalues --   -0.37581
 Alpha virt. eigenvalues --    0.03272   0.06059   0.08362   0.10007   0.10781
 Alpha virt. eigenvalues --    0.11577   0.14949   0.15503   0.15745   0.20208
 Alpha virt. eigenvalues --    0.20305   0.25692   0.30844   0.32570   0.34743

 Mulliken charges:
               1
     1  C   -0.116991
     2  C    0.006705
     3  N   -0.224916
     4  H    0.122347
     5  H    0.098115
     6  H    0.114740
 Sum of Mulliken charges =   0.00000

 Dipole moment (field-independent basis, Debye):
    X=             -4.1070    Y=              0.0120    Z=              0.0034  Tot=              4.1070
 Quadrupole moment (field-independent basis, Debye-Ang):
   XX=            -21.6071   YY=            -17.7994   ZZ=            -17.6414
   XY=              0.0924   XZ=              0.1390   YZ=             -0.0733

 Normal termination of Gaussian 09 at Wed Aug 26 22:52:39 2020.
