 Gaussian 09, Revision D.01,
 Gaussian 09:  ES64L-G09RevD.01 24-Apr-2013

 --------------------
 #p B2PLYPD3/Def2QZVP
 --------------------

 ------------
 cyanomethane
 ------------
 Symbolic Z-matrix:
 Charge =  0 Multiplicity = 1

                         Standard orientation:
 ---------------------------------------------------------------------
 Center     Atomic      Atomic             Coordinates (Angstroms)
 Number     Number       Type             X           Y           Z
 ---------------------------------------------------------------------
      1          6           0       -1.180662   -0.012925   -0.012352
      2          6           0        0.293854    0.034741   -0.000427
      3          7           0        1.433426   -0.012554    0.004656
      4          1           0       -1.612447   -0.044177    1.005335
      5          1           0       -1.496432   -0.892322   -0.505551
      6          1           0       -1.604257    0.893484   -0.455701
 ---------------------------------------------------------------------

 SCF Done:  E(RB2PLYPD3) =  -132.534349852     A.U. after   11 cycles
 E2(B2PLYPD3) =    -0.1793032351D+00 E(B2PLYPD3) =    -0.13271365308691D+03

 The electronic state is 1-A.
 Alpha  occ. eigenvalues --  -14.83889 -10.67114 -10.65988  -1.04695  -0.88893
 Alpha  occ. eigenvalues --   -0.59741  -0.54759  -0.52528  -0.44792  -0.39658
 Alpha  occ. eigenvalues --   -0.39388
 Alpha virt. eigenvalues --    0.03757   0.07942   0.08406   0.10242   0.11393
 Alpha virt. eigenvalues --    0.11716   0.15322   0.16537   0.16734   0.19925
 Alpha virt. eigenvalues --    0.20068   0.25130   0.32655   0.34275   0.35407

 Mulliken charges:
               1
     1  C   -0.078550
     2  C   -0.003047
     3  N   -0.198030
     4  H    0.087274
     5  H    0.099686
     6  H    0.092667
 Sum of Mulliken charges =   0.00000

 Dipole moment (field-independent basis, Debye):
    X=             -4.1189    Y=              0.0142    Z=              0.0103  Tot=              4.1189
 Quadrupole moment (field-independent basis, Debye-Ang):
   XX=            -20.8392   YY=            -17.6233   ZZ=            -17.9004
   XY=              0.0044   XZ=             -0.1282   YZ=              0.0416

 Normal termination of Gaussian 09 at Wed Aug 26 11:43:11 2020.
