 Gaussian 09, Revision D.01,
 Gaussian 09:  ES64L-G09RevD.01 24-Apr-2013

 --------------------
 #p B2PLYPD3/Def2QZVP
 --------------------

 ------------
 cyanomethane
 ------------
 Symbolic Z-matrix:
 Charge =  0 Multiplicity = 1

                         Standard orientation:
 ---------------------------------------------------------------------
 Center     Atomic      Atomic             Coordinates (Angstroms)
 Number     Number       Type             X           Y           Z
 ---------------------------------------------------------------------
      1          6           0       -1.172554    0.008131    0.008938
      2          6           0        0.280435    0.014442   -0.010113
      3          7           0        1.439115   -0.008491    0.003296
      4          1           0       -1.584976   -0.601520   -0.824911
      5          1           0       -1.575712    0.975627   -0.092217
      6          1           0       -1.560401   -0.450111    0.901100
 ---------------------------------------------------------------------

 SCF Done:  E(RB2PLYPD3) =  -132.533733409     A.U. after   11 cycles
 E2(B2PLYPD3) =    -0.1808033989D+00 E(B2PLYPD3) =    -0.13271453680760D+03

 The electronic state is 1-A.
 Alpha  occ. eigenvalues --  -14.84429 -10.66779 -10.66496  -1.04020  -0.89448
 Alpha  occ. eigenvalues --   -0.60591  -0.54631  -0.52970  -0.44926  -0.39142
 Alpha  occ. eigenvalues --   -0.38897
 Alpha virt. eigenvalues --    0.03769   0.07547   0.08028   0.10159   0.11282
 Alpha virt. eigenvalues --    0.11603   0.15501   0.16458   0.16741   0.20060
 Alpha virt. eigenvalues --    0.20151   0.25445   0.32739   0.34324   0.35327

 Mulliken charges:
               1
     1  C   -0.068987
     2  C    0.001722
     3  N   -0.207688
     4  H    0.087395
     5  H    0.094630
     6  H    0.092927
 Sum of Mulliken charges =   0.00000

 Dipole moment (field-independent basis, Debye):
    X=             -4.1477    Y=              0.0051    Z=             -0.0035  Tot=              4.1477
 Quadrupole moment (field-independent basis, Debye-Ang):
   XX=            -20.7741   YY=            -17.7703   ZZ=            -17.8654
   XY=              0.0677   XZ=              0.0014   YZ=             -0.0425

 Normal termination of Gaussian 09 at Thu Aug 27 00:13:23 2020.
