 Gaussian 09, Revision D.01,
 Gaussian 09:  ES64L-G09RevD.01 24-Apr-2013

 --------------------
 #p B2PLYPD3/Def2QZVP
 --------------------

 ------------
 cyanomethane
 ------------
 Symbolic Z-matrix:
 Charge =  0 Multiplicity = 1

                         Standard orientation:
 ---------------------------------------------------------------------
 Center     Atomic      Atomic             Coordinates (Angstroms)
 Number     Number       Type             X           Y           Z
 ---------------------------------------------------------------------
      1          6           0        1.185316   -0.031978   -0.002731
      2          6           0       -0.286986   -0.041109    0.046287
      3          7           0       -1.406998    0.027755   -0.029940
      4          1           0        1.561496    0.982522   -0.397390
      5          1           0        1.498347   -0.718187   -0.593192
      6          1           0        1.399158   -0.020098    0.938832
 ---------------------------------------------------------------------

 SCF Done:  E(RB2PLYPD3) =  -132.503637482     A.U. after   12 cycles
 E2(B2PLYPD3) =    -0.1776000749D+00 E(B2PLYPD3) =    -0.13268123755703D+03

 The electronic state is 1-A.
 Alpha  occ. eigenvalues --  -14.83182 -10.65151 -10.65099  -1.05239  -0.90988
 Alpha  occ. eigenvalues --   -0.60229  -0.58104  -0.52486  -0.44504  -0.40222
 Alpha  occ. eigenvalues --   -0.39456
 Alpha virt. eigenvalues --    0.03643   0.08528   0.10104   0.10396   0.11252
 Alpha virt. eigenvalues --    0.11857   0.15471   0.15588   0.17047   0.19885
 Alpha virt. eigenvalues --    0.20058   0.25210   0.32399   0.34194   0.37275

 Mulliken charges:
               1
     1  C   -0.095435
     2  C   -0.010889
     3  N   -0.191391
     4  H    0.082436
     5  H    0.107025
     6  H    0.108254
 Sum of Mulliken charges =   0.00000

 Dipole moment (field-independent basis, Debye):
    X=              4.0495    Y=             -0.0324    Z=              0.0703  Tot=              4.0502
 Quadrupole moment (field-independent basis, Debye-Ang):
   XX=            -21.0487   YY=            -17.5701   ZZ=            -17.4490
   XY=              0.2542   XZ=             -0.2359   YZ=              0.1776

 Normal termination of Gaussian 09 at Wed Aug 26 20:18:21 2020.
