 Gaussian 09, Revision D.01,
 Gaussian 09:  ES64L-G09RevD.01 24-Apr-2013

 --------------------
 #p B2PLYPD3/Def2QZVP
 --------------------

 ------------
 cyanomethane
 ------------
 Symbolic Z-matrix:
 Charge =  0 Multiplicity = 1

                         Standard orientation:
 ---------------------------------------------------------------------
 Center     Atomic      Atomic             Coordinates (Angstroms)
 Number     Number       Type             X           Y           Z
 ---------------------------------------------------------------------
      1          6           0        1.169471   -0.010972   -0.014946
      2          6           0       -0.286290   -0.034623    0.017495
      3          7           0       -1.425261    0.021779   -0.011629
      4          1           0        1.614847    0.901573   -0.481523
      5          1           0        1.560372   -0.837439   -0.455433
      6          1           0        1.502526    0.056980    1.003065
 ---------------------------------------------------------------------

 SCF Done:  E(RB2PLYPD3) =  -132.530386001     A.U. after   12 cycles
 E2(B2PLYPD3) =    -0.1791795273D+00 E(B2PLYPD3) =    -0.13270956552787D+03

 The electronic state is 1-A.
 Alpha  occ. eigenvalues --  -14.83865 -10.66352 -10.65890  -1.04730  -0.89696
 Alpha  occ. eigenvalues --   -0.60416  -0.55483  -0.52658  -0.44818  -0.39676
 Alpha  occ. eigenvalues --   -0.39231
 Alpha virt. eigenvalues --    0.03739   0.07797   0.08886   0.10173   0.11317
 Alpha virt. eigenvalues --    0.11850   0.15591   0.15978   0.17380   0.19961
 Alpha virt. eigenvalues --    0.20136   0.25499   0.33083   0.34133   0.35664

 Mulliken charges:
               1
     1  C   -0.071898
     2  C   -0.001518
     3  N   -0.198960
     4  H    0.087309
     5  H    0.096594
     6  H    0.088473
 Sum of Mulliken charges =   0.00000

 Dipole moment (field-independent basis, Debye):
    X=              4.1121    Y=             -0.0293    Z=              0.0505  Tot=              4.1125
 Quadrupole moment (field-independent basis, Debye-Ang):
   XX=            -20.7718   YY=            -17.6582   ZZ=            -17.7995
   XY=              0.1803   XZ=             -0.0601   YZ=              0.0932

 Normal termination of Gaussian 09 at Wed Aug 26 15:27:41 2020.
