 Gaussian 09, Revision D.01,
 Gaussian 09:  ES64L-G09RevD.01 24-Apr-2013

 --------------------
 #p B2PLYPD3/Def2QZVP
 --------------------

 ------------
 cyanomethane
 ------------
 Symbolic Z-matrix:
 Charge =  0 Multiplicity = 1

                         Standard orientation:
 ---------------------------------------------------------------------
 Center     Atomic      Atomic             Coordinates (Angstroms)
 Number     Number       Type             X           Y           Z
 ---------------------------------------------------------------------
      1          6           0       -1.202424    0.003260   -0.013789
      2          6           0        0.286571    0.023473   -0.012323
      3          7           0        1.447605   -0.024205    0.014524
      4          1           0       -1.375772    1.023478   -0.149621
      5          1           0       -1.689493   -0.350938    0.938554
      6          1           0       -1.572847   -0.663510   -0.733936
 ---------------------------------------------------------------------

 SCF Done:  E(RB2PLYPD3) =  -132.524732874     A.U. after   12 cycles
 E2(B2PLYPD3) =    -0.1812659338D+00 E(B2PLYPD3) =    -0.13270599880768D+03

 The electronic state is 1-A.
 Alpha  occ. eigenvalues --  -14.84436 -10.67018 -10.66617  -1.03754  -0.89325
 Alpha  occ. eigenvalues --   -0.59843  -0.55721  -0.52173  -0.44731  -0.39113
 Alpha  occ. eigenvalues --   -0.38825
 Alpha virt. eigenvalues --    0.03660   0.07306   0.08877   0.10134   0.10952
 Alpha virt. eigenvalues --    0.11507   0.14828   0.15771   0.17041   0.20013
 Alpha virt. eigenvalues --    0.20261   0.24758   0.32147   0.34202   0.35557

 Mulliken charges:
               1
     1  C   -0.086693
     2  C   -0.000684
     3  N   -0.210084
     4  H    0.107364
     5  H    0.089129
     6  H    0.100968
 Sum of Mulliken charges =   0.00000

 Dipole moment (field-independent basis, Debye):
    X=             -4.1516    Y=              0.0222    Z=             -0.0190  Tot=              4.1517
 Quadrupole moment (field-independent basis, Debye-Ang):
   XX=            -20.9841   YY=            -17.5836   ZZ=            -18.0127
   XY=              0.3786   XZ=             -0.2038   YZ=              0.0533

 Normal termination of Gaussian 09 at Wed Aug 26 21:19:19 2020.
