 Gaussian 09, Revision D.01,
 Gaussian 09:  ES64L-G09RevD.01 24-Apr-2013

 --------------------
 #p B2PLYPD3/Def2QZVP
 --------------------

 ------------
 cyanomethane
 ------------
 Symbolic Z-matrix:
 Charge =  0 Multiplicity = 1

                         Standard orientation:
 ---------------------------------------------------------------------
 Center     Atomic      Atomic             Coordinates (Angstroms)
 Number     Number       Type             X           Y           Z
 ---------------------------------------------------------------------
      1          6           0       -1.162754    0.017029   -0.011137
      2          6           0        0.275561    0.018150   -0.000406
      3          7           0        1.430137   -0.018015    0.004704
      4          1           0       -1.477190    1.031569    0.021664
      5          1           0       -1.645538   -0.565534    0.859551
      6          1           0       -1.565071   -0.551001   -0.844885
 ---------------------------------------------------------------------

 SCF Done:  E(RB2PLYPD3) =  -132.529533349     A.U. after   12 cycles
 E2(B2PLYPD3) =    -0.1808467126D+00 E(B2PLYPD3) =    -0.13271038006186D+03

 The electronic state is 1-A.
 Alpha  occ. eigenvalues --  -14.84253 -10.67238 -10.66255  -1.04182  -0.89367
 Alpha  occ. eigenvalues --   -0.60321  -0.55503  -0.51635  -0.44876  -0.39178
 Alpha  occ. eigenvalues --   -0.38657
 Alpha virt. eigenvalues --    0.03616   0.06957   0.08168   0.10126   0.11228
 Alpha virt. eigenvalues --    0.11979   0.15401   0.16487   0.16670   0.19949
 Alpha virt. eigenvalues --    0.20247   0.25698   0.32540   0.33791   0.35299

 Mulliken charges:
               1
     1  C   -0.079207
     2  C    0.000907
     3  N   -0.206012
     4  H    0.103507
     5  H    0.085634
     6  H    0.095171
 Sum of Mulliken charges =   0.00000

 Dipole moment (field-independent basis, Debye):
    X=             -4.1240    Y=             -0.0049    Z=             -0.0175  Tot=              4.1240
 Quadrupole moment (field-independent basis, Debye-Ang):
   XX=            -20.9047   YY=            -17.5401   ZZ=            -18.0564
   XY=              0.3007   XZ=             -0.0627   YZ=              0.0692

 Normal termination of Gaussian 09 at Wed Aug 26 16:03:47 2020.
