 Gaussian 09, Revision D.01,
 Gaussian 09:  ES64L-G09RevD.01 24-Apr-2013

 --------------------
 #p B2PLYPD3/Def2QZVP
 --------------------

 ------------
 cyanomethane
 ------------
 Symbolic Z-matrix:
 Charge =  0 Multiplicity = 1

                         Standard orientation:
 ---------------------------------------------------------------------
 Center     Atomic      Atomic             Coordinates (Angstroms)
 Number     Number       Type             X           Y           Z
 ---------------------------------------------------------------------
      1          6           0        1.160284   -0.013494   -0.006588
      2          6           0       -0.270246   -0.019516   -0.020122
      3          7           0       -1.433050    0.009138    0.006404
      4          1           0        1.557628    0.961242   -0.352313
      5          1           0        1.635834   -0.756326   -0.537538
      6          1           0        1.497664   -0.070821    1.005281
 ---------------------------------------------------------------------

 SCF Done:  E(RB2PLYPD3) =  -132.530530635     A.U. after   12 cycles
 E2(B2PLYPD3) =    -0.1811112201D+00 E(B2PLYPD3) =    -0.13271164185506D+03

 The electronic state is 1-A.
 Alpha  occ. eigenvalues --  -14.84498 -10.66530 -10.66194  -1.03897  -0.90155
 Alpha  occ. eigenvalues --   -0.61454  -0.54947  -0.53234  -0.44954  -0.38985
 Alpha  occ. eigenvalues --   -0.38628
 Alpha virt. eigenvalues --    0.03793   0.07505   0.07960   0.10134   0.11288
 Alpha virt. eigenvalues --    0.11727   0.15656   0.16140   0.17143   0.20115
 Alpha virt. eigenvalues --    0.20216   0.25836   0.32980   0.34257   0.35489

 Mulliken charges:
               1
     1  C   -0.062531
     2  C    0.005123
     3  N   -0.211113
     4  H    0.086561
     5  H    0.092836
     6  H    0.089124
 Sum of Mulliken charges =   0.00000

 Dipole moment (field-independent basis, Debye):
    X=              4.1587    Y=             -0.0033    Z=              0.0229  Tot=              4.1588
 Quadrupole moment (field-independent basis, Debye-Ang):
   XX=            -20.7053   YY=            -17.7672   ZZ=            -17.8555
   XY=              0.0341   XZ=              0.0280   YZ=              0.0589

 Normal termination of Gaussian 09 at Wed Aug 26 12:57:15 2020.
