 Gaussian 09, Revision D.01,
 Gaussian 09:  ES64L-G09RevD.01 24-Apr-2013

 --------------------
 #p B2PLYPD3/Def2QZVP
 --------------------

 ------------
 cyanomethane
 ------------
 Symbolic Z-matrix:
 Charge =  0 Multiplicity = 1

                         Standard orientation:
 ---------------------------------------------------------------------
 Center     Atomic      Atomic             Coordinates (Angstroms)
 Number     Number       Type             X           Y           Z
 ---------------------------------------------------------------------
      1          6           0       -1.190047   -0.001993    0.022310
      2          6           0        0.282025   -0.011506   -0.033732
      3          7           0        1.436142    0.004133    0.015586
      4          1           0       -1.536898    0.004951    1.018746
      5          1           0       -1.557434   -0.905311   -0.539019
      6          1           0       -1.510535    0.952420   -0.520292
 ---------------------------------------------------------------------

 SCF Done:  E(RB2PLYPD3) =  -132.531000533     A.U. after   12 cycles
 E2(B2PLYPD3) =    -0.1808281386D+00 E(B2PLYPD3) =    -0.13271182867181D+03

 The electronic state is 1-A.
 Alpha  occ. eigenvalues --  -14.84153 -10.67887 -10.66262  -1.04007  -0.88655
 Alpha  occ. eigenvalues --   -0.59010  -0.54191  -0.53008  -0.44683  -0.39120
 Alpha  occ. eigenvalues --   -0.38871
 Alpha virt. eigenvalues --    0.03612   0.07734   0.07899   0.10122   0.11336
 Alpha virt. eigenvalues --    0.11506   0.15194   0.15670   0.16498   0.20060
 Alpha virt. eigenvalues --    0.20110   0.25134   0.32197   0.33439   0.34857

 Mulliken charges:
               1
     1  C   -0.102192
     2  C   -0.000662
     3  N   -0.206594
     4  H    0.107875
     5  H    0.101408
     6  H    0.100165
 Sum of Mulliken charges =   0.00000

 Dipole moment (field-independent basis, Debye):
    X=             -4.1057    Y=             -0.0033    Z=             -0.0103  Tot=              4.1057
 Quadrupole moment (field-independent basis, Debye-Ang):
   XX=            -21.2674   YY=            -17.7131   ZZ=            -17.7403
   XY=              0.0085   XZ=             -0.1130   YZ=              0.0132

 Normal termination of Gaussian 09 at Wed Aug 26 13:52:02 2020.
