 Gaussian 09, Revision D.01,
 Gaussian 09:  ES64L-G09RevD.01 24-Apr-2013

 --------------------
 #p B2PLYPD3/Def2QZVP
 --------------------

 ------------
 cyanomethane
 ------------
 Symbolic Z-matrix:
 Charge =  0 Multiplicity = 1

                         Standard orientation:
 ---------------------------------------------------------------------
 Center     Atomic      Atomic             Coordinates (Angstroms)
 Number     Number       Type             X           Y           Z
 ---------------------------------------------------------------------
      1          6           0        1.163866    0.014044    0.013817
      2          6           0       -0.284779   -0.027003    0.005641
      3          7           0       -1.424303    0.017590   -0.000536
      4          1           0        1.619699    1.041450   -0.202920
      5          1           0        1.483308   -0.688102   -0.853553
      6          1           0        1.592592   -0.398723    0.943473
 ---------------------------------------------------------------------

 SCF Done:  E(RB2PLYPD3) =  -132.529109823     A.U. after   12 cycles
 E2(B2PLYPD3) =    -0.1800371242D+00 E(B2PLYPD3) =    -0.13270914694694D+03

 The electronic state is 1-A.
 Alpha  occ. eigenvalues --  -14.83838 -10.68367 -10.65890  -1.04744  -0.88320
 Alpha  occ. eigenvalues --   -0.59489  -0.53328  -0.52175  -0.44803  -0.39422
 Alpha  occ. eigenvalues --   -0.39020
 Alpha virt. eigenvalues --    0.03471   0.07171   0.07762   0.10133   0.11659
 Alpha virt. eigenvalues --    0.12008   0.15413   0.15691   0.17366   0.20031
 Alpha virt. eigenvalues --    0.20077   0.25586   0.32440   0.33077   0.34585

 Mulliken charges:
               1
     1  C   -0.101566
     2  C    0.001676
     3  N   -0.197392
     4  H    0.100884
     5  H    0.094628
     6  H    0.101769
 Sum of Mulliken charges =   0.00000

 Dipole moment (field-independent basis, Debye):
    X=              4.0792    Y=             -0.0430    Z=             -0.0052  Tot=              4.0794
 Quadrupole moment (field-independent basis, Debye-Ang):
   XX=            -21.0724   YY=            -17.7418   ZZ=            -17.7973
   XY=              0.1460   XZ=              0.0465   YZ=             -0.0556

 Normal termination of Gaussian 09 at Wed Aug 26 14:26:24 2020.
