 Gaussian 09, Revision D.01,
 Gaussian 09:  ES64L-G09RevD.01 24-Apr-2013

 --------------------
 #p B2PLYPD3/Def2QZVP
 --------------------

 ------------
 cyanomethane
 ------------
 Symbolic Z-matrix:
 Charge =  0 Multiplicity = 1

                         Standard orientation:
 ---------------------------------------------------------------------
 Center     Atomic      Atomic             Coordinates (Angstroms)
 Number     Number       Type             X           Y           Z
 ---------------------------------------------------------------------
      1          6           0       -1.161591   -0.010543   -0.010474
      2          6           0        0.284581    0.040907    0.009326
      3          7           0        1.424841   -0.019946   -0.003848
      4          1           0       -1.565556   -0.481763    0.890024
      5          1           0       -1.568072   -0.540849   -0.831356
      6          1           0       -1.578195    0.980047   -0.024842
 ---------------------------------------------------------------------

 SCF Done:  E(RB2PLYPD3) =  -132.534716021     A.U. after   11 cycles
 E2(B2PLYPD3) =    -0.1793332681D+00 E(B2PLYPD3) =    -0.13271404928896D+03

 The electronic state is 1-A.
 Alpha  occ. eigenvalues --  -14.83944 -10.66475 -10.65940  -1.04730  -0.89551
 Alpha  occ. eigenvalues --   -0.60749  -0.54199  -0.53385  -0.44884  -0.39488
 Alpha  occ. eigenvalues --   -0.39338
 Alpha virt. eigenvalues --    0.03812   0.07955   0.08242   0.10132   0.11584
 Alpha virt. eigenvalues --    0.11730   0.15647   0.16325   0.17187   0.19978
 Alpha virt. eigenvalues --    0.20087   0.25707   0.33160   0.34605   0.35297

 Mulliken charges:
               1
     1  C   -0.067270
     2  C    0.000095
     3  N   -0.199270
     4  H    0.087160
     5  H    0.092013
     6  H    0.087271
 Sum of Mulliken charges =   0.00000

 Dipole moment (field-independent basis, Debye):
    X=             -4.1115    Y=              0.0319    Z=              0.0096  Tot=              4.1116
 Quadrupole moment (field-independent basis, Debye-Ang):
   XX=            -20.7133   YY=            -17.7556   ZZ=            -17.7602
   XY=              0.1051   XZ=              0.0108   YZ=              0.0300

 Normal termination of Gaussian 09 at Wed Aug 26 14:36:59 2020.
