 Gaussian 09, Revision D.01,
 Gaussian 09:  ES64L-G09RevD.01 24-Apr-2013

 --------------------
 #p B2PLYPD3/Def2QZVP
 --------------------

 ------------
 cyanomethane
 ------------
 Symbolic Z-matrix:
 Charge =  0 Multiplicity = 1

                         Standard orientation:
 ---------------------------------------------------------------------
 Center     Atomic      Atomic             Coordinates (Angstroms)
 Number     Number       Type             X           Y           Z
 ---------------------------------------------------------------------
      1          6           0        1.178376    0.002831    0.000734
      2          6           0       -0.269548    0.010417    0.011633
      3          7           0       -1.432461   -0.001864   -0.005772
      4          1           0        1.523794   -0.138843    1.005549
      5          1           0        1.569545    0.930659   -0.421051
      6          1           0        1.480920   -0.858255   -0.618295
 ---------------------------------------------------------------------

 SCF Done:  E(RB2PLYPD3) =  -132.534144612     A.U. after   12 cycles
 E2(B2PLYPD3) =    -0.1811753268D+00 E(B2PLYPD3) =    -0.13271531993922D+03

 The electronic state is 1-A.
 Alpha  occ. eigenvalues --  -14.84307 -10.67076 -10.66359  -1.03736  -0.89539
 Alpha  occ. eigenvalues --   -0.59433  -0.54568  -0.54028  -0.44718  -0.38812
 Alpha  occ. eigenvalues --   -0.38677
 Alpha virt. eigenvalues --    0.03751   0.07708   0.07985   0.10156   0.11307
 Alpha virt. eigenvalues --    0.11475   0.15374   0.15818   0.16319   0.20133
 Alpha virt. eigenvalues --    0.20174   0.25474   0.32710   0.34185   0.34838

 Mulliken charges:
               1
     1  C   -0.091298
     2  C   -0.000927
     3  N   -0.211613
     4  H    0.101554
     5  H    0.101318
     6  H    0.100967
 Sum of Mulliken charges =   0.00000

 Dipole moment (field-independent basis, Debye):
    X=              4.1295    Y=             -0.0080    Z=              0.0118  Tot=              4.1296
 Quadrupole moment (field-independent basis, Debye-Ang):
   XX=            -21.1781   YY=            -17.6971   ZZ=            -17.7390
   XY=              0.0345   XZ=             -0.0138   YZ=             -0.0169

 Normal termination of Gaussian 09 at Wed Aug 26 12:01:29 2020.
