 Gaussian 09, Revision D.01,
 Gaussian 09:  ES64L-G09RevD.01 24-Apr-2013

 --------------------
 #p B2PLYPD3/Def2QZVP
 --------------------

 ------------
 cyanomethane
 ------------
 Symbolic Z-matrix:
 Charge =  0 Multiplicity = 1

                         Standard orientation:
 ---------------------------------------------------------------------
 Center     Atomic      Atomic             Coordinates (Angstroms)
 Number     Number       Type             X           Y           Z
 ---------------------------------------------------------------------
      1          6           0        1.170887    0.004432   -0.007364
      2          6           0       -0.277477   -0.005784   -0.001846
      3          7           0       -1.433553    0.004014    0.001904
      4          1           0        1.547087   -0.502461   -0.876330
      5          1           0        1.549212   -0.535276    0.885241
      6          1           0        1.578108    1.017748    0.033019
 ---------------------------------------------------------------------

 SCF Done:  E(RB2PLYPD3) =  -132.535054823     A.U. after   11 cycles
 E2(B2PLYPD3) =    -0.1806515999D+00 E(B2PLYPD3) =    -0.13271570642330D+03

 The electronic state is 1-A.
 Alpha  occ. eigenvalues --  -14.84263 -10.67104 -10.66306  -1.04095  -0.89297
 Alpha  occ. eigenvalues --   -0.60083  -0.54245  -0.53313  -0.44843  -0.39074
 Alpha  occ. eigenvalues --   -0.38913
 Alpha virt. eigenvalues --    0.03747   0.07619   0.07915   0.10155   0.11417
 Alpha virt. eigenvalues --    0.11598   0.15484   0.16193   0.16669   0.20081
 Alpha virt. eigenvalues --    0.20124   0.25513   0.32776   0.34246   0.34957

 Mulliken charges:
               1
     1  C   -0.080267
     2  C   -0.000043
     3  N   -0.206666
     4  H    0.097497
     5  H    0.093128
     6  H    0.096350
 Sum of Mulliken charges =   0.00000

 Dipole moment (field-independent basis, Debye):
    X=              4.1306    Y=             -0.0128    Z=             -0.0001  Tot=              4.1306
 Quadrupole moment (field-independent basis, Debye-Ang):
   XX=            -20.9390   YY=            -17.7559   ZZ=            -17.7926
   XY=              0.0293   XZ=              0.0225   YZ=              0.0339

 Normal termination of Gaussian 09 at Wed Aug 26 23:59:11 2020.
