 Gaussian 09, Revision D.01,
 Gaussian 09:  ES64L-G09RevD.01 24-Apr-2013

 --------------------
 #p B2PLYPD3/Def2QZVP
 --------------------

 ------------
 cyanomethane
 ------------
 Symbolic Z-matrix:
 Charge =  0 Multiplicity = 1

                         Standard orientation:
 ---------------------------------------------------------------------
 Center     Atomic      Atomic             Coordinates (Angstroms)
 Number     Number       Type             X           Y           Z
 ---------------------------------------------------------------------
      1          6           0        1.178581   -0.010683   -0.011665
      2          6           0       -0.275770   -0.022370    0.008007
      3          7           0       -1.424573    0.012106   -0.004667
      4          1           0        1.513540    1.021736   -0.146822
      5          1           0        1.541721   -0.599154   -0.734027
      6          1           0        1.499878   -0.309001    0.935466
 ---------------------------------------------------------------------

 SCF Done:  E(RB2PLYPD3) =  -132.529491346     A.U. after   11 cycles
 E2(B2PLYPD3) =    -0.1795027333D+00 E(B2PLYPD3) =    -0.13270899407888D+03

 The electronic state is 1-A.
 Alpha  occ. eigenvalues --  -14.83930 -10.65955 -10.65718  -1.04285  -0.90408
 Alpha  occ. eigenvalues --   -0.60039  -0.56191  -0.54014  -0.44679  -0.39370
 Alpha  occ. eigenvalues --   -0.39045
 Alpha virt. eigenvalues --    0.03913   0.08308   0.08926   0.10203   0.11218
 Alpha virt. eigenvalues --    0.11615   0.15522   0.15919   0.16606   0.20047
 Alpha virt. eigenvalues --    0.20146   0.25400   0.33088   0.34429   0.35892

 Mulliken charges:
               1
     1  C   -0.075201
     2  C   -0.003778
     3  N   -0.205743
     4  H    0.092045
     5  H    0.098599
     6  H    0.094078
 Sum of Mulliken charges =   0.00000

 Dipole moment (field-independent basis, Debye):
    X=              4.1239    Y=             -0.0148    Z=              0.0233  Tot=              4.1240
 Quadrupole moment (field-independent basis, Debye-Ang):
   XX=            -20.9747   YY=            -17.6476   ZZ=            -17.6414
   XY=              0.0633   XZ=             -0.0173   YZ=              0.0586

 Normal termination of Gaussian 09 at Wed Aug 26 11:53:58 2020.
