 Gaussian 09, Revision D.01,
 Gaussian 09:  ES64L-G09RevD.01 24-Apr-2013

 --------------------
 #p B2PLYPD3/Def2QZVP
 --------------------

 ------------
 cyanomethane
 ------------
 Symbolic Z-matrix:
 Charge =  0 Multiplicity = 1

                         Standard orientation:
 ---------------------------------------------------------------------
 Center     Atomic      Atomic             Coordinates (Angstroms)
 Number     Number       Type             X           Y           Z
 ---------------------------------------------------------------------
      1          6           0       -1.181560    0.006378   -0.008498
      2          6           0        0.277943   -0.029857    0.020423
      3          7           0        1.424630    0.011523   -0.011313
      4          1           0       -1.560573   -0.662626   -0.799968
      5          1           0       -1.475910    1.058511   -0.182250
      6          1           0       -1.514227   -0.335672    0.989864
 ---------------------------------------------------------------------

 SCF Done:  E(RB2PLYPD3) =  -132.534247234     A.U. after   12 cycles
 E2(B2PLYPD3) =    -0.1801055092D+00 E(B2PLYPD3) =    -0.13271435274294D+03

 The electronic state is 1-A.
 Alpha  occ. eigenvalues --  -14.83847 -10.67653 -10.65894  -1.04287  -0.88929
 Alpha  occ. eigenvalues --   -0.58594  -0.54055  -0.53880  -0.44604  -0.39137
 Alpha  occ. eigenvalues --   -0.39044
 Alpha virt. eigenvalues --    0.03654   0.07907   0.08128   0.10173   0.11508
 Alpha virt. eigenvalues --    0.11591   0.15262   0.15680   0.16359   0.20066
 Alpha virt. eigenvalues --    0.20081   0.25340   0.32653   0.34068   0.34447

 Mulliken charges:
               1
     1  C   -0.104534
     2  C   -0.003527
     3  N   -0.203764
     4  H    0.103918
     5  H    0.105912
     6  H    0.101994
 Sum of Mulliken charges =   0.00000

 Dipole moment (field-independent basis, Debye):
    X=             -4.0873    Y=             -0.0139    Z=              0.0212  Tot=              4.0874
 Quadrupole moment (field-independent basis, Debye-Ang):
   XX=            -21.3268   YY=            -17.6396   ZZ=            -17.6826
   XY=             -0.0069   XZ=              0.0779   YZ=              0.0115

 Normal termination of Gaussian 09 at Wed Aug 26 14:33:50 2020.
