 Gaussian 09, Revision D.01,
 Gaussian 09:  ES64L-G09RevD.01 24-Apr-2013

 --------------------
 #p B2PLYPD3/Def2QZVP
 --------------------

 ------------
 cyanomethane
 ------------
 Symbolic Z-matrix:
 Charge =  0 Multiplicity = 1

                         Standard orientation:
 ---------------------------------------------------------------------
 Center     Atomic      Atomic             Coordinates (Angstroms)
 Number     Number       Type             X           Y           Z
 ---------------------------------------------------------------------
      1          6           0       -1.166674   -0.008245    0.005119
      2          6           0        0.286117   -0.005122   -0.041989
      3          7           0        1.430321    0.006065    0.016878
      4          1           0       -1.608349    1.050152    0.034939
      5          1           0       -1.501973   -0.508477    0.903848
      6          1           0       -1.618581   -0.503927   -0.835718
 ---------------------------------------------------------------------

 SCF Done:  E(RB2PLYPD3) =  -132.533313874     A.U. after   11 cycles
 E2(B2PLYPD3) =    -0.1799685136D+00 E(B2PLYPD3) =    -0.13271328238805D+03

 The electronic state is 1-A.
 Alpha  occ. eigenvalues --  -14.84068 -10.67361 -10.66112  -1.04565  -0.88917
 Alpha  occ. eigenvalues --   -0.60206  -0.53960  -0.52611  -0.44887  -0.39374
 Alpha  occ. eigenvalues --   -0.39195
 Alpha virt. eigenvalues --    0.03634   0.07451   0.08090   0.10186   0.11522
 Alpha virt. eigenvalues --    0.11764   0.15477   0.16518   0.16785   0.19980
 Alpha virt. eigenvalues --    0.20076   0.25543   0.32612   0.34128   0.34971

 Mulliken charges:
               1
     1  C   -0.079779
     2  C    0.000670
     3  N   -0.200430
     4  H    0.089507
     5  H    0.096598
     6  H    0.093434
 Sum of Mulliken charges =   0.00000

 Dipole moment (field-independent basis, Debye):
    X=             -4.1089    Y=             -0.0294    Z=             -0.0159  Tot=              4.1090
 Quadrupole moment (field-independent basis, Debye-Ang):
   XX=            -20.8306   YY=            -17.7891   ZZ=            -17.8036
   XY=             -0.0352   XZ=             -0.0396   YZ=             -0.0054

 Normal termination of Gaussian 09 at Wed Aug 26 11:29:43 2020.
