 Gaussian 09, Revision D.01,
 Gaussian 09:  ES64L-G09RevD.01 24-Apr-2013

 --------------------
 #p B2PLYPD3/Def2QZVP
 --------------------

 ------------
 cyanomethane
 ------------
 Symbolic Z-matrix:
 Charge =  0 Multiplicity = 1

                         Standard orientation:
 ---------------------------------------------------------------------
 Center     Atomic      Atomic             Coordinates (Angstroms)
 Number     Number       Type             X           Y           Z
 ---------------------------------------------------------------------
      1          6           0        1.152684    0.012639   -0.013849
      2          6           0       -0.269234    0.037025    0.026063
      3          7           0       -1.427459   -0.023706   -0.018571
      4          1           0        1.542603    1.013796   -0.129859
      5          1           0        1.660629   -0.713825   -0.725425
      6          1           0        1.488276   -0.432018    0.911993
 ---------------------------------------------------------------------

 SCF Done:  E(RB2PLYPD3) =  -132.527651553     A.U. after   12 cycles
 E2(B2PLYPD3) =    -0.1814537009D+00 E(B2PLYPD3) =    -0.13270910525422D+03

 The electronic state is 1-A.
 Alpha  occ. eigenvalues --  -14.84414 -10.67025 -10.66374  -1.04029  -0.89691
 Alpha  occ. eigenvalues --   -0.60821  -0.55234  -0.51855  -0.44949  -0.38990
 Alpha  occ. eigenvalues --   -0.38411
 Alpha virt. eigenvalues --    0.03544   0.06782   0.07987   0.09996   0.11231
 Alpha virt. eigenvalues --    0.12033   0.15502   0.15803   0.17612   0.20015
 Alpha virt. eigenvalues --    0.20379   0.26086   0.32945   0.33690   0.35074

 Mulliken charges:
               1
     1  C   -0.076836
     2  C    0.004907
     3  N   -0.208669
     4  H    0.100161
     5  H    0.089736
     6  H    0.090701
 Sum of Mulliken charges =   0.00000

 Dipole moment (field-independent basis, Debye):
    X=              4.1320    Y=             -0.0168    Z=              0.0799  Tot=              4.1329
 Quadrupole moment (field-independent basis, Debye-Ang):
   XX=            -20.8263   YY=            -17.5179   ZZ=            -18.1240
   XY=             -0.3042   XZ=             -0.0849   YZ=             -0.0675

 Normal termination of Gaussian 09 at Wed Aug 26 20:59:45 2020.
