 Gaussian 09, Revision D.01,
 Gaussian 09:  ES64L-G09RevD.01 24-Apr-2013

 --------------------
 #p B2PLYPD3/Def2QZVP
 --------------------

 ------------
 cyanomethane
 ------------
 Symbolic Z-matrix:
 Charge =  0 Multiplicity = 1

                         Standard orientation:
 ---------------------------------------------------------------------
 Center     Atomic      Atomic             Coordinates (Angstroms)
 Number     Number       Type             X           Y           Z
 ---------------------------------------------------------------------
      1          6           0       -1.179275   -0.019480    0.003120
      2          6           0        0.282018    0.028355   -0.007031
      3          7           0        1.415998   -0.006616   -0.001369
      4          1           0       -1.430252   -0.235115    1.003688
      5          1           0       -1.493979   -0.820519   -0.671609
      6          1           0       -1.604217    1.048701   -0.299026
 ---------------------------------------------------------------------

 SCF Done:  E(RB2PLYPD3) =  -132.528430347     A.U. after   12 cycles
 E2(B2PLYPD3) =    -0.1791083317D+00 E(B2PLYPD3) =    -0.13270753867909D+03

 The electronic state is 1-A.
 Alpha  occ. eigenvalues --  -14.83430 -10.67779 -10.65463  -1.04809  -0.88918
 Alpha  occ. eigenvalues --   -0.58267  -0.54871  -0.52856  -0.44517  -0.39491
 Alpha  occ. eigenvalues --   -0.39286
 Alpha virt. eigenvalues --    0.03584   0.07579   0.08708   0.10196   0.11665
 Alpha virt. eigenvalues --    0.11871   0.15269   0.15676   0.16392   0.19985
 Alpha virt. eigenvalues --    0.20068   0.25275   0.31653   0.34157   0.34743

 Mulliken charges:
               1
     1  C   -0.111394
     2  C   -0.006480
     3  N   -0.196568
     4  H    0.108081
     5  H    0.107986
     6  H    0.098374
 Sum of Mulliken charges =   0.00000

 Dipole moment (field-independent basis, Debye):
    X=             -4.0531    Y=             -0.0197    Z=              0.0360  Tot=              4.0533
 Quadrupole moment (field-independent basis, Debye-Ang):
   XX=            -21.4021   YY=            -17.4922   ZZ=            -17.7139
   XY=             -0.0026   XZ=              0.0102   YZ=              0.0401

 Normal termination of Gaussian 09 at Wed Aug 26 18:40:00 2020.
