 Gaussian 09, Revision D.01,
 Gaussian 09:  ES64L-G09RevD.01 24-Apr-2013

 --------------------
 #p B2PLYPD3/Def2QZVP
 --------------------

 ------------
 cyanomethane
 ------------
 Symbolic Z-matrix:
 Charge =  0 Multiplicity = 1

                         Standard orientation:
 ---------------------------------------------------------------------
 Center     Atomic      Atomic             Coordinates (Angstroms)
 Number     Number       Type             X           Y           Z
 ---------------------------------------------------------------------
      1          6           0       -1.178533   -0.006267    0.007549
      2          6           0        0.273208   -0.008390    0.013121
      3          7           0        1.432084    0.007052   -0.012029
      4          1           0       -1.464347   -0.445861    0.886060
      5          1           0       -1.566392   -0.554368   -0.852639
      6          1           0       -1.561899    1.038803   -0.073237
 ---------------------------------------------------------------------

 SCF Done:  E(RB2PLYPD3) =  -132.531397690     A.U. after   12 cycles
 E2(B2PLYPD3) =    -0.1807318441D+00 E(B2PLYPD3) =    -0.13271212953410D+03

 The electronic state is 1-A.
 Alpha  occ. eigenvalues --  -14.84248 -10.66697 -10.66283  -1.03912  -0.89780
 Alpha  occ. eigenvalues --   -0.59611  -0.55622  -0.53310  -0.44742  -0.39011
 Alpha  occ. eigenvalues --   -0.38802
 Alpha virt. eigenvalues --    0.03762   0.07511   0.08562   0.10172   0.11207
 Alpha virt. eigenvalues --    0.11556   0.15416   0.15899   0.16486   0.20083
 Alpha virt. eigenvalues --    0.20179   0.25424   0.32704   0.34191   0.35275

 Mulliken charges:
               1
     1  C   -0.085100
     2  C   -0.001984
     3  N   -0.209524
     4  H    0.104143
     5  H    0.096556
     6  H    0.095910
 Sum of Mulliken charges =   0.00000

 Dipole moment (field-independent basis, Debye):
    X=             -4.1287    Y=             -0.0175    Z=              0.0172  Tot=              4.1288
 Quadrupole moment (field-independent basis, Debye-Ang):
   XX=            -21.0688   YY=            -17.7267   ZZ=            -17.7043
   XY=             -0.0574   XZ=              0.1437   YZ=             -0.0508

 Normal termination of Gaussian 09 at Wed Aug 26 23:56:18 2020.
