 Gaussian 09, Revision D.01,
 Gaussian 09:  ES64L-G09RevD.01 24-Apr-2013

 --------------------
 #p B2PLYPD3/Def2QZVP
 --------------------

 ------------
 cyanomethane
 ------------
 Symbolic Z-matrix:
 Charge =  0 Multiplicity = 1

                         Standard orientation:
 ---------------------------------------------------------------------
 Center     Atomic      Atomic             Coordinates (Angstroms)
 Number     Number       Type             X           Y           Z
 ---------------------------------------------------------------------
      1          6           0        1.172160   -0.005058   -0.003199
      2          6           0       -0.279293    0.006714    0.020902
      3          7           0       -1.428947   -0.002316   -0.011286
      4          1           0        1.559928    0.964732   -0.329654
      5          1           0        1.547413   -0.758414   -0.675900
      6          1           0        1.538089   -0.200039    0.978339
 ---------------------------------------------------------------------

 SCF Done:  E(RB2PLYPD3) =  -132.535763691     A.U. after   11 cycles
 E2(B2PLYPD3) =    -0.1799559575D+00 E(B2PLYPD3) =    -0.13271571964862D+03

 The electronic state is 1-A.
 Alpha  occ. eigenvalues --  -14.84062 -10.66711 -10.66087  -1.04310  -0.89525
 Alpha  occ. eigenvalues --   -0.59991  -0.54419  -0.53806  -0.44787  -0.39201
 Alpha  occ. eigenvalues --   -0.39137
 Alpha virt. eigenvalues --    0.03811   0.07902   0.08263   0.10174   0.11463
 Alpha virt. eigenvalues --    0.11571   0.15508   0.16191   0.16644   0.20055
 Alpha virt. eigenvalues --    0.20098   0.25491   0.32950   0.34660   0.34975

 Mulliken charges:
               1
     1  C   -0.078556
     2  C   -0.002021
     3  N   -0.204238
     4  H    0.093510
     5  H    0.095952
     6  H    0.095353
 Sum of Mulliken charges =   0.00000

 Dipole moment (field-independent basis, Debye):
    X=              4.1217    Y=              0.0012    Z=              0.0202  Tot=              4.1217
 Quadrupole moment (field-independent basis, Debye-Ang):
   XX=            -20.9356   YY=            -17.7322   ZZ=            -17.7223
   XY=             -0.0050   XZ=             -0.0661   YZ=              0.0065

 Normal termination of Gaussian 09 at Wed Aug 26 10:13:39 2020.
