 Gaussian 09, Revision D.01,
 Gaussian 09:  ES64L-G09RevD.01 24-Apr-2013

 --------------------
 #p B2PLYPD3/Def2QZVP
 --------------------

 ------------
 cyanomethane
 ------------
 Symbolic Z-matrix:
 Charge =  0 Multiplicity = 1

                         Standard orientation:
 ---------------------------------------------------------------------
 Center     Atomic      Atomic             Coordinates (Angstroms)
 Number     Number       Type             X           Y           Z
 ---------------------------------------------------------------------
      1          6           0        1.177904   -0.011808    0.004713
      2          6           0       -0.270363    0.004230   -0.019630
      3          7           0       -1.432084   -0.001176    0.008555
      4          1           0        1.529718    0.961198   -0.316735
      5          1           0        1.538975   -0.738685   -0.638423
      6          1           0        1.510649   -0.168817    0.984772
 ---------------------------------------------------------------------

 SCF Done:  E(RB2PLYPD3) =  -132.532443037     A.U. after   11 cycles
 E2(B2PLYPD3) =    -0.1806829800D+00 E(B2PLYPD3) =    -0.13271312601718D+03

 The electronic state is 1-A.
 Alpha  occ. eigenvalues --  -14.84313 -10.66346 -10.66012  -1.03809  -0.90256
 Alpha  occ. eigenvalues --   -0.60084  -0.55603  -0.54271  -0.44756  -0.38974
 Alpha  occ. eigenvalues --   -0.38780
 Alpha virt. eigenvalues --    0.03913   0.08055   0.08330   0.10166   0.11213
 Alpha virt. eigenvalues --    0.11444   0.15513   0.16000   0.16417   0.20123
 Alpha virt. eigenvalues --    0.20177   0.25506   0.32920   0.34649   0.35537

 Mulliken charges:
               1
     1  C   -0.074043
     2  C   -0.001377
     3  N   -0.211588
     4  H    0.092475
     5  H    0.097459
     6  H    0.097075
 Sum of Mulliken charges =   0.00000

 Dipole moment (field-independent basis, Debye):
    X=              4.1436    Y=              0.0071    Z=             -0.0071  Tot=              4.1437
 Quadrupole moment (field-independent basis, Debye-Ang):
   XX=            -20.9840   YY=            -17.7168   ZZ=            -17.6894
   XY=              0.0055   XZ=              0.0336   YZ=              0.0351

 Normal termination of Gaussian 09 at Thu Aug 27 00:04:00 2020.
