 Gaussian 09, Revision D.01,
 Gaussian 09:  ES64L-G09RevD.01 24-Apr-2013

 --------------------
 #p B2PLYPD3/Def2QZVP
 --------------------

 ------------
 cyanomethane
 ------------
 Symbolic Z-matrix:
 Charge =  0 Multiplicity = 1

                         Standard orientation:
 ---------------------------------------------------------------------
 Center     Atomic      Atomic             Coordinates (Angstroms)
 Number     Number       Type             X           Y           Z
 ---------------------------------------------------------------------
      1          6           0        1.164776    0.041327    0.002885
      2          6           0       -0.276934    0.026413    0.038549
      3          7           0       -1.423902   -0.025063   -0.024019
      4          1           0        1.469030    1.059707   -0.095463
      5          1           0        1.629811   -0.701151   -0.886740
      6          1           0        1.541418   -0.589550    0.901728
 ---------------------------------------------------------------------

 SCF Done:  E(RB2PLYPD3) =  -132.513611667     A.U. after   12 cycles
 E2(B2PLYPD3) =    -0.1814430617D+00 E(B2PLYPD3) =    -0.13269505472889D+03

 The electronic state is 1-A.
 Alpha  occ. eigenvalues --  -14.84044 -10.68952 -10.66028  -1.04351  -0.88383
 Alpha  occ. eigenvalues --   -0.58678  -0.55848  -0.49802  -0.44773  -0.39325
 Alpha  occ. eigenvalues --   -0.38206
 Alpha virt. eigenvalues --    0.02909   0.06028   0.08101   0.10094   0.11178
 Alpha virt. eigenvalues --    0.12324   0.15139   0.15834   0.16848   0.19848
 Alpha virt. eigenvalues --    0.20251   0.25566   0.30987   0.32280   0.35224

 Mulliken charges:
               1
     1  C   -0.108263
     2  C    0.002429
     3  N   -0.202037
     4  H    0.118877
     5  H    0.089995
     6  H    0.099000
 Sum of Mulliken charges =   0.00000

 Dipole moment (field-independent basis, Debye):
    X=              4.0586    Y=             -0.0083    Z=              0.0603  Tot=              4.0590
 Quadrupole moment (field-independent basis, Debye-Ang):
   XX=            -21.3351   YY=            -17.3426   ZZ=            -18.1958
   XY=             -0.3870   XZ=             -0.1523   YZ=             -0.1281

 Normal termination of Gaussian 09 at Wed Aug 26 18:51:49 2020.
