 Gaussian 09, Revision D.01,
 Gaussian 09:  ES64L-G09RevD.01 24-Apr-2013

 --------------------
 #p B2PLYPD3/Def2QZVP
 --------------------

 ------------
 cyanomethane
 ------------
 Symbolic Z-matrix:
 Charge =  0 Multiplicity = 1

                         Standard orientation:
 ---------------------------------------------------------------------
 Center     Atomic      Atomic             Coordinates (Angstroms)
 Number     Number       Type             X           Y           Z
 ---------------------------------------------------------------------
      1          6           0       -1.201055   -0.007126   -0.007077
      2          6           0        0.267002   -0.018525    0.067606
      3          7           0        1.455722    0.014498   -0.036392
      4          1           0       -1.487286   -0.148072    0.898334
      5          1           0       -1.505051   -0.794142   -0.640262
      6          1           0       -1.593405    0.994638   -0.366501
 ---------------------------------------------------------------------

 SCF Done:  E(RB2PLYPD3) =  -132.512503001     A.U. after   12 cycles
 E2(B2PLYPD3) =    -0.1837315746D+00 E(B2PLYPD3) =    -0.13269623457514D+03

 The electronic state is 1-A.
 Alpha  occ. eigenvalues --  -14.85290 -10.67374 -10.66128  -1.02591  -0.90424
 Alpha  occ. eigenvalues --   -0.59725  -0.56522  -0.53757  -0.44856  -0.38334
 Alpha  occ. eigenvalues --   -0.38173
 Alpha virt. eigenvalues --    0.03412   0.06942   0.08485   0.10100   0.10803
 Alpha virt. eigenvalues --    0.11037   0.15062   0.15422   0.16821   0.20194
 Alpha virt. eigenvalues --    0.20323   0.25326   0.32244   0.34132   0.35410

 Mulliken charges:
               1
     1  C   -0.089047
     2  C    0.004914
     3  N   -0.223326
     4  H    0.108667
     5  H    0.102188
     6  H    0.096604
 Sum of Mulliken charges =   0.00000

 Dipole moment (field-independent basis, Debye):
    X=             -4.1745    Y=             -0.0350    Z=              0.0719  Tot=              4.1752
 Quadrupole moment (field-independent basis, Debye-Ang):
   XX=            -21.0153   YY=            -17.7038   ZZ=            -17.9013
   XY=             -0.1046   XZ=              0.1244   YZ=              0.0411

 Normal termination of Gaussian 09 at Wed Aug 26 22:30:20 2020.
