 Gaussian 09, Revision D.01,
 Gaussian 09:  ES64L-G09RevD.01 24-Apr-2013

 --------------------
 #p B2PLYPD3/Def2QZVP
 --------------------

 ------------
 cyanomethane
 ------------
 Symbolic Z-matrix:
 Charge =  0 Multiplicity = 1

                         Standard orientation:
 ---------------------------------------------------------------------
 Center     Atomic      Atomic             Coordinates (Angstroms)
 Number     Number       Type             X           Y           Z
 ---------------------------------------------------------------------
      1          6           0        1.151004   -0.011224    0.013704
      2          6           0       -0.263227    0.039714   -0.039134
      3          7           0       -1.429370   -0.015493    0.016814
      4          1           0        1.610952    1.106139   -0.091500
      5          1           0        1.553377   -0.688957   -0.830937
      6          1           0        1.514597   -0.479671    0.957316
 ---------------------------------------------------------------------

 SCF Done:  E(RB2PLYPD3) =  -132.520336382     A.U. after   12 cycles
 E2(B2PLYPD3) =    -0.1828812195D+00 E(B2PLYPD3) =    -0.13270321760120D+03

 The electronic state is 1-A.
 Alpha  occ. eigenvalues --  -14.84632 -10.68793 -10.66562  -1.03719  -0.88653
 Alpha  occ. eigenvalues --   -0.59784  -0.52744  -0.52334  -0.44959  -0.38375
 Alpha  occ. eigenvalues --   -0.38314
 Alpha virt. eigenvalues --    0.03301   0.06199   0.06619   0.09958   0.11620
 Alpha virt. eigenvalues --    0.11804   0.15495   0.16062   0.16413   0.20064
 Alpha virt. eigenvalues --    0.20212   0.26134   0.31326   0.33188   0.34223

 Mulliken charges:
               1
     1  C   -0.106084
     2  C    0.009283
     3  N   -0.210782
     4  H    0.098998
     5  H    0.101208
     6  H    0.107377
 Sum of Mulliken charges =   0.00000

 Dipole moment (field-independent basis, Debye):
    X=              4.0806    Y=             -0.0317    Z=             -0.0010  Tot=              4.0807
 Quadrupole moment (field-independent basis, Debye-Ang):
   XX=            -21.2330   YY=            -17.6688   ZZ=            -17.9874
   XY=             -0.1340   XZ=              0.0992   YZ=             -0.0146

 Normal termination of Gaussian 09 at Wed Aug 26 21:30:03 2020.
