 Gaussian 09, Revision D.01,
 Gaussian 09:  ES64L-G09RevD.01 24-Apr-2013

 --------------------
 #p B2PLYPD3/Def2QZVP
 --------------------

 ------------
 cyanomethane
 ------------
 Symbolic Z-matrix:
 Charge =  0 Multiplicity = 1

                         Standard orientation:
 ---------------------------------------------------------------------
 Center     Atomic      Atomic             Coordinates (Angstroms)
 Number     Number       Type             X           Y           Z
 ---------------------------------------------------------------------
      1          6           0        1.204449    0.002432   -0.005333
      2          6           0       -0.288124   -0.058786    0.016320
      3          7           0       -1.438982    0.035791   -0.020979
      4          1           0        1.656752    1.030321   -0.397882
      5          1           0        1.572320   -0.869360   -0.573088
      6          1           0        1.345852   -0.073376    1.051904
 ---------------------------------------------------------------------

 SCF Done:  E(RB2PLYPD3) =  -132.520825906     A.U. after   13 cycles
 E2(B2PLYPD3) =    -0.1813870651D+00 E(B2PLYPD3) =    -0.13270221297111D+03

 The electronic state is 1-A.
 Alpha  occ. eigenvalues --  -14.84151 -10.68453 -10.66318  -1.03975  -0.88343
 Alpha  occ. eigenvalues --   -0.57835  -0.54656  -0.52185  -0.44597  -0.39128
 Alpha  occ. eigenvalues --   -0.38820
 Alpha virt. eigenvalues --    0.03141   0.07040   0.08877   0.10168   0.11151
 Alpha virt. eigenvalues --    0.11409   0.14708   0.15048   0.17182   0.20089
 Alpha virt. eigenvalues --    0.20159   0.24930   0.31614   0.33435   0.34666

 Mulliken charges:
               1
     1  C   -0.115094
     2  C   -0.001093
     3  N   -0.205854
     4  H    0.102234
     5  H    0.108577
     6  H    0.111230
 Sum of Mulliken charges =   0.00000

 Dipole moment (field-independent basis, Debye):
    X=              4.0935    Y=             -0.0583    Z=              0.0695  Tot=              4.0945
 Quadrupole moment (field-independent basis, Debye-Ang):
   XX=            -21.3702   YY=            -17.6418   ZZ=            -17.8345
   XY=              0.2680   XZ=             -0.2634   YZ=              0.0655

 Normal termination of Gaussian 09 at Wed Aug 26 19:02:46 2020.
