 Gaussian 09, Revision D.01,
 Gaussian 09:  ES64L-G09RevD.01 24-Apr-2013

 --------------------
 #p B2PLYPD3/Def2QZVP
 --------------------

 ------------
 cyanomethane
 ------------
 Symbolic Z-matrix:
 Charge =  0 Multiplicity = 1

                         Standard orientation:
 ---------------------------------------------------------------------
 Center     Atomic      Atomic             Coordinates (Angstroms)
 Number     Number       Type             X           Y           Z
 ---------------------------------------------------------------------
      1          6           0        1.170223   -0.003643   -0.001778
      2          6           0       -0.279626   -0.014462   -0.003305
      3          7           0       -1.430774    0.008448   -0.001473
      4          1           0        1.573726    1.008148   -0.202443
      5          1           0        1.589164   -0.673959   -0.701607
      6          1           0        1.508942   -0.284698    0.944863
 ---------------------------------------------------------------------

 SCF Done:  E(RB2PLYPD3) =  -132.533734230     A.U. after   12 cycles
 E2(B2PLYPD3) =    -0.1799734632D+00 E(B2PLYPD3) =    -0.13271370769371D+03

 The electronic state is 1-A.
 Alpha  occ. eigenvalues --  -14.84140 -10.66369 -10.66171  -1.04296  -0.89799
 Alpha  occ. eigenvalues --   -0.60488  -0.54641  -0.53705  -0.44840  -0.39242
 Alpha  occ. eigenvalues --   -0.39122
 Alpha virt. eigenvalues --    0.03828   0.07837   0.08409   0.10189   0.11432
 Alpha virt. eigenvalues --    0.11573   0.15554   0.16208   0.16887   0.20071
 Alpha virt. eigenvalues --    0.20105   0.25506   0.32937   0.34625   0.35333

 Mulliken charges:
               1
     1  C   -0.070235
     2  C   -0.000447
     3  N   -0.204944
     4  H    0.090524
     5  H    0.092287
     6  H    0.092814
 Sum of Mulliken charges =   0.00000

 Dipole moment (field-independent basis, Debye):
    X=              4.1345    Y=             -0.0265    Z=              0.0237  Tot=              4.1347
 Quadrupole moment (field-independent basis, Debye-Ang):
   XX=            -20.8081   YY=            -17.7017   ZZ=            -17.7965
   XY=              0.0242   XZ=             -0.0159   YZ=              0.0136

 Normal termination of Gaussian 09 at Thu Aug 27 00:10:12 2020.
