 Gaussian 09, Revision D.01,
 Gaussian 09:  ES64L-G09RevD.01 24-Apr-2013

 --------------------
 #p B2PLYPD3/Def2QZVP
 --------------------

 ------------
 cyanomethane
 ------------
 Symbolic Z-matrix:
 Charge =  0 Multiplicity = 1

                         Standard orientation:
 ---------------------------------------------------------------------
 Center     Atomic      Atomic             Coordinates (Angstroms)
 Number     Number       Type             X           Y           Z
 ---------------------------------------------------------------------
      1          6           0        1.184751    0.010911    0.001533
      2          6           0       -0.275910   -0.002605   -0.020560
      3          7           0       -1.437975   -0.001182    0.008360
      4          1           0        1.521929    1.026829   -0.093600
      5          1           0        1.572908   -0.632681   -0.816304
      6          1           0        1.517942   -0.435712    0.965548
 ---------------------------------------------------------------------

 SCF Done:  E(RB2PLYPD3) =  -132.533641759     A.U. after   12 cycles
 E2(B2PLYPD3) =    -0.1812760088D+00 E(B2PLYPD3) =    -0.13271491776775D+03

 The electronic state is 1-A.
 Alpha  occ. eigenvalues --  -14.84349 -10.67535 -10.66438  -1.03750  -0.89037
 Alpha  occ. eigenvalues --   -0.59171  -0.54631  -0.53231  -0.44735  -0.38914
 Alpha  occ. eigenvalues --   -0.38717
 Alpha virt. eigenvalues --    0.03675   0.07568   0.07941   0.10168   0.11228
 Alpha virt. eigenvalues --    0.11487   0.15265   0.16001   0.16214   0.20093
 Alpha virt. eigenvalues --    0.20160   0.25262   0.32464   0.33927   0.34846

 Mulliken charges:
               1
     1  C   -0.093964
     2  C   -0.000793
     3  N   -0.210211
     4  H    0.105431
     5  H    0.099211
     6  H    0.100327
 Sum of Mulliken charges =   0.00000

 Dipole moment (field-independent basis, Debye):
    X=              4.1296    Y=             -0.0048    Z=             -0.0043  Tot=              4.1296
 Quadrupole moment (field-independent basis, Debye-Ang):
   XX=            -21.1799   YY=            -17.6782   ZZ=            -17.8200
   XY=             -0.0511   XZ=              0.0221   YZ=             -0.0076

 Normal termination of Gaussian 09 at Thu Aug 27 00:07:58 2020.
