 Gaussian 09, Revision D.01,
 Gaussian 09:  ES64L-G09RevD.01 24-Apr-2013

 --------------------
 #p B2PLYPD3/Def2QZVP
 --------------------

 ------------
 cyanomethane
 ------------
 Symbolic Z-matrix:
 Charge =  0 Multiplicity = 1

                         Standard orientation:
 ---------------------------------------------------------------------
 Center     Atomic      Atomic             Coordinates (Angstroms)
 Number     Number       Type             X           Y           Z
 ---------------------------------------------------------------------
      1          6           0        1.184349   -0.008245   -0.009582
      2          6           0       -0.279042    0.029207   -0.042664
      3          7           0       -1.429723   -0.008243    0.033106
      4          1           0        1.644998   -0.268311    0.933604
      5          1           0        1.566663    0.955571   -0.224462
      6          1           0        1.364564   -0.755326   -0.627408
 ---------------------------------------------------------------------

 SCF Done:  E(RB2PLYPD3) =  -132.520953768     A.U. after   12 cycles
 E2(B2PLYPD3) =    -0.1801560990D+00 E(B2PLYPD3) =    -0.13270110986719D+03

 The electronic state is 1-A.
 Alpha  occ. eigenvalues --  -14.84141 -10.66186 -10.65707  -1.04166  -0.90485
 Alpha  occ. eigenvalues --   -0.60111  -0.57324  -0.52586  -0.44735  -0.39332
 Alpha  occ. eigenvalues --   -0.38931
 Alpha virt. eigenvalues --    0.03815   0.07599   0.09270   0.10199   0.11010
 Alpha virt. eigenvalues --    0.11668   0.15353   0.15797   0.17035   0.20012
 Alpha virt. eigenvalues --    0.20226   0.25365   0.32890   0.34385   0.36258

 Mulliken charges:
               1
     1  C   -0.078675
     2  C   -0.000930
     3  N   -0.207064
     4  H    0.084013
     5  H    0.096780
     6  H    0.105876
 Sum of Mulliken charges =   0.00000

 Dipole moment (field-independent basis, Debye):
    X=              4.1241    Y=             -0.0064    Z=             -0.0240  Tot=              4.1242
 Quadrupole moment (field-independent basis, Debye-Ang):
   XX=            -20.8829   YY=            -17.4749   ZZ=            -17.9310
   XY=              0.0260   XZ=              0.4145   YZ=              0.1066

 Normal termination of Gaussian 09 at Wed Aug 26 22:28:39 2020.
