 Gaussian 09, Revision D.01,
 Gaussian 09:  ES64L-G09RevD.01 24-Apr-2013

 --------------------
 #p B2PLYPD3/Def2QZVP
 --------------------

 ------------
 cyanomethane
 ------------
 Symbolic Z-matrix:
 Charge =  0 Multiplicity = 1

                         Standard orientation:
 ---------------------------------------------------------------------
 Center     Atomic      Atomic             Coordinates (Angstroms)
 Number     Number       Type             X           Y           Z
 ---------------------------------------------------------------------
      1          6           0       -1.166800   -0.000673   -0.006105
      2          6           0        0.277923   -0.004658   -0.004454
      3          7           0        1.430567    0.002963    0.001278
      4          1           0       -1.565992    1.036528    0.021966
      5          1           0       -1.536359   -0.516245    0.892669
      6          1           0       -1.578355   -0.509040   -0.860230
 ---------------------------------------------------------------------

 SCF Done:  E(RB2PLYPD3) =  -132.535123655     A.U. after   11 cycles
 E2(B2PLYPD3) =    -0.1804082683D+00 E(B2PLYPD3) =    -0.13271553192336D+03

 The electronic state is 1-A.
 Alpha  occ. eigenvalues --  -14.84171 -10.67157 -10.66199  -1.04247  -0.89258
 Alpha  occ. eigenvalues --   -0.60168  -0.53948  -0.53368  -0.44846  -0.39121
 Alpha  occ. eigenvalues --   -0.38988
 Alpha virt. eigenvalues --    0.03734   0.07634   0.07874   0.10155   0.11509
 Alpha virt. eigenvalues --    0.11653   0.15515   0.16263   0.16696   0.20074
 Alpha virt. eigenvalues --    0.20102   0.25581   0.32837   0.34248   0.34837

 Mulliken charges:
               1
     1  C   -0.080607
     2  C   -0.000042
     3  N   -0.204880
     4  H    0.094823
     5  H    0.094103
     6  H    0.096603
 Sum of Mulliken charges =   0.00000

 Dipole moment (field-independent basis, Debye):
    X=             -4.1233    Y=             -0.0144    Z=              0.0045  Tot=              4.1233
 Quadrupole moment (field-independent basis, Debye-Ang):
   XX=            -20.9245   YY=            -17.7420   ZZ=            -17.7990
   XY=             -0.0008   XZ=              0.0053   YZ=              0.0218

 Normal termination of Gaussian 09 at Thu Aug 27 00:03:59 2020.
