 Gaussian 09, Revision D.01,
 Gaussian 09:  ES64L-G09RevD.01 24-Apr-2013

 --------------------
 #p B2PLYPD3/Def2QZVP
 --------------------

 ------------
 cyanomethane
 ------------
 Symbolic Z-matrix:
 Charge =  0 Multiplicity = 1

                         Standard orientation:
 ---------------------------------------------------------------------
 Center     Atomic      Atomic             Coordinates (Angstroms)
 Number     Number       Type             X           Y           Z
 ---------------------------------------------------------------------
      1          6           0        1.182944   -0.011946   -0.014091
      2          6           0       -0.275772   -0.022738   -0.049765
      3          7           0       -1.456251    0.011781    0.017925
      4          1           0        1.607380    1.001671   -0.188154
      5          1           0        1.703688   -0.687895   -0.526384
      6          1           0        1.439657   -0.188137    0.972196
 ---------------------------------------------------------------------

 SCF Done:  E(RB2PLYPD3) =  -132.518993662     A.U. after   13 cycles
 E2(B2PLYPD3) =    -0.1828038616D+00 E(B2PLYPD3) =    -0.13270179752353D+03

 The electronic state is 1-A.
 Alpha  occ. eigenvalues --  -14.85171 -10.67413 -10.65915  -1.03148  -0.90337
 Alpha  occ. eigenvalues --   -0.62014  -0.55021  -0.53177  -0.45085  -0.38769
 Alpha  occ. eigenvalues --   -0.38356
 Alpha virt. eigenvalues --    0.03706   0.07235   0.07873   0.10213   0.10968
 Alpha virt. eigenvalues --    0.11538   0.15329   0.15811   0.17809   0.20236
 Alpha virt. eigenvalues --    0.20337   0.25322   0.32240   0.34383   0.35678

 Mulliken charges:
               1
     1  C   -0.056129
     2  C    0.014895
     3  N   -0.219105
     4  H    0.084789
     5  H    0.089000
     6  H    0.086550
 Sum of Mulliken charges =   0.00000

 Dipole moment (field-independent basis, Debye):
    X=              4.2100    Y=             -0.0335    Z=              0.0642  Tot=              4.2107
 Quadrupole moment (field-independent basis, Debye-Ang):
   XX=            -20.5167   YY=            -17.7866   ZZ=            -18.0719
   XY=             -0.0003   XZ=              0.1377   YZ=              0.0518

 Normal termination of Gaussian 09 at Wed Aug 26 21:50:37 2020.
