 Gaussian 09, Revision D.01,
 Gaussian 09:  ES64L-G09RevD.01 24-Apr-2013

 --------------------
 #p B2PLYPD3/Def2QZVP
 --------------------

 ------------
 cyanomethane
 ------------
 Symbolic Z-matrix:
 Charge =  0 Multiplicity = 1

                         Standard orientation:
 ---------------------------------------------------------------------
 Center     Atomic      Atomic             Coordinates (Angstroms)
 Number     Number       Type             X           Y           Z
 ---------------------------------------------------------------------
      1          6           0       -1.212917    0.004433    0.035668
      2          6           0        0.271628   -0.073271   -0.016563
      3          7           0        1.448349    0.030194   -0.003686
      4          1           0       -1.382953   -0.076248    0.954599
      5          1           0       -1.650325   -0.752456   -0.639684
      6          1           0       -1.457424    1.030371   -0.403738
 ---------------------------------------------------------------------

 SCF Done:  E(RB2PLYPD3) =  -132.507124113     A.U. after   12 cycles
 E2(B2PLYPD3) =    -0.1828155974D+00 E(B2PLYPD3) =    -0.13268993971061D+03

 The electronic state is 1-A.
 Alpha  occ. eigenvalues --  -14.84796 -10.66948 -10.66751  -1.02953  -0.90115
 Alpha  occ. eigenvalues --   -0.58779  -0.57507  -0.52750  -0.44605  -0.38694
 Alpha  occ. eigenvalues --   -0.38209
 Alpha virt. eigenvalues --    0.03510   0.07258   0.08773   0.10174   0.10688
 Alpha virt. eigenvalues --    0.11119   0.14941   0.15525   0.15899   0.20126
 Alpha virt. eigenvalues --    0.20231   0.24957   0.31876   0.32972   0.35718

 Mulliken charges:
               1
     1  C   -0.112149
     2  C    0.000145
     3  N   -0.220606
     4  H    0.126795
     5  H    0.102453
     6  H    0.103363
 Sum of Mulliken charges =   0.00000

 Dipole moment (field-independent basis, Debye):
    X=             -4.1455    Y=             -0.0217    Z=             -0.0113  Tot=              4.1456
 Quadrupole moment (field-independent basis, Debye-Ang):
   XX=            -21.3036   YY=            -17.7981   ZZ=            -17.6671
   XY=             -0.0445   XZ=              0.2139   YZ=             -0.0171

 Normal termination of Gaussian 09 at Wed Aug 26 21:28:09 2020.
