 Gaussian 09, Revision D.01,
 Gaussian 09:  ES64L-G09RevD.01 24-Apr-2013

 --------------------
 #p B2PLYPD3/Def2QZVP
 --------------------

 ------------
 cyanomethane
 ------------
 Symbolic Z-matrix:
 Charge =  0 Multiplicity = 1

                         Standard orientation:
 ---------------------------------------------------------------------
 Center     Atomic      Atomic             Coordinates (Angstroms)
 Number     Number       Type             X           Y           Z
 ---------------------------------------------------------------------
      1          6           0       -1.187004   -0.009750   -0.006854
      2          6           0        0.285351    0.021551    0.002850
      3          7           0        1.432885   -0.009144   -0.000150
      4          1           0       -1.548738   -0.021693    1.019779
      5          1           0       -1.521463   -0.877902   -0.513591
      6          1           0       -1.550083    0.892796   -0.481117
 ---------------------------------------------------------------------

 SCF Done:  E(RB2PLYPD3) =  -132.535644734     A.U. after   11 cycles
 E2(B2PLYPD3) =    -0.1797254163D+00 E(B2PLYPD3) =    -0.13271537015069D+03

 The electronic state is 1-A.
 Alpha  occ. eigenvalues --  -14.83964 -10.66884 -10.66046  -1.04314  -0.89261
 Alpha  occ. eigenvalues --   -0.59288  -0.54762  -0.53753  -0.44690  -0.39353
 Alpha  occ. eigenvalues --   -0.39218
 Alpha virt. eigenvalues --    0.03817   0.08241   0.08380   0.10219   0.11351
 Alpha virt. eigenvalues --    0.11494   0.15313   0.16095   0.16478   0.20031
 Alpha virt. eigenvalues --    0.20084   0.25091   0.32727   0.34519   0.35185

 Mulliken charges:
               1
     1  C   -0.085058
     2  C   -0.004793
     3  N   -0.203191
     4  H    0.095230
     5  H    0.100943
     6  H    0.096869
 Sum of Mulliken charges =   0.00000

 Dipole moment (field-independent basis, Debye):
    X=             -4.1228    Y=              0.0139    Z=              0.0068  Tot=              4.1228
 Quadrupole moment (field-independent basis, Debye-Ang):
   XX=            -21.0387   YY=            -17.6545   ZZ=            -17.7497
   XY=              0.0275   XZ=             -0.0286   YZ=              0.0234

 Normal termination of Gaussian 09 at Thu Aug 27 00:05:10 2020.
