 Gaussian 09, Revision D.01,
 Gaussian 09:  ES64L-G09RevD.01 24-Apr-2013

 --------------------
 #p B2PLYPD3/Def2QZVP
 --------------------

 ------------
 cyanomethane
 ------------
 Symbolic Z-matrix:
 Charge =  0 Multiplicity = 1

                         Standard orientation:
 ---------------------------------------------------------------------
 Center     Atomic      Atomic             Coordinates (Angstroms)
 Number     Number       Type             X           Y           Z
 ---------------------------------------------------------------------
      1          6           0        1.176600    0.012096   -0.005985
      2          6           0       -0.281906   -0.041186   -0.000310
      3          7           0       -1.424164    0.022105    0.003093
      4          1           0        1.564503   -0.006596    1.030662
      5          1           0        1.537250    0.948156   -0.496538
      6          1           0        1.499233   -0.921753   -0.518005
 ---------------------------------------------------------------------

 SCF Done:  E(RB2PLYPD3) =  -132.533287934     A.U. after   12 cycles
 E2(B2PLYPD3) =    -0.1799249963D+00 E(B2PLYPD3) =    -0.13271321293003D+03

 The electronic state is 1-A.
 Alpha  occ. eigenvalues --  -14.83819 -10.67801 -10.65851  -1.04492  -0.88714
 Alpha  occ. eigenvalues --   -0.58923  -0.54066  -0.53069  -0.44672  -0.39263
 Alpha  occ. eigenvalues --   -0.39134
 Alpha virt. eigenvalues --    0.03601   0.07677   0.08135   0.10145   0.11528
 Alpha virt. eigenvalues --    0.11723   0.15276   0.15754   0.16707   0.19980
 Alpha virt. eigenvalues --    0.20105   0.25432   0.32696   0.33934   0.34414

 Mulliken charges:
               1
     1  C   -0.101257
     2  C   -0.002646
     3  N   -0.200782
     4  H    0.098336
     5  H    0.104596
     6  H    0.101753
 Sum of Mulliken charges =   0.00000

 Dipole moment (field-independent basis, Debye):
    X=              4.0807    Y=             -0.0348    Z=              0.0168  Tot=              4.0808
 Quadrupole moment (field-independent basis, Debye-Ang):
   XX=            -21.2289   YY=            -17.5519   ZZ=            -17.8273
   XY=              0.1512   XZ=              0.1135   YZ=             -0.0041

 Normal termination of Gaussian 09 at Wed Aug 26 14:36:47 2020.
