 Gaussian 09, Revision D.01,
 Gaussian 09:  ES64L-G09RevD.01 24-Apr-2013

 --------------------
 #p B2PLYPD3/Def2QZVP
 --------------------

 ------------
 cyanomethane
 ------------
 Symbolic Z-matrix:
 Charge =  0 Multiplicity = 1

                         Standard orientation:
 ---------------------------------------------------------------------
 Center     Atomic      Atomic             Coordinates (Angstroms)
 Number     Number       Type             X           Y           Z
 ---------------------------------------------------------------------
      1          6           0        1.169180   -0.001633    0.000567
      2          6           0       -0.278711   -0.003306    0.008944
      3          7           0       -1.430308    0.003111   -0.007196
      4          1           0        1.580619    0.996452   -0.256123
      5          1           0        1.569099   -0.720451   -0.712868
      6          1           0        1.519623   -0.268143    0.962294
 ---------------------------------------------------------------------

 SCF Done:  E(RB2PLYPD3) =  -132.534974632     A.U. after   12 cycles
 E2(B2PLYPD3) =    -0.1801885514D+00 E(B2PLYPD3) =    -0.13271516318292D+03

 The electronic state is 1-A.
 Alpha  occ. eigenvalues --  -14.84136 -10.66862 -10.66162  -1.04273  -0.89458
 Alpha  occ. eigenvalues --   -0.60150  -0.54306  -0.53506  -0.44827  -0.39143
 Alpha  occ. eigenvalues --   -0.39090
 Alpha virt. eigenvalues --    0.03772   0.07651   0.08209   0.10169   0.11496
 Alpha virt. eigenvalues --    0.11587   0.15524   0.16196   0.16750   0.20071
 Alpha virt. eigenvalues --    0.20102   0.25534   0.32865   0.34549   0.34900

 Mulliken charges:
               1
     1  C   -0.078044
     2  C   -0.000914
     3  N   -0.204718
     4  H    0.093439
     5  H    0.094165
     6  H    0.096072
 Sum of Mulliken charges =   0.00000

 Dipole moment (field-independent basis, Debye):
    X=              4.1254    Y=             -0.0154    Z=              0.0234  Tot=              4.1255
 Quadrupole moment (field-independent basis, Debye-Ang):
   XX=            -20.9030   YY=            -17.7292   ZZ=            -17.7778
   XY=              0.0132   XZ=             -0.0532   YZ=             -0.0055

 Normal termination of Gaussian 09 at Wed Aug 26 18:22:42 2020.
