 Gaussian 09, Revision D.01,
 Gaussian 09:  ES64L-G09RevD.01 24-Apr-2013

 --------------------
 #p B2PLYPD3/Def2QZVP
 --------------------

 ------------
 cyanomethane
 ------------
 Symbolic Z-matrix:
 Charge =  0 Multiplicity = 1

                         Standard orientation:
 ---------------------------------------------------------------------
 Center     Atomic      Atomic             Coordinates (Angstroms)
 Number     Number       Type             X           Y           Z
 ---------------------------------------------------------------------
      1          6           0        1.178852    0.000896    0.001507
      2          6           0       -0.279029    0.006851   -0.015823
      3          7           0       -1.427385   -0.002583    0.013461
      4          1           0        1.596869   -0.305747    0.957400
      5          1           0        1.528290    0.997349   -0.233921
      6          1           0        1.467591   -0.720009   -0.731809
 ---------------------------------------------------------------------

 SCF Done:  E(RB2PLYPD3) =  -132.534872441     A.U. after   12 cycles
 E2(B2PLYPD3) =    -0.1798565567D+00 E(B2PLYPD3) =    -0.13271472899730D+03

 The electronic state is 1-A.
 Alpha  occ. eigenvalues --  -14.83944 -10.66805 -10.65991  -1.04304  -0.89508
 Alpha  occ. eigenvalues --   -0.59491  -0.54926  -0.53649  -0.44689  -0.39216
 Alpha  occ. eigenvalues --   -0.39124
 Alpha virt. eigenvalues --    0.03812   0.07902   0.08528   0.10191   0.11419
 Alpha virt. eigenvalues --    0.11580   0.15399   0.15811   0.16713   0.20054
 Alpha virt. eigenvalues --    0.20120   0.25346   0.32879   0.34639   0.34883

 Mulliken charges:
               1
     1  C   -0.087392
     2  C   -0.003538
     3  N   -0.204249
     4  H    0.095472
     5  H    0.099646
     6  H    0.100062
 Sum of Mulliken charges =   0.00000

 Dipole moment (field-independent basis, Debye):
    X=              4.1141    Y=             -0.0087    Z=             -0.0193  Tot=              4.1141
 Quadrupole moment (field-independent basis, Debye-Ang):
   XX=            -21.0715   YY=            -17.6027   ZZ=            -17.7755
   XY=             -0.0245   XZ=              0.1720   YZ=              0.0188

 Normal termination of Gaussian 09 at Wed Aug 26 23:56:10 2020.
