 Gaussian 09, Revision D.01,
 Gaussian 09:  ES64L-G09RevD.01 24-Apr-2013

 --------------------
 #p B2PLYPD3/Def2QZVP
 --------------------

 ------------
 cyanomethane
 ------------
 Symbolic Z-matrix:
 Charge =  0 Multiplicity = 1

                         Standard orientation:
 ---------------------------------------------------------------------
 Center     Atomic      Atomic             Coordinates (Angstroms)
 Number     Number       Type             X           Y           Z
 ---------------------------------------------------------------------
      1          6           0       -1.174158    0.023969   -0.014760
      2          6           0        0.283948    0.024861   -0.015111
      3          7           0        1.452974   -0.028909    0.014657
      4          1           0       -1.437968    1.044996    0.009164
      5          1           0       -1.755294   -0.546286    0.871867
      6          1           0       -1.636296   -0.589326   -0.804403
 ---------------------------------------------------------------------

 SCF Done:  E(RB2PLYPD3) =  -132.516785733     A.U. after   12 cycles
 E2(B2PLYPD3) =    -0.1828677317D+00 E(B2PLYPD3) =    -0.13269965346446D+03

 The electronic state is 1-A.
 Alpha  occ. eigenvalues --  -14.84919 -10.68046 -10.67049  -1.03652  -0.88723
 Alpha  occ. eigenvalues --   -0.60644  -0.55571  -0.49758  -0.45082  -0.39027
 Alpha  occ. eigenvalues --   -0.38234
 Alpha virt. eigenvalues --    0.03163   0.05999   0.07938   0.10017   0.10874
 Alpha virt. eigenvalues --    0.12023   0.15082   0.16669   0.17085   0.19876
 Alpha virt. eigenvalues --    0.20468   0.25379   0.31497   0.33128   0.35432

 Mulliken charges:
               1
     1  C   -0.075978
     2  C    0.006622
     3  N   -0.210527
     4  H    0.105088
     5  H    0.080386
     6  H    0.094407
 Sum of Mulliken charges =   0.00000

 Dipole moment (field-independent basis, Debye):
    X=             -4.1616    Y=              0.0010    Z=             -0.0412  Tot=              4.1618
 Quadrupole moment (field-independent basis, Debye-Ang):
   XX=            -20.6889   YY=            -17.6082   ZZ=            -18.3926
   XY=              0.4995   XZ=             -0.1242   YZ=              0.1060

 Normal termination of Gaussian 09 at Wed Aug 26 23:51:55 2020.
