 Gaussian 09, Revision D.01,
 Gaussian 09:  ES64L-G09RevD.01 24-Apr-2013

 --------------------
 #p B2PLYPD3/Def2QZVP
 --------------------

 ------------
 cyanomethane
 ------------
 Symbolic Z-matrix:
 Charge =  0 Multiplicity = 1

                         Standard orientation:
 ---------------------------------------------------------------------
 Center     Atomic      Atomic             Coordinates (Angstroms)
 Number     Number       Type             X           Y           Z
 ---------------------------------------------------------------------
      1          6           0        1.187969   -0.009970    0.016636
      2          6           0       -0.281260    0.010066   -0.027574
      3          7           0       -1.435888   -0.004786    0.015134
      4          1           0        1.569352    0.013177    0.995328
      5          1           0        1.515011    0.937677   -0.517673
      6          1           0        1.526602   -0.917932   -0.517971
 ---------------------------------------------------------------------

 SCF Done:  E(RB2PLYPD3) =  -132.531767418     A.U. after   12 cycles
 E2(B2PLYPD3) =    -0.1807183415D+00 E(B2PLYPD3) =    -0.13271248575963D+03

 The electronic state is 1-A.
 Alpha  occ. eigenvalues --  -14.84172 -10.67541 -10.66277  -1.04015  -0.88915
 Alpha  occ. eigenvalues --   -0.59400  -0.54218  -0.53242  -0.44708  -0.39120
 Alpha  occ. eigenvalues --   -0.38898
 Alpha virt. eigenvalues --    0.03682   0.07822   0.07966   0.10119   0.11335
 Alpha virt. eigenvalues --    0.11500   0.15254   0.15682   0.16650   0.20076
 Alpha virt. eigenvalues --    0.20114   0.25173   0.32319   0.33767   0.34871

 Mulliken charges:
               1
     1  C   -0.096323
     2  C   -0.000390
     3  N   -0.206942
     4  H    0.103295
     5  H    0.097665
     6  H    0.102696
 Sum of Mulliken charges =   0.00000

 Dipole moment (field-independent basis, Debye):
    X=              4.1131    Y=              0.0092    Z=             -0.0024  Tot=              4.1131
 Quadrupole moment (field-independent basis, Debye-Ang):
   XX=            -21.1871   YY=            -17.6474   ZZ=            -17.8134
   XY=             -0.0273   XZ=              0.1695   YZ=              0.0356

 Normal termination of Gaussian 09 at Wed Aug 26 14:18:34 2020.
