 Gaussian 09, Revision D.01,
 Gaussian 09:  ES64L-G09RevD.01 24-Apr-2013

 --------------------
 #p B2PLYPD3/Def2QZVP
 --------------------

 ------------
 cyanomethane
 ------------
 Symbolic Z-matrix:
 Charge =  0 Multiplicity = 1

                         Standard orientation:
 ---------------------------------------------------------------------
 Center     Atomic      Atomic             Coordinates (Angstroms)
 Number     Number       Type             X           Y           Z
 ---------------------------------------------------------------------
      1          6           0        1.188198   -0.015803    0.012401
      2          6           0       -0.273947    0.029651    0.000368
      3          7           0       -1.440035   -0.013836   -0.003124
      4          1           0        1.536803    1.023026   -0.228393
      5          1           0        1.548317   -0.688962   -0.786848
      6          1           0        1.509617   -0.320300    0.960499
 ---------------------------------------------------------------------

 SCF Done:  E(RB2PLYPD3) =  -132.531643178     A.U. after   12 cycles
 E2(B2PLYPD3) =    -0.1815951745D+00 E(B2PLYPD3) =    -0.13271323835297D+03

 The electronic state is 1-A.
 Alpha  occ. eigenvalues --  -14.84465 -10.67320 -10.66556  -1.03567  -0.89250
 Alpha  occ. eigenvalues --   -0.59253  -0.55088  -0.53223  -0.44734  -0.38858
 Alpha  occ. eigenvalues --   -0.38588
 Alpha virt. eigenvalues --    0.03695   0.07513   0.08047   0.10124   0.11146
 Alpha virt. eigenvalues --    0.11403   0.15275   0.15686   0.16411   0.20124
 Alpha virt. eigenvalues --    0.20173   0.25270   0.32366   0.33820   0.35111

 Mulliken charges:
               1
     1  C   -0.092931
     2  C   -0.000050
     3  N   -0.212679
     4  H    0.097604
     5  H    0.101209
     6  H    0.106847
 Sum of Mulliken charges =   0.00000

 Dipole moment (field-independent basis, Debye):
    X=              4.1336    Y=              0.0176    Z=              0.0019  Tot=              4.1337
 Quadrupole moment (field-independent basis, Debye-Ang):
   XX=            -21.1955   YY=            -17.7904   ZZ=            -17.7034
   XY=             -0.0713   XZ=             -0.0548   YZ=             -0.0262

 Normal termination of Gaussian 09 at Wed Aug 26 14:40:53 2020.
