 Gaussian 09, Revision D.01,
 Gaussian 09:  ES64L-G09RevD.01 24-Apr-2013

 --------------------
 #p B2PLYPD3/Def2QZVP
 --------------------

 ------------
 cyanomethane
 ------------
 Symbolic Z-matrix:
 Charge =  0 Multiplicity = 1

                         Standard orientation:
 ---------------------------------------------------------------------
 Center     Atomic      Atomic             Coordinates (Angstroms)
 Number     Number       Type             X           Y           Z
 ---------------------------------------------------------------------
      1          6           0        1.179156   -0.007439   -0.003145
      2          6           0       -0.278656   -0.006704   -0.002713
      3          7           0       -1.440910    0.007339    0.004273
      4          1           0        1.509724   -0.592483   -0.832714
      5          1           0        1.575479   -0.420364    0.934491
      6          1           0        1.598166    1.046329   -0.096539
 ---------------------------------------------------------------------

 SCF Done:  E(RB2PLYPD3) =  -132.532789995     A.U. after   12 cycles
 E2(B2PLYPD3) =    -0.1813300260D+00 E(B2PLYPD3) =    -0.13271412002085D+03

 The electronic state is 1-A.
 Alpha  occ. eigenvalues --  -14.84456 -10.67512 -10.66543  -1.03825  -0.88998
 Alpha  occ. eigenvalues --   -0.59719  -0.54439  -0.52788  -0.44849  -0.38949
 Alpha  occ. eigenvalues --   -0.38782
 Alpha virt. eigenvalues --    0.03647   0.07240   0.07972   0.10164   0.11278
 Alpha virt. eigenvalues --    0.11524   0.15348   0.16150   0.16528   0.20081
 Alpha virt. eigenvalues --    0.20158   0.25323   0.32410   0.34018   0.34859

 Mulliken charges:
               1
     1  C   -0.085891
     2  C    0.000651
     3  N   -0.209125
     4  H    0.102017
     5  H    0.097795
     6  H    0.094553
 Sum of Mulliken charges =   0.00000

 Dipole moment (field-independent basis, Debye):
    X=              4.1377    Y=             -0.0205    Z=             -0.0057  Tot=              4.1377
 Quadrupole moment (field-independent basis, Debye-Ang):
   XX=            -21.0048   YY=            -17.8171   ZZ=            -17.7911
   XY=              0.0736   XZ=              0.0701   YZ=              0.0388

 Normal termination of Gaussian 09 at Thu Aug 27 00:05:03 2020.
