 Gaussian 09, Revision D.01,
 Gaussian 09:  ES64L-G09RevD.01 24-Apr-2013

 --------------------
 #p B2PLYPD3/Def2QZVP
 --------------------

 ------------
 cyanomethane
 ------------
 Symbolic Z-matrix:
 Charge =  0 Multiplicity = 1

                         Standard orientation:
 ---------------------------------------------------------------------
 Center     Atomic      Atomic             Coordinates (Angstroms)
 Number     Number       Type             X           Y           Z
 ---------------------------------------------------------------------
      1          6           0        1.176638   -0.007284   -0.006490
      2          6           0       -0.281347    0.025605   -0.014326
      3          7           0       -1.426723   -0.007962    0.004748
      4          1           0        1.511621   -0.867510   -0.528385
      5          1           0        1.486356   -0.084590    1.030982
      6          1           0        1.617339    0.897902   -0.410943
 ---------------------------------------------------------------------

 SCF Done:  E(RB2PLYPD3) =  -132.535584106     A.U. after   12 cycles
 E2(B2PLYPD3) =    -0.1795767434D+00 E(B2PLYPD3) =    -0.13271516084958D+03

 The electronic state is 1-A.
 Alpha  occ. eigenvalues --  -14.83896 -10.66721 -10.65947  -1.04433  -0.89491
 Alpha  occ. eigenvalues --   -0.59649  -0.54765  -0.53729  -0.44712  -0.39368
 Alpha  occ. eigenvalues --   -0.39169
 Alpha virt. eigenvalues --    0.03830   0.08137   0.08367   0.10225   0.11413
 Alpha virt. eigenvalues --    0.11657   0.15426   0.16043   0.16674   0.20017
 Alpha virt. eigenvalues --    0.20102   0.25370   0.32873   0.34427   0.35309

 Mulliken charges:
               1
     1  C   -0.083202
     2  C   -0.003579
     3  N   -0.202620
     4  H    0.099418
     5  H    0.094984
     6  H    0.095000
 Sum of Mulliken charges =   0.00000

 Dipole moment (field-independent basis, Debye):
    X=              4.1159    Y=              0.0036    Z=              0.0131  Tot=              4.1160
 Quadrupole moment (field-independent basis, Debye-Ang):
   XX=            -20.9945   YY=            -17.6394   ZZ=            -17.7551
   XY=              0.0189   XZ=              0.0175   YZ=              0.0282

 Normal termination of Gaussian 09 at Wed Aug 26 12:00:22 2020.
