 Gaussian 09, Revision D.01,
 Gaussian 09:  ES64L-G09RevD.01 24-Apr-2013

 --------------------
 #p B2PLYPD3/Def2QZVP
 --------------------

 ------------
 cyanomethane
 ------------
 Symbolic Z-matrix:
 Charge =  0 Multiplicity = 1

                         Standard orientation:
 ---------------------------------------------------------------------
 Center     Atomic      Atomic             Coordinates (Angstroms)
 Number     Number       Type             X           Y           Z
 ---------------------------------------------------------------------
      1          6           0        1.180430   -0.008184   -0.000170
      2          6           0       -0.260408    0.007895   -0.027182
      3          7           0       -1.431251   -0.005521    0.009933
      4          1           0        1.492589    0.946354   -0.339443
      5          1           0        1.557941   -0.779296   -0.579011
      6          1           0        1.448093   -0.126674    1.013032
 ---------------------------------------------------------------------

 SCF Done:  E(RB2PLYPD3) =  -132.530001213     A.U. after   12 cycles
 E2(B2PLYPD3) =    -0.1814633673D+00 E(B2PLYPD3) =    -0.13271146458067D+03

 The electronic state is 1-A.
 Alpha  occ. eigenvalues --  -14.84455 -10.66495 -10.65856  -1.03418  -0.90639
 Alpha  occ. eigenvalues --   -0.59839  -0.55747  -0.55098  -0.44686  -0.38650
 Alpha  occ. eigenvalues --   -0.38470
 Alpha virt. eigenvalues --    0.03927   0.08111   0.08203   0.10139   0.11115
 Alpha virt. eigenvalues --    0.11359   0.15482   0.15606   0.16272   0.20184
 Alpha virt. eigenvalues --    0.20251   0.25608   0.32915   0.34704   0.35416

 Mulliken charges:
               1
     1  C   -0.080282
     2  C   -0.000971
     3  N   -0.217507
     4  H    0.098802
     5  H    0.100000
     6  H    0.099958
 Sum of Mulliken charges =   0.00000

 Dipole moment (field-independent basis, Debye):
    X=              4.1487    Y=              0.0127    Z=              0.0037  Tot=              4.1488
 Quadrupole moment (field-independent basis, Debye-Ang):
   XX=            -21.1406   YY=            -17.6421   ZZ=            -17.7075
   XY=             -0.0560   XZ=              0.0124   YZ=              0.0231

 Normal termination of Gaussian 09 at Wed Aug 26 15:05:09 2020.
