 Gaussian 09, Revision D.01,
 Gaussian 09:  ES64L-G09RevD.01 24-Apr-2013

 --------------------
 #p B2PLYPD3/Def2QZVP
 --------------------

 ------------
 cyanomethane
 ------------
 Symbolic Z-matrix:
 Charge =  0 Multiplicity = 1

                         Standard orientation:
 ---------------------------------------------------------------------
 Center     Atomic      Atomic             Coordinates (Angstroms)
 Number     Number       Type             X           Y           Z
 ---------------------------------------------------------------------
      1          6           0        1.171268    0.025685    0.000338
      2          6           0       -0.269159    0.006796   -0.021141
      3          7           0       -1.425430   -0.011606    0.005200
      4          1           0        1.459769    1.088960   -0.024920
      5          1           0        1.622617   -0.655544   -0.833043
      6          1           0        1.482971   -0.547058    0.946384
 ---------------------------------------------------------------------

 SCF Done:  E(RB2PLYPD3) =  -132.525150083     A.U. after   12 cycles
 E2(B2PLYPD3) =    -0.1814739668D+00 E(B2PLYPD3) =    -0.13270662405002D+03

 The electronic state is 1-A.
 Alpha  occ. eigenvalues --  -14.84078 -10.68495 -10.66120  -1.03980  -0.88727
 Alpha  occ. eigenvalues --   -0.58604  -0.55163  -0.51566  -0.44659  -0.38941
 Alpha  occ. eigenvalues --   -0.38367
 Alpha virt. eigenvalues --    0.03415   0.06768   0.07784   0.10130   0.11302
 Alpha virt. eigenvalues --    0.12035   0.15081   0.15631   0.16473   0.19993
 Alpha virt. eigenvalues --    0.20247   0.25548   0.32033   0.32785   0.34660

 Mulliken charges:
               1
     1  C   -0.110483
     2  C    0.001639
     3  N   -0.208205
     4  H    0.116153
     5  H    0.099061
     6  H    0.101835
 Sum of Mulliken charges =   0.00000

 Dipole moment (field-independent basis, Debye):
    X=              4.0892    Y=             -0.0234    Z=              0.0149  Tot=              4.0893
 Quadrupole moment (field-independent basis, Debye-Ang):
   XX=            -21.4322   YY=            -17.3882   ZZ=            -18.0454
   XY=             -0.2703   XZ=             -0.0191   YZ=             -0.0198

 Normal termination of Gaussian 09 at Wed Aug 26 15:59:45 2020.
