 Gaussian 09, Revision D.01,
 Gaussian 09:  ES64L-G09RevD.01 24-Apr-2013

 --------------------
 #p B2PLYPD3/Def2QZVP
 --------------------

 ------------
 cyanomethane
 ------------
 Symbolic Z-matrix:
 Charge =  0 Multiplicity = 1

                         Standard orientation:
 ---------------------------------------------------------------------
 Center     Atomic      Atomic             Coordinates (Angstroms)
 Number     Number       Type             X           Y           Z
 ---------------------------------------------------------------------
      1          6           0       -1.176345   -0.001218    0.004461
      2          6           0        0.279055    0.018060   -0.008912
      3          7           0        1.440582   -0.011644    0.005733
      4          1           0       -1.531954    0.983598   -0.151471
      5          1           0       -1.598763   -0.372321    0.918877
      6          1           0       -1.569624   -0.630825   -0.780833
 ---------------------------------------------------------------------

 SCF Done:  E(RB2PLYPD3) =  -132.533879972     A.U. after   12 cycles
 E2(B2PLYPD3) =    -0.1809433286D+00 E(B2PLYPD3) =    -0.13271482330050D+03

 The electronic state is 1-A.
 Alpha  occ. eigenvalues --  -14.84491 -10.66581 -10.66518  -1.03881  -0.89639
 Alpha  occ. eigenvalues --   -0.60545  -0.54489  -0.53638  -0.44908  -0.38999
 Alpha  occ. eigenvalues --   -0.38938
 Alpha virt. eigenvalues --    0.03817   0.07637   0.08111   0.10146   0.11288
 Alpha virt. eigenvalues --    0.11461   0.15487   0.16203   0.16867   0.20083
 Alpha virt. eigenvalues --    0.20175   0.25412   0.32802   0.34832   0.35091

 Mulliken charges:
               1
     1  C   -0.068013
     2  C    0.001591
     3  N   -0.209501
     4  H    0.093486
     5  H    0.091597
     6  H    0.090840
 Sum of Mulliken charges =   0.00000

 Dipole moment (field-independent basis, Debye):
    X=             -4.1545    Y=              0.0164    Z=             -0.0108  Tot=              4.1546
 Quadrupole moment (field-independent basis, Debye-Ang):
   XX=            -20.7847   YY=            -17.7682   ZZ=            -17.8445
   XY=              0.1040   XZ=             -0.0496   YZ=             -0.0105

 Normal termination of Gaussian 09 at Wed Aug 26 20:02:01 2020.
