 Gaussian 09, Revision D.01,
 Gaussian 09:  ES64L-G09RevD.01 24-Apr-2013

 --------------------
 #p B2PLYPD3/Def2QZVP
 --------------------

 ------------
 cyanomethane
 ------------
 Symbolic Z-matrix:
 Charge =  0 Multiplicity = 1

                         Standard orientation:
 ---------------------------------------------------------------------
 Center     Atomic      Atomic             Coordinates (Angstroms)
 Number     Number       Type             X           Y           Z
 ---------------------------------------------------------------------
      1          6           0       -1.176944   -0.003639   -0.008538
      2          6           0        0.274093    0.004797    0.023704
      3          7           0        1.429899   -0.003431   -0.014495
      4          1           0       -1.494119   -0.206604    0.982816
      5          1           0       -1.571390   -0.750206   -0.666315
      6          1           0       -1.526676    0.973881   -0.306030
 ---------------------------------------------------------------------

 SCF Done:  E(RB2PLYPD3) =  -132.534466044     A.U. after   12 cycles
 E2(B2PLYPD3) =    -0.1804016499D+00 E(B2PLYPD3) =    -0.13271486769357D+03

 The electronic state is 1-A.
 Alpha  occ. eigenvalues --  -14.84170 -10.66487 -10.66199  -1.04024  -0.89833
 Alpha  occ. eigenvalues --   -0.59811  -0.54631  -0.54414  -0.44741  -0.39028
 Alpha  occ. eigenvalues --   -0.38950
 Alpha virt. eigenvalues --    0.03841   0.07902   0.08389   0.10147   0.11411
 Alpha virt. eigenvalues --    0.11421   0.15485   0.15735   0.16749   0.20116
 Alpha virt. eigenvalues --    0.20133   0.25492   0.32949   0.34711   0.35043

 Mulliken charges:
               1
     1  C   -0.081354
     2  C   -0.001792
     3  N   -0.208406
     4  H    0.096833
     5  H    0.097583
     6  H    0.097136
 Sum of Mulliken charges =   0.00000

 Dipole moment (field-independent basis, Debye):
    X=             -4.1280    Y=              0.0037    Z=              0.0335  Tot=              4.1282
 Quadrupole moment (field-independent basis, Debye-Ang):
   XX=            -21.0260   YY=            -17.6784   ZZ=            -17.7302
   XY=              0.0438   XZ=              0.0999   YZ=              0.0021

 Normal termination of Gaussian 09 at Wed Aug 26 23:56:07 2020.
