 Gaussian 09, Revision D.01,
 Gaussian 09:  ES64L-G09RevD.01 24-Apr-2013

 --------------------
 #p B2PLYPD3/Def2QZVP
 --------------------

 ------------
 cyanomethane
 ------------
 Symbolic Z-matrix:
 Charge =  0 Multiplicity = 1

                         Standard orientation:
 ---------------------------------------------------------------------
 Center     Atomic      Atomic             Coordinates (Angstroms)
 Number     Number       Type             X           Y           Z
 ---------------------------------------------------------------------
      1          6           0        1.160295   -0.013165    0.008752
      2          6           0       -0.284126    0.020463   -0.033027
      3          7           0       -1.424232   -0.012354    0.019888
      4          1           0        1.628525   -0.387888    0.959737
      5          1           0        1.524885    1.058135   -0.130222
      6          1           0        1.559197   -0.627555   -0.823081
 ---------------------------------------------------------------------

 SCF Done:  E(RB2PLYPD3) =  -132.531415696     A.U. after   12 cycles
 E2(B2PLYPD3) =    -0.1799974537D+00 E(B2PLYPD3) =    -0.13271141315000D+03

 The electronic state is 1-A.
 Alpha  occ. eigenvalues --  -14.83924 -10.67951 -10.65933  -1.04729  -0.88576
 Alpha  occ. eigenvalues --   -0.59881  -0.53298  -0.52508  -0.44861  -0.39332
 Alpha  occ. eigenvalues --   -0.39146
 Alpha virt. eigenvalues --    0.03555   0.07205   0.07841   0.10086   0.11723
 Alpha virt. eigenvalues --    0.11861   0.15531   0.15883   0.17304   0.20003
 Alpha virt. eigenvalues --    0.20106   0.25729   0.32707   0.33720   0.34455

 Mulliken charges:
               1
     1  C   -0.092281
     2  C    0.001426
     3  N   -0.197962
     4  H    0.097659
     5  H    0.093490
     6  H    0.097668
 Sum of Mulliken charges =   0.00000

 Dipole moment (field-independent basis, Debye):
    X=              4.0822    Y=              0.0203    Z=             -0.0331  Tot=              4.0823
 Quadrupole moment (field-independent basis, Debye-Ang):
   XX=            -20.9632   YY=            -17.7707   ZZ=            -17.7906
   XY=             -0.1180   XZ=              0.1676   YZ=              0.0257

 Normal termination of Gaussian 09 at Wed Aug 26 14:07:20 2020.
