 Gaussian 09, Revision D.01,
 Gaussian 09:  ES64L-G09RevD.01 24-Apr-2013

 --------------------
 #p B2PLYPD3/Def2QZVP
 --------------------

 ------------
 cyanomethane
 ------------
 Symbolic Z-matrix:
 Charge =  0 Multiplicity = 1

                         Standard orientation:
 ---------------------------------------------------------------------
 Center     Atomic      Atomic             Coordinates (Angstroms)
 Number     Number       Type             X           Y           Z
 ---------------------------------------------------------------------
      1          6           0        1.175164    0.013755   -0.008394
      2          6           0       -0.299064   -0.066820   -0.029064
      3          7           0       -1.437550    0.038975    0.029503
      4          1           0        1.657991    1.078549   -0.050399
      5          1           0        1.413138   -0.557273   -0.833596
      6          1           0        1.735123   -0.475706    0.902220
 ---------------------------------------------------------------------

 SCF Done:  E(RB2PLYPD3) =  -132.516972765     A.U. after   12 cycles
 E2(B2PLYPD3) =    -0.1807445128D+00 E(B2PLYPD3) =    -0.13269771727822D+03

 The electronic state is 1-A.
 Alpha  occ. eigenvalues --  -14.84234 -10.68208 -10.66319  -1.04690  -0.88286
 Alpha  occ. eigenvalues --   -0.59488  -0.54269  -0.50682  -0.44992  -0.39476
 Alpha  occ. eigenvalues --   -0.39207
 Alpha virt. eigenvalues --    0.03113   0.06297   0.08724   0.09993   0.11291
 Alpha virt. eigenvalues --    0.11910   0.15132   0.15803   0.17993   0.19812
 Alpha virt. eigenvalues --    0.20458   0.25540   0.31871   0.33348   0.34654

 Mulliken charges:
               1
     1  C   -0.093723
     2  C    0.004674
     3  N   -0.197346
     4  H    0.095962
     5  H    0.103703
     6  H    0.086730
 Sum of Mulliken charges =   0.00000

 Dipole moment (field-independent basis, Debye):
    X=              4.0858    Y=             -0.0841    Z=             -0.0727  Tot=              4.0873
 Quadrupole moment (field-independent basis, Debye-Ang):
   XX=            -20.7455   YY=            -17.7843   ZZ=            -18.0008
   XY=              0.2563   XZ=              0.3378   YZ=              0.1133

 Normal termination of Gaussian 09 at Wed Aug 26 23:20:12 2020.
