 Gaussian 09, Revision D.01,
 Gaussian 09:  ES64L-G09RevD.01 24-Apr-2013

 --------------------
 #p B2PLYPD3/Def2QZVP
 --------------------

 ------------
 cyanomethane
 ------------
 Symbolic Z-matrix:
 Charge =  0 Multiplicity = 1

                         Standard orientation:
 ---------------------------------------------------------------------
 Center     Atomic      Atomic             Coordinates (Angstroms)
 Number     Number       Type             X           Y           Z
 ---------------------------------------------------------------------
      1          6           0        1.178629    0.017875    0.012352
      2          6           0       -0.276128    0.002353   -0.044992
      3          7           0       -1.444859   -0.002890    0.019554
      4          1           0        1.576898    1.008128   -0.155232
      5          1           0        1.592012   -0.713140   -0.760384
      6          1           0        1.530103   -0.396133    0.974575
 ---------------------------------------------------------------------

 SCF Done:  E(RB2PLYPD3) =  -132.530786938     A.U. after   12 cycles
 E2(B2PLYPD3) =    -0.1822302288D+00 E(B2PLYPD3) =    -0.13271301716674D+03

 The electronic state is 1-A.
 Alpha  occ. eigenvalues --  -14.84721 -10.67754 -10.66811  -1.03533  -0.88838
 Alpha  occ. eigenvalues --   -0.59852  -0.54492  -0.52323  -0.44916  -0.38833
 Alpha  occ. eigenvalues --   -0.38467
 Alpha virt. eigenvalues --    0.03584   0.07037   0.07528   0.10098   0.11108
 Alpha virt. eigenvalues --    0.11584   0.15344   0.15942   0.16747   0.20080
 Alpha virt. eigenvalues --    0.20192   0.25490   0.32205   0.33744   0.34965

 Mulliken charges:
               1
     1  C   -0.086094
     2  C    0.004035
     3  N   -0.212336
     4  H    0.103763
     5  H    0.091756
     6  H    0.098876
 Sum of Mulliken charges =   0.00000

 Dipole moment (field-independent basis, Debye):
    X=              4.1405    Y=             -0.0159    Z=             -0.0088  Tot=              4.1405
 Quadrupole moment (field-independent basis, Debye-Ang):
   XX=            -21.0116   YY=            -17.7119   ZZ=            -17.9822
   XY=             -0.0654   XZ=              0.0940   YZ=             -0.0540

 Normal termination of Gaussian 09 at Wed Aug 26 11:05:29 2020.
