 Gaussian 09, Revision D.01,
 Gaussian 09:  ES64L-G09RevD.01 24-Apr-2013

 --------------------
 #p B2PLYPD3/Def2QZVP
 --------------------

 ------------
 cyanomethane
 ------------
 Symbolic Z-matrix:
 Charge =  0 Multiplicity = 1

                         Standard orientation:
 ---------------------------------------------------------------------
 Center     Atomic      Atomic             Coordinates (Angstroms)
 Number     Number       Type             X           Y           Z
 ---------------------------------------------------------------------
      1          6           0        1.194418    0.033647    0.006562
      2          6           0       -0.287663   -0.044738   -0.033298
      3          7           0       -1.424821    0.019174    0.018893
      4          1           0        1.543897   -0.492995    0.868101
      5          1           0        1.493520    0.959381   -0.022365
      6          1           0        1.495796   -0.534057   -0.817569
 ---------------------------------------------------------------------

 SCF Done:  E(RB2PLYPD3) =  -132.523302415     A.U. after   12 cycles
 E2(B2PLYPD3) =    -0.1786860815D+00 E(B2PLYPD3) =    -0.13270198849669D+03

 The electronic state is 1-A.
 Alpha  occ. eigenvalues --  -14.83688 -10.65724 -10.65475  -1.04596  -0.90356
 Alpha  occ. eigenvalues --   -0.59557  -0.56698  -0.54023  -0.44593  -0.39753
 Alpha  occ. eigenvalues --   -0.39372
 Alpha virt. eigenvalues --    0.03955   0.08833   0.09228   0.10145   0.11220
 Alpha virt. eigenvalues --    0.11504   0.15402   0.15505   0.17029   0.19959
 Alpha virt. eigenvalues --    0.20098   0.25124   0.33015   0.34648   0.36179

 Mulliken charges:
               1
     1  C   -0.078817
     2  C   -0.006838
     3  N   -0.200615
     4  H    0.091167
     5  H    0.103131
     6  H    0.091972
 Sum of Mulliken charges =   0.00000

 Dipole moment (field-independent basis, Debye):
    X=              4.1062    Y=             -0.0550    Z=             -0.0377  Tot=              4.1067
 Quadrupole moment (field-independent basis, Debye-Ang):
   XX=            -20.9842   YY=            -17.4863   ZZ=            -17.7113
   XY=              0.0278   XZ=              0.1236   YZ=             -0.0047

 Normal termination of Gaussian 09 at Wed Aug 26 21:33:37 2020.
