 Gaussian 09, Revision D.01,
 Gaussian 09:  ES64L-G09RevD.01 24-Apr-2013

 --------------------
 #p B2PLYPD3/Def2QZVP
 --------------------

 ------------
 cyanomethane
 ------------
 Symbolic Z-matrix:
 Charge =  0 Multiplicity = 1

                         Standard orientation:
 ---------------------------------------------------------------------
 Center     Atomic      Atomic             Coordinates (Angstroms)
 Number     Number       Type             X           Y           Z
 ---------------------------------------------------------------------
      1          6           0       -1.175524    0.001235    0.000753
      2          6           0        0.282932    0.010392    0.003283
      3          7           0        1.434187   -0.002549   -0.001526
      4          1           0       -1.556503   -0.231045    0.973811
      5          1           0       -1.527434   -0.779315   -0.673897
      6          1           0       -1.599815    0.958436   -0.313450
 ---------------------------------------------------------------------

 SCF Done:  E(RB2PLYPD3) =  -132.535716638     A.U. after   11 cycles
 E2(B2PLYPD3) =    -0.1801403318D+00 E(B2PLYPD3) =    -0.13271585696967D+03

 The electronic state is 1-A.
 Alpha  occ. eigenvalues --  -14.84147 -10.66956 -10.66217  -1.04269  -0.89260
 Alpha  occ. eigenvalues --   -0.60030  -0.53915  -0.53763  -0.44822  -0.39221
 Alpha  occ. eigenvalues --   -0.39143
 Alpha virt. eigenvalues --    0.03785   0.07888   0.08083   0.10197   0.11445
 Alpha virt. eigenvalues --    0.11548   0.15439   0.16288   0.16702   0.20058
 Alpha virt. eigenvalues --    0.20089   0.25337   0.32778   0.34600   0.34934

 Mulliken charges:
               1
     1  C   -0.077966
     2  C   -0.001125
     3  N   -0.204275
     4  H    0.094356
     5  H    0.094491
     6  H    0.094520
 Sum of Mulliken charges =   0.00000

 Dipole moment (field-independent basis, Debye):
    X=             -4.1314    Y=             -0.0108    Z=              0.0107  Tot=              4.1314
 Quadrupole moment (field-independent basis, Debye-Ang):
   XX=            -20.8900   YY=            -17.7196   ZZ=            -17.8114
   XY=             -0.0032   XZ=             -0.0163   YZ=             -0.0070

 Normal termination of Gaussian 09 at Thu Aug 27 00:01:55 2020.
