 Gaussian 09, Revision D.01,
 Gaussian 09:  ES64L-G09RevD.01 24-Apr-2013

 --------------------
 #p B2PLYPD3/Def2QZVP
 --------------------

 ------------
 cyanomethane
 ------------
 Symbolic Z-matrix:
 Charge =  0 Multiplicity = 1

                         Standard orientation:
 ---------------------------------------------------------------------
 Center     Atomic      Atomic             Coordinates (Angstroms)
 Number     Number       Type             X           Y           Z
 ---------------------------------------------------------------------
      1          6           0        1.163232   -0.015302   -0.001726
      2          6           0       -0.272141    0.010080   -0.028563
      3          7           0       -1.436595   -0.005914    0.011103
      4          1           0        1.556097    0.974507   -0.271093
      5          1           0        1.633940   -0.719861   -0.621719
      6          1           0        1.519582   -0.181917    0.996829
 ---------------------------------------------------------------------

 SCF Done:  E(RB2PLYPD3) =  -132.532114768     A.U. after   12 cycles
 E2(B2PLYPD3) =    -0.1813309461D+00 E(B2PLYPD3) =    -0.13271344571420D+03

 The electronic state is 1-A.
 Alpha  occ. eigenvalues --  -14.84583 -10.66626 -10.66419  -1.03825  -0.89903
 Alpha  occ. eigenvalues --   -0.61262  -0.54450  -0.53416  -0.44977  -0.38925
 Alpha  occ. eigenvalues --   -0.38667
 Alpha virt. eigenvalues --    0.03805   0.07575   0.07665   0.10102   0.11343
 Alpha virt. eigenvalues --    0.11612   0.15622   0.16127   0.17136   0.20143
 Alpha virt. eigenvalues --    0.20186   0.25792   0.32883   0.34399   0.35350

 Mulliken charges:
               1
     1  C   -0.063820
     2  C    0.005078
     3  N   -0.211351
     4  H    0.086946
     5  H    0.092645
     6  H    0.090502
 Sum of Mulliken charges =   0.00000

 Dipole moment (field-independent basis, Debye):
    X=              4.1579    Y=              0.0164    Z=              0.0056  Tot=              4.1579
 Quadrupole moment (field-independent basis, Debye-Ang):
   XX=            -20.7148   YY=            -17.8145   ZZ=            -17.8479
   XY=             -0.0465   XZ=              0.0421   YZ=              0.0411

 Normal termination of Gaussian 09 at Wed Aug 26 11:38:23 2020.
