 Gaussian 09, Revision D.01,
 Gaussian 09:  ES64L-G09RevD.01 24-Apr-2013

 --------------------
 #p B2PLYPD3/Def2QZVP
 --------------------

 ------------
 cyanomethane
 ------------
 Symbolic Z-matrix:
 Charge =  0 Multiplicity = 1

                         Standard orientation:
 ---------------------------------------------------------------------
 Center     Atomic      Atomic             Coordinates (Angstroms)
 Number     Number       Type             X           Y           Z
 ---------------------------------------------------------------------
      1          6           0        1.170634   -0.005794   -0.007670
      2          6           0       -0.278070   -0.028168   -0.007124
      3          7           0       -1.440839    0.021342    0.002997
      4          1           0        1.519163   -0.886343   -0.477151
      5          1           0        1.554954    0.026907    1.040478
      6          1           0        1.656374    0.913814   -0.495542
 ---------------------------------------------------------------------

 SCF Done:  E(RB2PLYPD3) =  -132.529653225     A.U. after   12 cycles
 E2(B2PLYPD3) =    -0.1816694070D+00 E(B2PLYPD3) =    -0.13271132263184D+03

 The electronic state is 1-A.
 Alpha  occ. eigenvalues --  -14.84580 -10.67570 -10.66638  -1.03847  -0.89015
 Alpha  occ. eigenvalues --   -0.60161  -0.54554  -0.52062  -0.44954  -0.38955
 Alpha  occ. eigenvalues --   -0.38656
 Alpha virt. eigenvalues --    0.03531   0.06767   0.07982   0.10096   0.11214
 Alpha virt. eigenvalues --    0.11714   0.15441   0.16029   0.17019   0.20033
 Alpha virt. eigenvalues --    0.20245   0.25547   0.32468   0.33736   0.34859

 Mulliken charges:
               1
     1  C   -0.080935
     2  C    0.002897
     3  N   -0.208991
     4  H    0.101110
     5  H    0.093176
     6  H    0.092743
 Sum of Mulliken charges =   0.00000

 Dipole moment (field-independent basis, Debye):
    X=              4.1370    Y=             -0.0381    Z=              0.0167  Tot=              4.1372
 Quadrupole moment (field-independent basis, Debye-Ang):
   XX=            -20.8818   YY=            -17.7805   ZZ=            -17.9283
   XY=              0.2034   XZ=              0.0426   YZ=              0.0753

 Normal termination of Gaussian 09 at Wed Aug 26 13:20:55 2020.
