 Gaussian 09, Revision D.01,
 Gaussian 09:  ES64L-G09RevD.01 24-Apr-2013

 --------------------
 #p B2PLYPD3/Def2QZVP
 --------------------

 ------------
 cyanomethane
 ------------
 Symbolic Z-matrix:
 Charge =  0 Multiplicity = 1

                         Standard orientation:
 ---------------------------------------------------------------------
 Center     Atomic      Atomic             Coordinates (Angstroms)
 Number     Number       Type             X           Y           Z
 ---------------------------------------------------------------------
      1          6           0       -1.169290    0.008849    0.028079
      2          6           0        0.248234    0.032660   -0.039036
      3          7           0        1.427502   -0.014781    0.010468
      4          1           0       -1.552477   -0.558334   -0.830452
      5          1           0       -1.527645    0.943382   -0.013402
      6          1           0       -1.386055   -0.530637    0.836324
 ---------------------------------------------------------------------

 SCF Done:  E(RB2PLYPD3) =  -132.518005176     A.U. after   11 cycles
 E2(B2PLYPD3) =    -0.1822357437D+00 E(B2PLYPD3) =    -0.13270024091927D+03

 The electronic state is 1-A.
 Alpha  occ. eigenvalues --  -14.84685 -10.66659 -10.65083  -1.03168  -0.91547
 Alpha  occ. eigenvalues --   -0.60434  -0.58058  -0.54162  -0.44744  -0.38470
 Alpha  occ. eigenvalues --   -0.38047
 Alpha virt. eigenvalues --    0.03930   0.07573   0.08369   0.10123   0.10912
 Alpha virt. eigenvalues --    0.11534   0.15470   0.15904   0.16125   0.20178
 Alpha virt. eigenvalues --    0.20346   0.26100   0.32685   0.34515   0.36209

 Mulliken charges:
               1
     1  C   -0.072628
     2  C    0.002197
     3  N   -0.223001
     4  H    0.087495
     5  H    0.100901
     6  H    0.105035
 Sum of Mulliken charges =   0.00000

 Dipole moment (field-independent basis, Debye):
    X=             -4.1590    Y=             -0.0074    Z=             -0.0134  Tot=              4.1590
 Quadrupole moment (field-independent basis, Debye-Ang):
   XX=            -21.0679   YY=            -17.5613   ZZ=            -17.7857
   XY=              0.0734   XZ=              0.0843   YZ=             -0.0901

 Normal termination of Gaussian 09 at Wed Aug 26 19:07:30 2020.
