 Gaussian 09, Revision D.01,
 Gaussian 09:  ES64L-G09RevD.01 24-Apr-2013

 --------------------
 #p B2PLYPD3/Def2QZVP
 --------------------

 ------------
 cyanomethane
 ------------
 Symbolic Z-matrix:
 Charge =  0 Multiplicity = 1

                         Standard orientation:
 ---------------------------------------------------------------------
 Center     Atomic      Atomic             Coordinates (Angstroms)
 Number     Number       Type             X           Y           Z
 ---------------------------------------------------------------------
      1          6           0        1.173079    0.001989    0.003681
      2          6           0       -0.281949   -0.008423    0.009791
      3          7           0       -1.428483    0.006088   -0.007287
      4          1           0        1.581808    0.985737   -0.307323
      5          1           0        1.548614   -0.758047   -0.699159
      6          1           0        1.522180   -0.231704    0.976655
 ---------------------------------------------------------------------

 SCF Done:  E(RB2PLYPD3) =  -132.535256777     A.U. after   12 cycles
 E2(B2PLYPD3) =    -0.1798095063D+00 E(B2PLYPD3) =    -0.13271506628355D+03

 The electronic state is 1-A.
 Alpha  occ. eigenvalues --  -14.83968 -10.67076 -10.66006  -1.04434  -0.89229
 Alpha  occ. eigenvalues --   -0.59723  -0.54355  -0.53369  -0.44766  -0.39288
 Alpha  occ. eigenvalues --   -0.39185
 Alpha virt. eigenvalues --    0.03747   0.07742   0.08332   0.10189   0.11494
 Alpha virt. eigenvalues --    0.11643   0.15458   0.16142   0.16687   0.20040
 Alpha virt. eigenvalues --    0.20080   0.25406   0.32825   0.34379   0.34887

 Mulliken charges:
               1
     1  C   -0.084340
     2  C   -0.002701
     3  N   -0.202106
     4  H    0.095571
     5  H    0.095146
     6  H    0.098429
 Sum of Mulliken charges =   0.00000

 Dipole moment (field-independent basis, Debye):
    X=              4.1131    Y=             -0.0183    Z=              0.0187  Tot=              4.1132
 Quadrupole moment (field-independent basis, Debye-Ang):
   XX=            -20.9817   YY=            -17.7193   ZZ=            -17.7350
   XY=              0.0451   XZ=             -0.0548   YZ=             -0.0141

 Normal termination of Gaussian 09 at Thu Aug 27 00:07:59 2020.
