 Gaussian 09, Revision D.01,
 Gaussian 09:  ES64L-G09RevD.01 24-Apr-2013

 --------------------
 #p B2PLYPD3/Def2QZVP
 --------------------

 ------------
 cyanomethane
 ------------
 Symbolic Z-matrix:
 Charge =  0 Multiplicity = 1

                         Standard orientation:
 ---------------------------------------------------------------------
 Center     Atomic      Atomic             Coordinates (Angstroms)
 Number     Number       Type             X           Y           Z
 ---------------------------------------------------------------------
      1          6           0        1.148761    0.018901    0.029718
      2          6           0       -0.252217   -0.012989   -0.066791
      3          7           0       -1.431391    0.005457    0.028787
      4          1           0        1.564129    1.025228   -0.164087
      5          1           0        1.565472   -0.705896   -0.739111
      6          1           0        1.510871   -0.393003    0.924128
 ---------------------------------------------------------------------

 SCF Done:  E(RB2PLYPD3) =  -132.524763932     A.U. after   11 cycles
 E2(B2PLYPD3) =    -0.1833630649D+00 E(B2PLYPD3) =    -0.13270812699704D+03

 The electronic state is 1-A.
 Alpha  occ. eigenvalues --  -14.84973 -10.66904 -10.66830  -1.03206  -0.90095
 Alpha  occ. eigenvalues --   -0.61155  -0.55026  -0.52780  -0.45009  -0.38342
 Alpha  occ. eigenvalues --   -0.37857
 Alpha virt. eigenvalues --    0.03658   0.06733   0.06913   0.09897   0.11205
 Alpha virt. eigenvalues --    0.11745   0.15479   0.15774   0.17179   0.20192
 Alpha virt. eigenvalues --    0.20291   0.26532   0.32297   0.33979   0.35293

 Mulliken charges:
               1
     1  C   -0.077610
     2  C    0.009562
     3  N   -0.219409
     4  H    0.101583
     5  H    0.085899
     6  H    0.099975
 Sum of Mulliken charges =   0.00000

 Dipole moment (field-independent basis, Debye):
    X=              4.1418    Y=             -0.0457    Z=             -0.0182  Tot=              4.1421
 Quadrupole moment (field-independent basis, Debye-Ang):
   XX=            -20.9646   YY=            -17.6442   ZZ=            -18.0156
   XY=             -0.0594   XZ=              0.1310   YZ=             -0.0963

 Normal termination of Gaussian 09 at Wed Aug 26 22:29:11 2020.
