 Gaussian 09, Revision D.01,
 Gaussian 09:  ES64L-G09RevD.01 24-Apr-2013

 --------------------
 #p B2PLYPD3/Def2QZVP
 --------------------

 ------------
 cyanomethane
 ------------
 Symbolic Z-matrix:
 Charge =  0 Multiplicity = 1

                         Standard orientation:
 ---------------------------------------------------------------------
 Center     Atomic      Atomic             Coordinates (Angstroms)
 Number     Number       Type             X           Y           Z
 ---------------------------------------------------------------------
      1          6           0        1.181193    0.013000   -0.008802
      2          6           0       -0.277834    0.024263   -0.022433
      3          7           0       -1.423171   -0.020093    0.017741
      4          1           0        1.609482   -0.383121    0.954556
      5          1           0        1.420868    0.980261   -0.140941
      6          1           0        1.511691   -0.680069   -0.750390
 ---------------------------------------------------------------------

 SCF Done:  E(RB2PLYPD3) =  -132.527022476     A.U. after   12 cycles
 E2(B2PLYPD3) =    -0.1796697706D+00 E(B2PLYPD3) =    -0.13270669224682D+03

 The electronic state is 1-A.
 Alpha  occ. eigenvalues --  -14.83851 -10.66401 -10.65857  -1.04370  -0.89992
 Alpha  occ. eigenvalues --   -0.59192  -0.56891  -0.52715  -0.44633  -0.39400
 Alpha  occ. eigenvalues --   -0.39004
 Alpha virt. eigenvalues --    0.03740   0.07686   0.09215   0.10208   0.11153
 Alpha virt. eigenvalues --    0.11744   0.15325   0.15794   0.16650   0.19992
 Alpha virt. eigenvalues --    0.20170   0.25323   0.32796   0.34047   0.35849

 Mulliken charges:
               1
     1  C   -0.088615
     2  C   -0.005675
     3  N   -0.203889
     4  H    0.090526
     5  H    0.107813
     6  H    0.099840
 Sum of Mulliken charges =   0.00000

 Dipole moment (field-independent basis, Debye):
    X=              4.1002    Y=              0.0131    Z=             -0.0262  Tot=              4.1003
 Quadrupole moment (field-independent basis, Debye-Ang):
   XX=            -21.1109   YY=            -17.4775   ZZ=            -17.8185
   XY=             -0.2605   XZ=              0.1940   YZ=              0.0300

 Normal termination of Gaussian 09 at Wed Aug 26 15:48:38 2020.
