 Gaussian 09, Revision D.01,
 Gaussian 09:  ES64L-G09RevD.01 24-Apr-2013

 --------------------
 #p B2PLYPD3/Def2QZVP
 --------------------

 ------------
 cyanomethane
 ------------
 Symbolic Z-matrix:
 Charge =  0 Multiplicity = 1

                         Standard orientation:
 ---------------------------------------------------------------------
 Center     Atomic      Atomic             Coordinates (Angstroms)
 Number     Number       Type             X           Y           Z
 ---------------------------------------------------------------------
      1          6           0        1.186406    0.010308   -0.013170
      2          6           0       -0.285748    0.003832   -0.021278
      3          7           0       -1.431558   -0.008593    0.018932
      4          1           0        1.635747   -0.066181    0.980000
      5          1           0        1.430714    0.909892   -0.404507
      6          1           0        1.550494   -0.868402   -0.501332
 ---------------------------------------------------------------------

 SCF Done:  E(RB2PLYPD3) =  -132.528273468     A.U. after   12 cycles
 E2(B2PLYPD3) =    -0.1795544651D+00 E(B2PLYPD3) =    -0.13270782793281D+03

 The electronic state is 1-A.
 Alpha  occ. eigenvalues --  -14.83941 -10.66269 -10.66011  -1.04396  -0.89840
 Alpha  occ. eigenvalues --   -0.59735  -0.56668  -0.52484  -0.44699  -0.39531
 Alpha  occ. eigenvalues --   -0.39136
 Alpha virt. eigenvalues --    0.03838   0.07832   0.09109   0.10261   0.11091
 Alpha virt. eigenvalues --    0.11721   0.15269   0.16135   0.16768   0.19951
 Alpha virt. eigenvalues --    0.20171   0.25078   0.32782   0.34316   0.35999

 Mulliken charges:
               1
     1  C   -0.077397
     2  C   -0.004269
     3  N   -0.202967
     4  H    0.084898
     5  H    0.103751
     6  H    0.095984
 Sum of Mulliken charges =   0.00000

 Dipole moment (field-independent basis, Debye):
    X=              4.1298    Y=              0.0032    Z=             -0.0012  Tot=              4.1298
 Quadrupole moment (field-independent basis, Debye-Ang):
   XX=            -20.9096   YY=            -17.4633   ZZ=            -17.9469
   XY=             -0.1719   XZ=              0.2872   YZ=             -0.0432

 Normal termination of Gaussian 09 at Wed Aug 26 13:42:50 2020.
