 Gaussian 09, Revision D.01,
 Gaussian 09:  ES64L-G09RevD.01 24-Apr-2013

 --------------------
 #p B2PLYPD3/Def2QZVP
 --------------------

 ------------
 cyanomethane
 ------------
 Symbolic Z-matrix:
 Charge =  0 Multiplicity = 1

                         Standard orientation:
 ---------------------------------------------------------------------
 Center     Atomic      Atomic             Coordinates (Angstroms)
 Number     Number       Type             X           Y           Z
 ---------------------------------------------------------------------
      1          6           0       -1.180828   -0.007109    0.011980
      2          6           0        0.282998    0.014672    0.004189
      3          7           0        1.432978   -0.010383   -0.006518
      4          1           0       -1.609424   -0.652911   -0.797243
      5          1           0       -1.509856    1.024607   -0.192833
      6          1           0       -1.524585   -0.344397    0.938688
 ---------------------------------------------------------------------

 SCF Done:  E(RB2PLYPD3) =  -132.533391233     A.U. after   12 cycles
 E2(B2PLYPD3) =    -0.1801275849D+00 E(B2PLYPD3) =    -0.13271351881837D+03

 The electronic state is 1-A.
 Alpha  occ. eigenvalues --  -14.84064 -10.67161 -10.66139  -1.04265  -0.89163
 Alpha  occ. eigenvalues --   -0.59556  -0.54861  -0.52953  -0.44749  -0.39299
 Alpha  occ. eigenvalues --   -0.39047
 Alpha virt. eigenvalues --    0.03724   0.07660   0.08429   0.10188   0.11335
 Alpha virt. eigenvalues --    0.11617   0.15360   0.15943   0.16753   0.20037
 Alpha virt. eigenvalues --    0.20112   0.25240   0.32630   0.34025   0.35171

 Mulliken charges:
               1
     1  C   -0.086951
     2  C   -0.002373
     3  N   -0.204032
     4  H    0.094119
     5  H    0.096858
     6  H    0.102379
 Sum of Mulliken charges =   0.00000

 Dipole moment (field-independent basis, Debye):
    X=             -4.1193    Y=              0.0201    Z=              0.0123  Tot=              4.1194
 Quadrupole moment (field-independent basis, Debye-Ang):
   XX=            -21.0255   YY=            -17.7455   ZZ=            -17.7247
   XY=              0.1074   XZ=              0.0869   YZ=             -0.0568

 Normal termination of Gaussian 09 at Wed Aug 26 12:51:48 2020.
