 Gaussian 09, Revision D.01,
 Gaussian 09:  ES64L-G09RevD.01 24-Apr-2013

 --------------------
 #p B2PLYPD3/Def2QZVP
 --------------------

 ------------
 cyanomethane
 ------------
 Symbolic Z-matrix:
 Charge =  0 Multiplicity = 1

                         Standard orientation:
 ---------------------------------------------------------------------
 Center     Atomic      Atomic             Coordinates (Angstroms)
 Number     Number       Type             X           Y           Z
 ---------------------------------------------------------------------
      1          6           0        1.169914    0.003796    0.007482
      2          6           0       -0.274611    0.009993   -0.018191
      3          7           0       -1.444044   -0.008820    0.002138
      4          1           0        1.560309    0.988402   -0.231752
      5          1           0        1.674935   -0.726577   -0.697672
      6          1           0        1.501244   -0.282818    0.978710
 ---------------------------------------------------------------------

 SCF Done:  E(RB2PLYPD3) =  -132.531095416     A.U. after   12 cycles
 E2(B2PLYPD3) =    -0.1819888708D+00 E(B2PLYPD3) =    -0.13271308428641D+03

 The electronic state is 1-A.
 Alpha  occ. eigenvalues --  -14.84744 -10.67187 -10.66816  -1.03629  -0.89335
 Alpha  occ. eigenvalues --   -0.60600  -0.54442  -0.52628  -0.44989  -0.38776
 Alpha  occ. eigenvalues --   -0.38618
 Alpha virt. eigenvalues --    0.03683   0.06926   0.07726   0.10132   0.11282
 Alpha virt. eigenvalues --    0.11553   0.15464   0.16193   0.16899   0.20108
 Alpha virt. eigenvalues --    0.20224   0.25595   0.32395   0.34367   0.34898

 Mulliken charges:
               1
     1  C   -0.073569
     2  C    0.004177
     3  N   -0.212236
     4  H    0.095591
     5  H    0.088912
     6  H    0.097124
 Sum of Mulliken charges =   0.00000

 Dipole moment (field-independent basis, Debye):
    X=              4.1585    Y=              0.0113    Z=              0.0236  Tot=              4.1586
 Quadrupole moment (field-independent basis, Debye-Ang):
   XX=            -20.8000   YY=            -17.8233   ZZ=            -17.9239
   XY=             -0.1054   XZ=             -0.0438   YZ=             -0.0597

 Normal termination of Gaussian 09 at Wed Aug 26 12:38:51 2020.
