 Gaussian 09, Revision D.01,
 Gaussian 09:  ES64L-G09RevD.01 24-Apr-2013

 --------------------
 #p B2PLYPD3/Def2QZVP
 --------------------

 ------------
 cyanomethane
 ------------
 Symbolic Z-matrix:
 Charge =  0 Multiplicity = 1

                         Standard orientation:
 ---------------------------------------------------------------------
 Center     Atomic      Atomic             Coordinates (Angstroms)
 Number     Number       Type             X           Y           Z
 ---------------------------------------------------------------------
      1          6           0       -1.169789    0.007337   -0.006702
      2          6           0        0.267811    0.016717    0.006070
      3          7           0        1.433051   -0.015496   -0.004934
      4          1           0       -1.469489    0.999327   -0.211792
      5          1           0       -1.530123   -0.315123    0.965355
      6          1           0       -1.619880   -0.720057   -0.715231
 ---------------------------------------------------------------------

 SCF Done:  E(RB2PLYPD3) =  -132.531750248     A.U. after   12 cycles
 E2(B2PLYPD3) =    -0.1814465836D+00 E(B2PLYPD3) =    -0.13271319683184D+03

 The electronic state is 1-A.
 Alpha  occ. eigenvalues --  -14.84452 -10.66804 -10.66470  -1.03714  -0.89807
 Alpha  occ. eigenvalues --   -0.60123  -0.55345  -0.53065  -0.44824  -0.38795
 Alpha  occ. eigenvalues --   -0.38566
 Alpha virt. eigenvalues --    0.03742   0.07227   0.08151   0.10108   0.11218
 Alpha virt. eigenvalues --    0.11633   0.15417   0.15874   0.16753   0.20096
 Alpha virt. eigenvalues --    0.20251   0.25696   0.32812   0.34201   0.35065

 Mulliken charges:
               1
     1  C   -0.081119
     2  C    0.000931
     3  N   -0.212399
     4  H    0.102874
     5  H    0.094875
     6  H    0.094838
 Sum of Mulliken charges =   0.00000

 Dipole moment (field-independent basis, Debye):
    X=             -4.1408    Y=              0.0104    Z=              0.0289  Tot=              4.1409
 Quadrupole moment (field-independent basis, Debye-Ang):
   XX=            -21.0070   YY=            -17.6247   ZZ=            -17.9015
   XY=              0.2196   XZ=              0.0142   YZ=             -0.0379

 Normal termination of Gaussian 09 at Wed Aug 26 13:37:21 2020.
