 Gaussian 09, Revision D.01,
 Gaussian 09:  ES64L-G09RevD.01 24-Apr-2013

 --------------------
 #p B2PLYPD3/Def2QZVP
 --------------------

 ------------
 cyanomethane
 ------------
 Symbolic Z-matrix:
 Charge =  0 Multiplicity = 1

                         Standard orientation:
 ---------------------------------------------------------------------
 Center     Atomic      Atomic             Coordinates (Angstroms)
 Number     Number       Type             X           Y           Z
 ---------------------------------------------------------------------
      1          6           0       -1.187123   -0.043842   -0.011038
      2          6           0        0.300679    0.059993    0.031593
      3          7           0        1.445868   -0.025245   -0.020466
      4          1           0       -1.616541   -0.844579   -0.533844
      5          1           0       -1.653074    0.942865   -0.476969
      6          1           0       -1.532797   -0.018480    1.030746
 ---------------------------------------------------------------------

 SCF Done:  E(RB2PLYPD3) =  -132.524956331     A.U. after   12 cycles
 E2(B2PLYPD3) =    -0.1807179910D+00 E(B2PLYPD3) =    -0.13270567432207D+03

 The electronic state is 1-A.
 Alpha  occ. eigenvalues --  -14.84346 -10.68057 -10.66512  -1.04434  -0.88073
 Alpha  occ. eigenvalues --   -0.60063  -0.54050  -0.51207  -0.44971  -0.39582
 Alpha  occ. eigenvalues --   -0.39105
 Alpha virt. eigenvalues --    0.03488   0.07019   0.08039   0.09988   0.11347
 Alpha virt. eigenvalues --    0.11664   0.15268   0.15770   0.17706   0.20018
 Alpha virt. eigenvalues --    0.20144   0.25248   0.31647   0.33500   0.35132

 Mulliken charges:
               1
     1  C   -0.085264
     2  C    0.005898
     3  N   -0.200775
     4  H    0.104240
     5  H    0.082102
     6  H    0.093798
 Sum of Mulliken charges =   0.00000

 Dipole moment (field-independent basis, Debye):
    X=             -4.1032    Y=              0.0256    Z=              0.0522  Tot=              4.1036
 Quadrupole moment (field-independent basis, Debye-Ang):
   XX=            -20.8213   YY=            -17.8852   ZZ=            -17.8786
   XY=              0.1189   XZ=              0.1468   YZ=              0.1156

 Normal termination of Gaussian 09 at Wed Aug 26 22:58:11 2020.
