 Gaussian 09, Revision D.01,
 Gaussian 09:  ES64L-G09RevD.01 24-Apr-2013

 --------------------
 #p B2PLYPD3/Def2QZVP
 --------------------

 ------------
 cyanomethane
 ------------
 Symbolic Z-matrix:
 Charge =  0 Multiplicity = 1

                         Standard orientation:
 ---------------------------------------------------------------------
 Center     Atomic      Atomic             Coordinates (Angstroms)
 Number     Number       Type             X           Y           Z
 ---------------------------------------------------------------------
      1          6           0        1.187245   -0.008663   -0.003433
      2          6           0       -0.253341   -0.003912   -0.039202
      3          7           0       -1.429678   -0.001837    0.011942
      4          1           0        1.443286    0.934779   -0.212282
      5          1           0        1.600974   -0.666338   -0.548638
      6          1           0        1.360058   -0.180130    0.933137
 ---------------------------------------------------------------------

 SCF Done:  E(RB2PLYPD3) =  -132.498012440     A.U. after   12 cycles
 E2(B2PLYPD3) =    -0.1813582256D+00 E(B2PLYPD3) =    -0.13267937066556D+03

 The electronic state is 1-A.
 Alpha  occ. eigenvalues --  -14.84562 -10.66656 -10.63424  -1.03300  -0.92776
 Alpha  occ. eigenvalues --   -0.61257  -0.57486  -0.56998  -0.44663  -0.38680
 Alpha  occ. eigenvalues --   -0.38394
 Alpha virt. eigenvalues --    0.04160   0.08698   0.08961   0.10214   0.10931
 Alpha virt. eigenvalues --    0.11324   0.15253   0.15600   0.16627   0.20219
 Alpha virt. eigenvalues --    0.20356   0.25600   0.33013   0.35767   0.36509

 Mulliken charges:
               1
     1  C   -0.067169
     2  C    0.003172
     3  N   -0.222698
     4  H    0.094844
     5  H    0.093094
     6  H    0.098757
 Sum of Mulliken charges =   0.00000

 Dipole moment (field-independent basis, Debye):
    X=              4.1784    Y=              0.0093    Z=              0.0303  Tot=              4.1785
 Quadrupole moment (field-independent basis, Debye-Ang):
   XX=            -20.8975   YY=            -17.5175   ZZ=            -17.6844
   XY=             -0.0801   XZ=              0.0072   YZ=              0.0214

 Normal termination of Gaussian 09 at Wed Aug 26 23:10:00 2020.
