 Gaussian 09, Revision D.01,
 Gaussian 09:  ES64L-G09RevD.01 24-Apr-2013

 --------------------
 #p B2PLYPD3/Def2QZVP
 --------------------

 ------------
 cyanomethane
 ------------
 Symbolic Z-matrix:
 Charge =  0 Multiplicity = 1

                         Standard orientation:
 ---------------------------------------------------------------------
 Center     Atomic      Atomic             Coordinates (Angstroms)
 Number     Number       Type             X           Y           Z
 ---------------------------------------------------------------------
      1          6           0        1.173515    0.033350   -0.015723
      2          6           0       -0.275530   -0.029751   -0.051675
      3          7           0       -1.433353    0.005659    0.027997
      4          1           0        1.468626    1.083595    0.061009
      5          1           0        1.598699   -0.578858   -0.784347
      6          1           0        1.578237   -0.565949    0.931747
 ---------------------------------------------------------------------

 SCF Done:  E(RB2PLYPD3) =  -132.524588378     A.U. after   12 cycles
 E2(B2PLYPD3) =    -0.1817003364D+00 E(B2PLYPD3) =    -0.13270628871390D+03

 The electronic state is 1-A.
 Alpha  occ. eigenvalues --  -14.84374 -10.67961 -10.66414  -1.03885  -0.88860
 Alpha  occ. eigenvalues --   -0.59526  -0.55792  -0.50970  -0.44817  -0.39101
 Alpha  occ. eigenvalues --   -0.38333
 Alpha virt. eigenvalues --    0.03301   0.06807   0.08019   0.10111   0.11057
 Alpha virt. eigenvalues --    0.11927   0.15217   0.15787   0.16865   0.19935
 Alpha virt. eigenvalues --    0.20232   0.25641   0.31902   0.32945   0.35376

 Mulliken charges:
               1
     1  C   -0.093597
     2  C    0.003686
     3  N   -0.208998
     4  H    0.112551
     5  H    0.100008
     6  H    0.086349
 Sum of Mulliken charges =   0.00000

 Dipole moment (field-independent basis, Debye):
    X=              4.1118    Y=             -0.0462    Z=             -0.0351  Tot=              4.1122
 Quadrupole moment (field-independent basis, Debye-Ang):
   XX=            -21.1354   YY=            -17.4485   ZZ=            -18.1466
   XY=             -0.2068   XZ=              0.1643   YZ=              0.1101

 Normal termination of Gaussian 09 at Wed Aug 26 23:46:08 2020.
