 Gaussian 09, Revision D.01,
 Gaussian 09:  ES64L-G09RevD.01 24-Apr-2013

 --------------------
 #p B2PLYPD3/Def2QZVP
 --------------------

 ------------
 cyanomethane
 ------------
 Symbolic Z-matrix:
 Charge =  0 Multiplicity = 1

                         Standard orientation:
 ---------------------------------------------------------------------
 Center     Atomic      Atomic             Coordinates (Angstroms)
 Number     Number       Type             X           Y           Z
 ---------------------------------------------------------------------
      1          6           0       -1.179860    0.001724    0.011013
      2          6           0        0.268634    0.024557   -0.009307
      3          7           0        1.430384   -0.016004    0.005592
      4          1           0       -1.470032    0.974995   -0.116234
      5          1           0       -1.556066   -0.421882    0.877627
      6          1           0       -1.519232   -0.598770   -0.810773
 ---------------------------------------------------------------------

 SCF Done:  E(RB2PLYPD3) =  -132.529554064     A.U. after   12 cycles
 E2(B2PLYPD3) =    -0.1806408550D+00 E(B2PLYPD3) =    -0.13271019491945D+03

 The electronic state is 1-A.
 Alpha  occ. eigenvalues --  -14.84294 -10.66318 -10.65667  -1.03784  -0.90583
 Alpha  occ. eigenvalues --   -0.60100  -0.56132  -0.54402  -0.44725  -0.38954
 Alpha  occ. eigenvalues --   -0.38774
 Alpha virt. eigenvalues --    0.03937   0.08012   0.08689   0.10134   0.11145
 Alpha virt. eigenvalues --    0.11449   0.15485   0.15773   0.16584   0.20114
 Alpha virt. eigenvalues --    0.20217   0.25509   0.33023   0.34771   0.35685

 Mulliken charges:
               1
     1  C   -0.073580
     2  C   -0.001609
     3  N   -0.212448
     4  H    0.099286
     5  H    0.095876
     6  H    0.092475
 Sum of Mulliken charges =   0.00000

 Dipole moment (field-independent basis, Debye):
    X=             -4.1417    Y=              0.0149    Z=             -0.0142  Tot=              4.1418
 Quadrupole moment (field-independent basis, Debye-Ang):
   XX=            -20.9984   YY=            -17.6148   ZZ=            -17.7403
   XY=              0.1566   XZ=             -0.0444   YZ=             -0.0374

 Normal termination of Gaussian 09 at Wed Aug 26 13:42:15 2020.
