 Gaussian 09, Revision D.01,
 Gaussian 09:  ES64L-G09RevD.01 24-Apr-2013

 --------------------
 #p B2PLYPD3/Def2QZVP
 --------------------

 ------------
 cyanomethane
 ------------
 Symbolic Z-matrix:
 Charge =  0 Multiplicity = 1

                         Standard orientation:
 ---------------------------------------------------------------------
 Center     Atomic      Atomic             Coordinates (Angstroms)
 Number     Number       Type             X           Y           Z
 ---------------------------------------------------------------------
      1          6           0       -1.171960    0.002538   -0.012653
      2          6           0        0.265407    0.027147   -0.010884
      3          7           0        1.429809   -0.018185    0.006430
      4          1           0       -1.482876    0.949109   -0.456410
      5          1           0       -1.518985   -0.068487    1.101687
      6          1           0       -1.567482   -0.931433   -0.549066
 ---------------------------------------------------------------------

 SCF Done:  E(RB2PLYPD3) =  -132.526361946     A.U. after   12 cycles
 E2(B2PLYPD3) =    -0.1821042027D+00 E(B2PLYPD3) =    -0.13270846614879D+03

 The electronic state is 1-A.
 Alpha  occ. eigenvalues --  -14.84352 -10.68367 -10.66377  -1.03661  -0.88864
 Alpha  occ. eigenvalues --   -0.58751  -0.54610  -0.52324  -0.44720  -0.38654
 Alpha  occ. eigenvalues --   -0.38327
 Alpha virt. eigenvalues --    0.03395   0.06675   0.07752   0.10080   0.11284
 Alpha virt. eigenvalues --    0.11766   0.15256   0.15584   0.16300   0.20088
 Alpha virt. eigenvalues --    0.20233   0.25613   0.32222   0.32934   0.34387

 Mulliken charges:
               1
     1  C   -0.110636
     2  C    0.003143
     3  N   -0.211848
     4  H    0.111298
     5  H    0.101419
     6  H    0.106624
 Sum of Mulliken charges =   0.00000

 Dipole moment (field-independent basis, Debye):
    X=             -4.0957    Y=              0.0227    Z=              0.0009  Tot=              4.0957
 Quadrupole moment (field-independent basis, Debye-Ang):
   XX=            -21.4241   YY=            -17.6285   ZZ=            -17.8372
   XY=              0.1700   XZ=             -0.0534   YZ=             -0.0364

 Normal termination of Gaussian 09 at Wed Aug 26 12:56:12 2020.
