 Gaussian 09, Revision D.01,
 Gaussian 09:  ES64L-G09RevD.01 24-Apr-2013

 --------------------
 #p B2PLYPD3/Def2QZVP
 --------------------

 ------------
 cyanomethane
 ------------
 Symbolic Z-matrix:
 Charge =  0 Multiplicity = 1

                         Standard orientation:
 ---------------------------------------------------------------------
 Center     Atomic      Atomic             Coordinates (Angstroms)
 Number     Number       Type             X           Y           Z
 ---------------------------------------------------------------------
      1          6           0       -1.181392   -0.009855    0.007913
      2          6           0        0.288636    0.010470   -0.018592
      3          7           0        1.435307   -0.003558    0.008675
      4          1           0       -1.555778   -0.293501    0.961806
      5          1           0       -1.558127   -0.680529   -0.738791
      6          1           0       -1.576707    0.995245   -0.219670
 ---------------------------------------------------------------------

 SCF Done:  E(RB2PLYPD3) =  -132.535450034     A.U. after   11 cycles
 E2(B2PLYPD3) =    -0.1797256266D+00 E(B2PLYPD3) =    -0.13271517566080D+03

 The electronic state is 1-A.
 Alpha  occ. eigenvalues --  -14.84046 -10.66913 -10.66136  -1.04420  -0.89146
 Alpha  occ. eigenvalues --   -0.59858  -0.54372  -0.53381  -0.44798  -0.39427
 Alpha  occ. eigenvalues --   -0.39278
 Alpha virt. eigenvalues --    0.03799   0.08047   0.08279   0.10208   0.11405
 Alpha virt. eigenvalues --    0.11542   0.15389   0.16295   0.16755   0.20031
 Alpha virt. eigenvalues --    0.20055   0.25159   0.32713   0.34518   0.35228

 Mulliken charges:
               1
     1  C   -0.077378
     2  C   -0.002389
     3  N   -0.201899
     4  H    0.096290
     5  H    0.094775
     6  H    0.090602
 Sum of Mulliken charges =   0.00000

 Dipole moment (field-independent basis, Debye):
    X=             -4.1281    Y=              0.0039    Z=             -0.0121  Tot=              4.1281
 Quadrupole moment (field-independent basis, Debye-Ang):
   XX=            -20.8748   YY=            -17.7793   ZZ=            -17.7313
   XY=              0.0047   XZ=             -0.0446   YZ=              0.0110

 Normal termination of Gaussian 09 at Wed Aug 26 23:59:45 2020.
