 Gaussian 09, Revision D.01,
 Gaussian 09:  ES64L-G09RevD.01 24-Apr-2013

 --------------------
 #p B2PLYPD3/Def2QZVP
 --------------------

 ------------
 cyanomethane
 ------------
 Symbolic Z-matrix:
 Charge =  0 Multiplicity = 1

                         Standard orientation:
 ---------------------------------------------------------------------
 Center     Atomic      Atomic             Coordinates (Angstroms)
 Number     Number       Type             X           Y           Z
 ---------------------------------------------------------------------
      1          6           0       -1.179813   -0.010124   -0.008132
      2          6           0        0.279901    0.018051   -0.000243
      3          7           0        1.430110   -0.004744    0.003141
      4          1           0       -1.562780   -0.095013    1.007473
      5          1           0       -1.479659   -0.856803   -0.564760
      6          1           0       -1.568858    0.937465   -0.414446
 ---------------------------------------------------------------------

 SCF Done:  E(RB2PLYPD3) =  -132.534948487     A.U. after   11 cycles
 E2(B2PLYPD3) =    -0.1800172054D+00 E(B2PLYPD3) =    -0.13271496569226D+03

 The electronic state is 1-A.
 Alpha  occ. eigenvalues --  -14.84014 -10.66935 -10.66068  -1.04240  -0.89383
 Alpha  occ. eigenvalues --   -0.59448  -0.55049  -0.53360  -0.44709  -0.39239
 Alpha  occ. eigenvalues --   -0.39058
 Alpha virt. eigenvalues --    0.03799   0.07917   0.08341   0.10206   0.11362
 Alpha virt. eigenvalues --    0.11592   0.15351   0.16242   0.16307   0.20033
 Alpha virt. eigenvalues --    0.20122   0.25309   0.32735   0.34319   0.35174

 Mulliken charges:
               1
     1  C   -0.086125
     2  C   -0.003458
     3  N   -0.204775
     4  H    0.094345
     5  H    0.103065
     6  H    0.096948
 Sum of Mulliken charges =   0.00000

 Dipole moment (field-independent basis, Debye):
    X=             -4.1194    Y=              0.0009    Z=              0.0126  Tot=              4.1194
 Quadrupole moment (field-independent basis, Debye-Ang):
   XX=            -21.0606   YY=            -17.6038   ZZ=            -17.8091
   XY=             -0.0273   XZ=             -0.1008   YZ=              0.0447

 Normal termination of Gaussian 09 at Thu Aug 27 01:12:00 2020.
