 Gaussian 09, Revision D.01,
 Gaussian 09:  ES64L-G09RevD.01 24-Apr-2013

 --------------------
 #p B2PLYPD3/Def2QZVP
 --------------------

 ------------
 cyanomethane
 ------------
 Symbolic Z-matrix:
 Charge =  0 Multiplicity = 1

                         Standard orientation:
 ---------------------------------------------------------------------
 Center     Atomic      Atomic             Coordinates (Angstroms)
 Number     Number       Type             X           Y           Z
 ---------------------------------------------------------------------
      1          6           0       -1.170087   -0.008063    0.026569
      2          6           0        0.275252   -0.013590   -0.050395
      3          7           0        1.417946    0.004455    0.015918
      4          1           0       -1.423908   -0.210957    0.954812
      5          1           0       -1.628948   -0.694346   -0.662460
      6          1           0       -1.503753    1.004037   -0.260820
 ---------------------------------------------------------------------

 SCF Done:  E(RB2PLYPD3) =  -132.527482404     A.U. after   12 cycles
 E2(B2PLYPD3) =    -0.1792558179D+00 E(B2PLYPD3) =    -0.13270673822170D+03

 The electronic state is 1-A.
 Alpha  occ. eigenvalues --  -14.83808 -10.65878 -10.65780  -1.04520  -0.90348
 Alpha  occ. eigenvalues --   -0.60034  -0.56250  -0.53573  -0.44690  -0.39438
 Alpha  occ. eigenvalues --   -0.39114
 Alpha virt. eigenvalues --    0.03912   0.08145   0.08716   0.10221   0.11447
 Alpha virt. eigenvalues --    0.11689   0.15535   0.16084   0.16538   0.20009
 Alpha virt. eigenvalues --    0.20106   0.25730   0.32893   0.34205   0.36083

 Mulliken charges:
               1
     1  C   -0.081125
     2  C   -0.002576
     3  N   -0.203570
     4  H    0.104476
     5  H    0.091006
     6  H    0.091788
 Sum of Mulliken charges =   0.00000

 Dipole moment (field-independent basis, Debye):
    X=             -4.0998    Y=             -0.0023    Z=             -0.0169  Tot=              4.0998
 Quadrupole moment (field-independent basis, Debye-Ang):
   XX=            -20.9719   YY=            -17.6634   ZZ=            -17.6185
   XY=              0.0225   XZ=              0.0305   YZ=             -0.0347

 Normal termination of Gaussian 09 at Wed Aug 26 22:47:25 2020.
