 Gaussian 09, Revision D.01,
 Gaussian 09:  ES64L-G09RevD.01 24-Apr-2013

 --------------------
 #p B2PLYPD3/Def2QZVP
 --------------------

 ------------
 cyanomethane
 ------------
 Symbolic Z-matrix:
 Charge =  0 Multiplicity = 1

                         Standard orientation:
 ---------------------------------------------------------------------
 Center     Atomic      Atomic             Coordinates (Angstroms)
 Number     Number       Type             X           Y           Z
 ---------------------------------------------------------------------
      1          6           0       -1.180064   -0.003821    0.005737
      2          6           0        0.275272    0.003459    0.004046
      3          7           0        1.431434   -0.002135   -0.005140
      4          1           0       -1.499734   -0.176382    1.007476
      5          1           0       -1.558610   -0.807086   -0.668521
      6          1           0       -1.532941    1.000582   -0.361672
 ---------------------------------------------------------------------

 SCF Done:  E(RB2PLYPD3) =  -132.533493164     A.U. after   12 cycles
 E2(B2PLYPD3) =    -0.1807546147D+00 E(B2PLYPD3) =    -0.13271424777820D+03

 The electronic state is 1-A.
 Alpha  occ. eigenvalues --  -14.84138 -10.67523 -10.66196  -1.03994  -0.89107
 Alpha  occ. eigenvalues --   -0.59088  -0.54473  -0.53400  -0.44695  -0.38978
 Alpha  occ. eigenvalues --   -0.38858
 Alpha virt. eigenvalues --    0.03670   0.07551   0.08127   0.10169   0.11397
 Alpha virt. eigenvalues --    0.11536   0.15320   0.15913   0.16264   0.20105
 Alpha virt. eigenvalues --    0.20119   0.25337   0.32515   0.33969   0.34671

 Mulliken charges:
               1
     1  C   -0.097320
     2  C   -0.001811
     3  N   -0.207581
     4  H    0.104839
     5  H    0.101138
     6  H    0.100735
 Sum of Mulliken charges =   0.00000

 Dipole moment (field-independent basis, Debye):
    X=             -4.1126    Y=             -0.0011    Z=              0.0180  Tot=              4.1127
 Quadrupole moment (field-independent basis, Debye-Ang):
   XX=            -21.2238   YY=            -17.6951   ZZ=            -17.7291
   XY=              0.0344   XZ=              0.0468   YZ=             -0.0090

 Normal termination of Gaussian 09 at Wed Aug 26 09:43:54 2020.
