 Gaussian 09, Revision D.01,
 Gaussian 09:  ES64L-G09RevD.01 24-Apr-2013

 --------------------
 #p B2PLYPD3/Def2QZVP
 --------------------

 ------------
 cyanomethane
 ------------
 Symbolic Z-matrix:
 Charge =  0 Multiplicity = 1

                         Standard orientation:
 ---------------------------------------------------------------------
 Center     Atomic      Atomic             Coordinates (Angstroms)
 Number     Number       Type             X           Y           Z
 ---------------------------------------------------------------------
      1          6           0       -1.178923    0.009712    0.001692
      2          6           0        0.276957    0.013647   -0.003511
      3          7           0        1.438958   -0.012343    0.002489
      4          1           0       -1.497218    1.018033   -0.132122
      5          1           0       -1.585509   -0.419838    0.934030
      6          1           0       -1.578190   -0.651954   -0.808416
 ---------------------------------------------------------------------

 SCF Done:  E(RB2PLYPD3) =  -132.532972215     A.U. after   12 cycles
 E2(B2PLYPD3) =    -0.1812742099D+00 E(B2PLYPD3) =    -0.13271424642532D+03

 The electronic state is 1-A.
 Alpha  occ. eigenvalues --  -14.84422 -10.67357 -10.66496  -1.03815  -0.89149
 Alpha  occ. eigenvalues --   -0.59710  -0.54864  -0.52710  -0.44823  -0.38963
 Alpha  occ. eigenvalues --   -0.38729
 Alpha virt. eigenvalues --    0.03682   0.07287   0.08057   0.10154   0.11191
 Alpha virt. eigenvalues --    0.11600   0.15330   0.16175   0.16459   0.20053
 Alpha virt. eigenvalues --    0.20195   0.25360   0.32550   0.34012   0.34968

 Mulliken charges:
               1
     1  C   -0.085288
     2  C    0.000124
     3  N   -0.209558
     4  H    0.103544
     5  H    0.096192
     6  H    0.094987
 Sum of Mulliken charges =   0.00000

 Dipole moment (field-independent basis, Debye):
    X=             -4.1370    Y=              0.0056    Z=              0.0008  Tot=              4.1370
 Quadrupole moment (field-independent basis, Debye-Ang):
   XX=            -21.0258   YY=            -17.6644   ZZ=            -17.9098
   XY=              0.1746   XZ=             -0.0376   YZ=             -0.0266

 Normal termination of Gaussian 09 at Wed Aug 26 18:48:20 2020.
