 Gaussian 09, Revision D.01,
 Gaussian 09:  ES64L-G09RevD.01 24-Apr-2013

 --------------------
 #p B2PLYPD3/Def2QZVP
 --------------------

 ------------
 cyanomethane
 ------------
 Symbolic Z-matrix:
 Charge =  0 Multiplicity = 1

                         Standard orientation:
 ---------------------------------------------------------------------
 Center     Atomic      Atomic             Coordinates (Angstroms)
 Number     Number       Type             X           Y           Z
 ---------------------------------------------------------------------
      1          6           0       -1.174308    0.019307    0.014546
      2          6           0        0.264934   -0.009606    0.009206
      3          7           0        1.429025    0.005601   -0.005958
      4          1           0       -1.505595   -0.457194    0.927367
      5          1           0       -1.493298   -0.659893   -0.876097
      6          1           0       -1.548035    1.019674   -0.152073
 ---------------------------------------------------------------------

 SCF Done:  E(RB2PLYPD3) =  -132.529670774     A.U. after   12 cycles
 E2(B2PLYPD3) =    -0.1816077361D+00 E(B2PLYPD3) =    -0.13271127851018D+03

 The electronic state is 1-A.
 Alpha  occ. eigenvalues --  -14.84285 -10.67617 -10.66330  -1.03687  -0.89365
 Alpha  occ. eigenvalues --   -0.59228  -0.55342  -0.52695  -0.44692  -0.38810
 Alpha  occ. eigenvalues --   -0.38333
 Alpha virt. eigenvalues --    0.03596   0.07267   0.07887   0.10088   0.11219
 Alpha virt. eigenvalues --    0.11749   0.15347   0.15448   0.16492   0.20108
 Alpha virt. eigenvalues --    0.20235   0.25592   0.32149   0.33278   0.35229

 Mulliken charges:
               1
     1  C   -0.102077
     2  C    0.001715
     3  N   -0.212625
     4  H    0.107159
     5  H    0.096848
     6  H    0.108980
 Sum of Mulliken charges =   0.00000

 Dipole moment (field-independent basis, Debye):
    X=             -4.1130    Y=             -0.0175    Z=              0.0045  Tot=              4.1130
 Quadrupole moment (field-independent basis, Debye-Ang):
   XX=            -21.3390   YY=            -17.6514   ZZ=            -17.7705
   XY=             -0.0464   XZ=              0.0398   YZ=             -0.0938

 Normal termination of Gaussian 09 at Wed Aug 26 12:19:26 2020.
