 Gaussian 09, Revision D.01,
 Gaussian 09:  ES64L-G09RevD.01 24-Apr-2013

 --------------------
 #p B2PLYPD3/Def2QZVP
 --------------------

 ------------
 cyanomethane
 ------------
 Symbolic Z-matrix:
 Charge =  0 Multiplicity = 1

                         Standard orientation:
 ---------------------------------------------------------------------
 Center     Atomic      Atomic             Coordinates (Angstroms)
 Number     Number       Type             X           Y           Z
 ---------------------------------------------------------------------
      1          6           0       -1.188628    0.014203   -0.007433
      2          6           0        0.276501   -0.035262    0.000181
      3          7           0        1.443158    0.016618    0.001277
      4          1           0       -1.552073   -0.084012    1.005769
      5          1           0       -1.542083   -0.853856   -0.558130
      6          1           0       -1.535187    0.947893   -0.413067
 ---------------------------------------------------------------------

 SCF Done:  E(RB2PLYPD3) =  -132.533447608     A.U. after   12 cycles
 E2(B2PLYPD3) =    -0.1815568468D+00 E(B2PLYPD3) =    -0.13271500445477D+03

 The electronic state is 1-A.
 Alpha  occ. eigenvalues --  -14.84548 -10.67035 -10.66644  -1.03554  -0.89337
 Alpha  occ. eigenvalues --   -0.59550  -0.54799  -0.53622  -0.44788  -0.38858
 Alpha  occ. eigenvalues --   -0.38690
 Alpha virt. eigenvalues --    0.03744   0.07717   0.07949   0.10133   0.11142
 Alpha virt. eigenvalues --    0.11352   0.15276   0.15804   0.16581   0.20091
 Alpha virt. eigenvalues --    0.20196   0.25263   0.32542   0.34342   0.35056

 Mulliken charges:
               1
     1  C   -0.083754
     2  C    0.000116
     3  N   -0.212740
     4  H    0.095309
     5  H    0.098187
     6  H    0.102881
 Sum of Mulliken charges =   0.00000

 Dipole moment (field-independent basis, Debye):
    X=             -4.1486    Y=             -0.0277    Z=              0.0202  Tot=              4.1487
 Quadrupole moment (field-independent basis, Debye-Ang):
   XX=            -21.0580   YY=            -17.6479   ZZ=            -17.8970
   XY=             -0.0621   XZ=             -0.0744   YZ=             -0.0144

 Normal termination of Gaussian 09 at Wed Aug 26 10:29:34 2020.
