 Gaussian 09, Revision D.01,
 Gaussian 09:  ES64L-G09RevD.01 24-Apr-2013

 --------------------
 #p B2PLYPD3/Def2QZVP
 --------------------

 ------------
 cyanomethane
 ------------
 Symbolic Z-matrix:
 Charge =  0 Multiplicity = 1

                         Standard orientation:
 ---------------------------------------------------------------------
 Center     Atomic      Atomic             Coordinates (Angstroms)
 Number     Number       Type             X           Y           Z
 ---------------------------------------------------------------------
      1          6           0        1.160077    0.006016   -0.003378
      2          6           0       -0.263042    0.074224    0.017455
      3          7           0       -1.452337   -0.040203   -0.004320
      4          1           0        1.660356   -0.208594    0.933437
      5          1           0        1.561598    0.856336   -0.382291
      6          1           0        1.562194   -0.847761   -0.605373
 ---------------------------------------------------------------------

 SCF Done:  E(RB2PLYPD3) =  -132.519846991     A.U. after   12 cycles
 E2(B2PLYPD3) =    -0.1843135941D+00 E(B2PLYPD3) =    -0.13270416058488D+03

 The electronic state is 1-A.
 Alpha  occ. eigenvalues --  -14.85569 -10.67569 -10.66297  -1.02821  -0.90162
 Alpha  occ. eigenvalues --   -0.62214  -0.55459  -0.52055  -0.45255  -0.38354
 Alpha  occ. eigenvalues --   -0.37915
 Alpha virt. eigenvalues --    0.03396   0.06222   0.07448   0.09891   0.10953
 Alpha virt. eigenvalues --    0.11696   0.15648   0.16528   0.17003   0.20065
 Alpha virt. eigenvalues --    0.20465   0.26165   0.32830   0.33898   0.35400

 Mulliken charges:
               1
     1  C   -0.051369
     2  C    0.012084
     3  N   -0.220990
     4  H    0.083713
     5  H    0.092718
     6  H    0.083844
 Sum of Mulliken charges =   0.00000

 Dipole moment (field-independent basis, Debye):
    X=              4.1929    Y=              0.0224    Z=              0.0068  Tot=              4.1930
 Quadrupole moment (field-independent basis, Debye-Ang):
   XX=            -20.5050   YY=            -17.8504   ZZ=            -18.1217
   XY=             -0.2775   XZ=              0.0513   YZ=             -0.0964

 Normal termination of Gaussian 09 at Wed Aug 26 18:43:09 2020.
