 Gaussian 09, Revision D.01,
 Gaussian 09:  ES64L-G09RevD.01 24-Apr-2013

 --------------------
 #p B2PLYPD3/Def2QZVP
 --------------------

 ------------
 cyanomethane
 ------------
 Symbolic Z-matrix:
 Charge =  0 Multiplicity = 1

                         Standard orientation:
 ---------------------------------------------------------------------
 Center     Atomic      Atomic             Coordinates (Angstroms)
 Number     Number       Type             X           Y           Z
 ---------------------------------------------------------------------
      1          6           0       -1.178957   -0.001852   -0.000553
      2          6           0        0.261667    0.007331   -0.025771
      3          7           0        1.430559   -0.000494    0.007624
      4          1           0       -1.510739   -0.891294   -0.530245
      5          1           0       -1.573821    0.927501   -0.432771
      6          1           0       -1.425613   -0.065620    1.067588
 ---------------------------------------------------------------------

 SCF Done:  E(RB2PLYPD3) =  -132.532174625     A.U. after   12 cycles
 E2(B2PLYPD3) =    -0.1818179223D+00 E(B2PLYPD3) =    -0.13271399254707D+03

 The electronic state is 1-A.
 Alpha  occ. eigenvalues --  -14.84376 -10.67236 -10.66435  -1.03465  -0.89668
 Alpha  occ. eigenvalues --   -0.59054  -0.54749  -0.54223  -0.44653  -0.38574
 Alpha  occ. eigenvalues --   -0.38398
 Alpha virt. eigenvalues --    0.03715   0.07616   0.07830   0.10134   0.11236
 Alpha virt. eigenvalues --    0.11486   0.15304   0.15547   0.16145   0.20161
 Alpha virt. eigenvalues --    0.20236   0.25576   0.32599   0.33992   0.34692

 Mulliken charges:
               1
     1  C   -0.099918
     2  C    0.000037
     3  N   -0.215751
     4  H    0.105864
     5  H    0.104077
     6  H    0.105691
 Sum of Mulliken charges =   0.00000

 Dipole moment (field-independent basis, Debye):
    X=             -4.1258    Y=             -0.0042    Z=              0.0079  Tot=              4.1258
 Quadrupole moment (field-independent basis, Debye-Ang):
   XX=            -21.3515   YY=            -17.6520   ZZ=            -17.7393
   XY=             -0.0441   XZ=              0.0272   YZ=              0.0116

 Normal termination of Gaussian 09 at Wed Aug 26 13:45:56 2020.
