 Gaussian 09, Revision D.01,
 Gaussian 09:  ES64L-G09RevD.01 24-Apr-2013

 --------------------
 #p B2PLYPD3/Def2QZVP
 --------------------

 ------------
 cyanomethane
 ------------
 Symbolic Z-matrix:
 Charge =  0 Multiplicity = 1

                         Standard orientation:
 ---------------------------------------------------------------------
 Center     Atomic      Atomic             Coordinates (Angstroms)
 Number     Number       Type             X           Y           Z
 ---------------------------------------------------------------------
      1          6           0        1.182513    0.009622   -0.001288
      2          6           0       -0.266102   -0.008547   -0.036470
      3          7           0       -1.433439    0.000380    0.015150
      4          1           0        1.475331    1.051903   -0.038267
      5          1           0        1.577220   -0.599615   -0.807929
      6          1           0        1.483058   -0.461395    0.966697
 ---------------------------------------------------------------------

 SCF Done:  E(RB2PLYPD3) =  -132.532133422     A.U. after   12 cycles
 E2(B2PLYPD3) =    -0.1817714163D+00 E(B2PLYPD3) =    -0.13271390483857D+03

 The electronic state is 1-A.
 Alpha  occ. eigenvalues --  -14.84405 -10.67334 -10.66468  -1.03496  -0.89452
 Alpha  occ. eigenvalues --   -0.59037  -0.55137  -0.53548  -0.44676  -0.38681
 Alpha  occ. eigenvalues --   -0.38446
 Alpha virt. eigenvalues --    0.03665   0.07551   0.07931   0.10143   0.11147
 Alpha virt. eigenvalues --    0.11492   0.15265   0.15768   0.16028   0.20125
 Alpha virt. eigenvalues --    0.20220   0.25478   0.32590   0.33743   0.34905

 Mulliken charges:
               1
     1  C   -0.098272
     2  C   -0.000035
     3  N   -0.214599
     4  H    0.108298
     5  H    0.102932
     6  H    0.101675
 Sum of Mulliken charges =   0.00000

 Dipole moment (field-independent basis, Debye):
    X=              4.1253    Y=             -0.0110    Z=             -0.0071  Tot=              4.1254
 Quadrupole moment (field-independent basis, Debye-Ang):
   XX=            -21.3147   YY=            -17.6111   ZZ=            -17.8135
   XY=             -0.0865   XZ=              0.0384   YZ=              0.0218

 Normal termination of Gaussian 09 at Wed Aug 26 13:23:44 2020.
