 Gaussian 09, Revision D.01,
 Gaussian 09:  ES64L-G09RevD.01 24-Apr-2013

 --------------------
 #p B2PLYPD3/Def2QZVP
 --------------------

 ------------
 cyanomethane
 ------------
 Symbolic Z-matrix:
 Charge =  0 Multiplicity = 1

                         Standard orientation:
 ---------------------------------------------------------------------
 Center     Atomic      Atomic             Coordinates (Angstroms)
 Number     Number       Type             X           Y           Z
 ---------------------------------------------------------------------
      1          6           0       -1.175945    0.001338   -0.001390
      2          6           0        0.275464   -0.007890   -0.000574
      3          7           0        1.429383    0.001752   -0.001211
      4          1           0       -1.516102    0.962580   -0.410832
      5          1           0       -1.515349   -0.102065    1.031937
      6          1           0       -1.571343   -0.833466   -0.600844
 ---------------------------------------------------------------------

 SCF Done:  E(RB2PLYPD3) =  -132.535340342     A.U. after   11 cycles
 E2(B2PLYPD3) =    -0.1804872370D+00 E(B2PLYPD3) =    -0.13271582757904D+03

 The electronic state is 1-A.
 Alpha  occ. eigenvalues --  -14.84088 -10.67325 -10.66131  -1.04105  -0.89212
 Alpha  occ. eigenvalues --   -0.59330  -0.54058  -0.53893  -0.44715  -0.39000
 Alpha  occ. eigenvalues --   -0.38961
 Alpha virt. eigenvalues --    0.03729   0.07803   0.07966   0.10174   0.11489
 Alpha virt. eigenvalues --    0.11533   0.15384   0.16007   0.16348   0.20093
 Alpha virt. eigenvalues --    0.20113   0.25426   0.32724   0.34369   0.34523

 Mulliken charges:
               1
     1  C   -0.092812
     2  C   -0.002072
     3  N   -0.206460
     4  H    0.101259
     5  H    0.100281
     6  H    0.099804
 Sum of Mulliken charges =   0.00000

 Dipole moment (field-independent basis, Debye):
    X=             -4.1143    Y=             -0.0003    Z=              0.0099  Tot=              4.1143
 Quadrupole moment (field-independent basis, Debye-Ang):
   XX=            -21.1510   YY=            -17.6886   ZZ=            -17.7375
   XY=              0.0258   XZ=              0.0162   YZ=             -0.0041

 Normal termination of Gaussian 09 at Wed Aug 26 12:22:47 2020.
