 Gaussian 09, Revision D.01,
 Gaussian 09:  ES64L-G09RevD.01 24-Apr-2013

 --------------------
 #p B2PLYPD3/Def2QZVP
 --------------------

 ------------
 cyanomethane
 ------------
 Symbolic Z-matrix:
 Charge =  0 Multiplicity = 1

                         Standard orientation:
 ---------------------------------------------------------------------
 Center     Atomic      Atomic             Coordinates (Angstroms)
 Number     Number       Type             X           Y           Z
 ---------------------------------------------------------------------
      1          6           0       -1.181968   -0.003233    0.010484
      2          6           0        0.271621    0.012831   -0.014629
      3          7           0        1.437136   -0.006604    0.002862
      4          1           0       -1.574727   -0.632160   -0.796706
      5          1           0       -1.536193    1.011186   -0.135042
      6          1           0       -1.486946   -0.390389    0.936581
 ---------------------------------------------------------------------

 SCF Done:  E(RB2PLYPD3) =  -132.533492993     A.U. after   11 cycles
 E2(B2PLYPD3) =    -0.1812682037D+00 E(B2PLYPD3) =    -0.13271476119656D+03

 The electronic state is 1-A.
 Alpha  occ. eigenvalues --  -14.84434 -10.66760 -10.66495  -1.03643  -0.89694
 Alpha  occ. eigenvalues --   -0.59656  -0.55084  -0.53854  -0.44761  -0.38820
 Alpha  occ. eigenvalues --   -0.38712
 Alpha virt. eigenvalues --    0.03810   0.07711   0.08098   0.10163   0.11246
 Alpha virt. eigenvalues --    0.11367   0.15383   0.16021   0.16258   0.20136
 Alpha virt. eigenvalues --    0.20173   0.25399   0.32641   0.34460   0.35096

 Mulliken charges:
               1
     1  C   -0.083618
     2  C   -0.000914
     3  N   -0.212560
     4  H    0.096022
     5  H    0.098520
     6  H    0.102550
 Sum of Mulliken charges =   0.00000

 Dipole moment (field-independent basis, Debye):
    X=             -4.1428    Y=              0.0052    Z=              0.0011  Tot=              4.1428
 Quadrupole moment (field-independent basis, Debye-Ang):
   XX=            -21.0773   YY=            -17.7275   ZZ=            -17.7502
   XY=              0.0478   XZ=              0.0429   YZ=             -0.0375

 Normal termination of Gaussian 09 at Thu Aug 27 00:05:02 2020.
