 Gaussian 09, Revision D.01,
 Gaussian 09:  ES64L-G09RevD.01 24-Apr-2013

 --------------------
 #p B2PLYPD3/Def2QZVP
 --------------------

 ------------
 cyanomethane
 ------------
 Symbolic Z-matrix:
 Charge =  0 Multiplicity = 1

                         Standard orientation:
 ---------------------------------------------------------------------
 Center     Atomic      Atomic             Coordinates (Angstroms)
 Number     Number       Type             X           Y           Z
 ---------------------------------------------------------------------
      1          6           0       -1.183603    0.001472   -0.001793
      2          6           0        0.276487   -0.004787    0.025040
      3          7           0        1.439788    0.003359   -0.012826
      4          1           0       -1.544853   -0.122377    0.984656
      5          1           0       -1.533680   -0.829207   -0.620122
      6          1           0       -1.557288    0.947964   -0.414229
 ---------------------------------------------------------------------

 SCF Done:  E(RB2PLYPD3) =  -132.534133223     A.U. after   11 cycles
 E2(B2PLYPD3) =    -0.1812010576D+00 E(B2PLYPD3) =    -0.13271533428088D+03

 The electronic state is 1-A.
 Alpha  occ. eigenvalues --  -14.84442 -10.67003 -10.66520  -1.03724  -0.89378
 Alpha  occ. eigenvalues --   -0.59665  -0.54450  -0.53850  -0.44794  -0.38882
 Alpha  occ. eigenvalues --   -0.38823
 Alpha virt. eigenvalues --    0.03739   0.07630   0.08115   0.10168   0.11244
 Alpha virt. eigenvalues --    0.11376   0.15355   0.15995   0.16465   0.20113
 Alpha virt. eigenvalues --    0.20151   0.25308   0.32641   0.34505   0.34825

 Mulliken charges:
               1
     1  C   -0.083366
     2  C   -0.000502
     3  N   -0.210842
     4  H    0.098460
     5  H    0.098092
     6  H    0.098158
 Sum of Mulliken charges =   0.00000

 Dipole moment (field-independent basis, Debye):
    X=             -4.1429    Y=             -0.0098    Z=              0.0254  Tot=              4.1429
 Quadrupole moment (field-independent basis, Debye-Ang):
   XX=            -21.0308   YY=            -17.7368   ZZ=            -17.7909
   XY=             -0.0230   XZ=              0.0472   YZ=             -0.0033

 Normal termination of Gaussian 09 at Thu Aug 27 00:12:15 2020.
