 Gaussian 09, Revision D.01,
 Gaussian 09:  ES64L-G09RevD.01 24-Apr-2013

 --------------------
 #p B2PLYPD3/Def2QZVP
 --------------------

 ------------
 cyanomethane
 ------------
 Symbolic Z-matrix:
 Charge =  0 Multiplicity = 1

                         Standard orientation:
 ---------------------------------------------------------------------
 Center     Atomic      Atomic             Coordinates (Angstroms)
 Number     Number       Type             X           Y           Z
 ---------------------------------------------------------------------
      1          6           0       -1.165260    0.006434    0.007418
      2          6           0        0.285597    0.028969   -0.002352
      3          7           0        1.430996   -0.013961    0.001426
      4          1           0       -1.586686   -0.283695    0.973768
      5          1           0       -1.548070   -0.780154   -0.716525
      6          1           0       -1.604246    0.949155   -0.297616
 ---------------------------------------------------------------------

 SCF Done:  E(RB2PLYPD3) =  -132.533954079     A.U. after   11 cycles
 E2(B2PLYPD3) =    -0.1800417579D+00 E(B2PLYPD3) =    -0.13271399583708D+03

 The electronic state is 1-A.
 Alpha  occ. eigenvalues --  -14.84084 -10.67428 -10.66134  -1.04550  -0.88876
 Alpha  occ. eigenvalues --   -0.60312  -0.53924  -0.52486  -0.44899  -0.39400
 Alpha  occ. eigenvalues --   -0.39109
 Alpha virt. eigenvalues --    0.03650   0.07502   0.07929   0.10159   0.11479
 Alpha virt. eigenvalues --    0.11843   0.15509   0.16454   0.16927   0.19983
 Alpha virt. eigenvalues --    0.20098   0.25517   0.32792   0.33836   0.35068

 Mulliken charges:
               1
     1  C   -0.078975
     2  C    0.000885
     3  N   -0.200525
     4  H    0.094095
     5  H    0.089512
     6  H    0.095009
 Sum of Mulliken charges =   0.00000

 Dipole moment (field-independent basis, Debye):
    X=             -4.1142    Y=              0.0094    Z=             -0.0016  Tot=              4.1142
 Quadrupole moment (field-independent basis, Debye-Ang):
   XX=            -20.8196   YY=            -17.7691   ZZ=            -17.8443
   XY=              0.0796   XZ=             -0.0216   YZ=             -0.0527

 Normal termination of Gaussian 09 at Wed Aug 26 14:11:23 2020.
