 Gaussian 09, Revision D.01,
 Gaussian 09:  ES64L-G09RevD.01 24-Apr-2013

 --------------------
 #p B2PLYPD3/Def2QZVP
 --------------------

 ------------
 cyanomethane
 ------------
 Symbolic Z-matrix:
 Charge =  0 Multiplicity = 1

                         Standard orientation:
 ---------------------------------------------------------------------
 Center     Atomic      Atomic             Coordinates (Angstroms)
 Number     Number       Type             X           Y           Z
 ---------------------------------------------------------------------
      1          6           0       -1.166497    0.011249   -0.045582
      2          6           0        0.254136   -0.053281    0.005187
      3          7           0        1.429812    0.025113    0.003346
      4          1           0       -1.533716   -0.027859    0.989712
      5          1           0       -1.513184   -0.821141   -0.426550
      6          1           0       -1.487617    0.925399   -0.344218
 ---------------------------------------------------------------------

 SCF Done:  E(RB2PLYPD3) =  -132.513950810     A.U. after   12 cycles
 E2(B2PLYPD3) =    -0.1821941433D+00 E(B2PLYPD3) =    -0.13269614495364D+03

 The electronic state is 1-A.
 Alpha  occ. eigenvalues --  -14.84699 -10.66670 -10.65073  -1.03290  -0.91478
 Alpha  occ. eigenvalues --   -0.61019  -0.58798  -0.52735  -0.44828  -0.38737
 Alpha  occ. eigenvalues --   -0.37942
 Alpha virt. eigenvalues --    0.03820   0.07361   0.08510   0.10022   0.10774
 Alpha virt. eigenvalues --    0.11818   0.15154   0.15908   0.17291   0.20080
 Alpha virt. eigenvalues --    0.20408   0.26103   0.32596   0.33969   0.36658

 Mulliken charges:
               1
     1  C   -0.060816
     2  C    0.006105
     3  N   -0.220815
     4  H    0.075441
     5  H    0.099258
     6  H    0.100828
 Sum of Mulliken charges =   0.00000

 Dipole moment (field-independent basis, Debye):
    X=             -4.1758    Y=             -0.0288    Z=              0.0755  Tot=              4.1766
 Quadrupole moment (field-independent basis, Debye-Ang):
   XX=            -20.8905   YY=            -17.4005   ZZ=            -18.0499
   XY=             -0.0916   XZ=             -0.2394   YZ=              0.0351

 Normal termination of Gaussian 09 at Wed Aug 26 23:04:49 2020.
