 Gaussian 09, Revision D.01,
 Gaussian 09:  ES64L-G09RevD.01 24-Apr-2013

 --------------------
 #p B2PLYPD3/Def2QZVP
 --------------------

 ------------
 cyanomethane
 ------------
 Symbolic Z-matrix:
 Charge =  0 Multiplicity = 1

                         Standard orientation:
 ---------------------------------------------------------------------
 Center     Atomic      Atomic             Coordinates (Angstroms)
 Number     Number       Type             X           Y           Z
 ---------------------------------------------------------------------
      1          6           0        1.185142    0.001299   -0.002754
      2          6           0       -0.286932   -0.020551    0.001995
      3          7           0       -1.434801    0.013034   -0.001494
      4          1           0        1.541591    0.012811    1.023885
      5          1           0        1.583674    0.897958   -0.508321
      6          1           0        1.529083   -0.886496   -0.500552
 ---------------------------------------------------------------------

 SCF Done:  E(RB2PLYPD3) =  -132.535477157     A.U. after   12 cycles
 E2(B2PLYPD3) =    -0.1799302497D+00 E(B2PLYPD3) =    -0.13271540740705D+03

 The electronic state is 1-A.
 Alpha  occ. eigenvalues --  -14.84023 -10.67224 -10.66114  -1.04324  -0.88976
 Alpha  occ. eigenvalues --   -0.59339  -0.54322  -0.53445  -0.44735  -0.39306
 Alpha  occ. eigenvalues --   -0.39234
 Alpha virt. eigenvalues --    0.03737   0.07880   0.08389   0.10209   0.11372
 Alpha virt. eigenvalues --    0.11528   0.15315   0.16046   0.16665   0.20024
 Alpha virt. eigenvalues --    0.20086   0.25101   0.32666   0.34517   0.34832

 Mulliken charges:
               1
     1  C   -0.086583
     2  C   -0.003624
     3  N   -0.202686
     4  H    0.096929
     5  H    0.096762
     6  H    0.099202
 Sum of Mulliken charges =   0.00000

 Dipole moment (field-independent basis, Debye):
    X=              4.1219    Y=             -0.0218    Z=              0.0099  Tot=              4.1220
 Quadrupole moment (field-independent basis, Debye-Ang):
   XX=            -21.0153   YY=            -17.7059   ZZ=            -17.7631
   XY=              0.1097   XZ=             -0.0021   YZ=              0.0249

 Normal termination of Gaussian 09 at Wed Aug 26 23:59:47 2020.
