 Gaussian 09, Revision D.01,
 Gaussian 09:  ES64L-G09RevD.01 24-Apr-2013

 --------------------
 #p B2PLYPD3/Def2QZVP
 --------------------

 ------------
 cyanomethane
 ------------
 Symbolic Z-matrix:
 Charge =  0 Multiplicity = 1

                         Standard orientation:
 ---------------------------------------------------------------------
 Center     Atomic      Atomic             Coordinates (Angstroms)
 Number     Number       Type             X           Y           Z
 ---------------------------------------------------------------------
      1          6           0       -1.185173   -0.010258    0.013558
      2          6           0        0.267363   -0.038839   -0.013549
      3          7           0        1.438560    0.019329    0.000803
      4          1           0       -1.458799   -0.121599    0.992148
      5          1           0       -1.582013   -0.751316   -0.643765
      6          1           0       -1.522248    1.032197   -0.354058
 ---------------------------------------------------------------------

 SCF Done:  E(RB2PLYPD3) =  -132.527005514     A.U. after   12 cycles
 E2(B2PLYPD3) =    -0.1820114526D+00 E(B2PLYPD3) =    -0.13270901696664D+03

 The electronic state is 1-A.
 Alpha  occ. eigenvalues --  -14.84593 -10.66933 -10.66660  -1.03367  -0.89769
 Alpha  occ. eigenvalues --   -0.59468  -0.56093  -0.52978  -0.44746  -0.38738
 Alpha  occ. eigenvalues --   -0.38359
 Alpha virt. eigenvalues --    0.03597   0.07341   0.08262   0.10151   0.10989
 Alpha virt. eigenvalues --    0.11451   0.15335   0.15853   0.16104   0.20121
 Alpha virt. eigenvalues --    0.20238   0.25419   0.32284   0.33475   0.35641

 Mulliken charges:
               1
     1  C   -0.090668
     2  C    0.000718
     3  N   -0.215995
     4  H    0.107492
     5  H    0.102636
     6  H    0.095816
 Sum of Mulliken charges =   0.00000

 Dipole moment (field-independent basis, Debye):
    X=             -4.1383    Y=             -0.0246    Z=              0.0115  Tot=              4.1384
 Quadrupole moment (field-independent basis, Debye-Ang):
   XX=            -21.1888   YY=            -17.7603   ZZ=            -17.7215
   XY=             -0.0706   XZ=              0.0594   YZ=              0.0422

 Normal termination of Gaussian 09 at Wed Aug 26 12:03:26 2020.
