 Gaussian 09, Revision D.01,
 Gaussian 09:  ES64L-G09RevD.01 24-Apr-2013

 --------------------
 #p B2PLYPD3/Def2QZVP
 --------------------

 ------------
 cyanomethane
 ------------
 Symbolic Z-matrix:
 Charge =  0 Multiplicity = 1

                         Standard orientation:
 ---------------------------------------------------------------------
 Center     Atomic      Atomic             Coordinates (Angstroms)
 Number     Number       Type             X           Y           Z
 ---------------------------------------------------------------------
      1          6           0        1.183454   -0.018800   -0.000701
      2          6           0       -0.263957   -0.014004   -0.040969
      3          7           0       -1.433930    0.003540    0.009609
      4          1           0        1.489464    1.024961   -0.239595
      5          1           0        1.675171   -0.699520   -0.561407
      6          1           0        1.355894   -0.153391    0.983755
 ---------------------------------------------------------------------

 SCF Done:  E(RB2PLYPD3) =  -132.521284537     A.U. after   12 cycles
 E2(B2PLYPD3) =    -0.1815358673D+00 E(B2PLYPD3) =    -0.13270282040403D+03

 The electronic state is 1-A.
 Alpha  occ. eigenvalues --  -14.84482 -10.66651 -10.65745  -1.03470  -0.90816
 Alpha  occ. eigenvalues --   -0.60738  -0.56075  -0.54138  -0.44719  -0.38779
 Alpha  occ. eigenvalues --   -0.38397
 Alpha virt. eigenvalues --    0.03869   0.07866   0.08489   0.10209   0.11084
 Alpha virt. eigenvalues --    0.11539   0.15198   0.15427   0.17043   0.20159
 Alpha virt. eigenvalues --    0.20294   0.25523   0.32450   0.34236   0.35974

 Mulliken charges:
               1
     1  C   -0.082362
     2  C    0.004138
     3  N   -0.217906
     4  H    0.094347
     5  H    0.098294
     6  H    0.103489
 Sum of Mulliken charges =   0.00000

 Dipole moment (field-independent basis, Debye):
    X=              4.1646    Y=             -0.0020    Z=              0.0396  Tot=              4.1647
 Quadrupole moment (field-independent basis, Debye-Ang):
   XX=            -20.9993   YY=            -17.6360   ZZ=            -17.8078
   XY=             -0.0742   XZ=             -0.0420   YZ=              0.0451

 Normal termination of Gaussian 09 at Wed Aug 26 16:27:54 2020.
