 Gaussian 09, Revision D.01,
 Gaussian 09:  ES64L-G09RevD.01 24-Apr-2013

 --------------------
 #p B2PLYPD3/Def2QZVP
 --------------------

 ------------
 cyanomethane
 ------------
 Symbolic Z-matrix:
 Charge =  0 Multiplicity = 1

                         Standard orientation:
 ---------------------------------------------------------------------
 Center     Atomic      Atomic             Coordinates (Angstroms)
 Number     Number       Type             X           Y           Z
 ---------------------------------------------------------------------
      1          6           0        1.177118    0.014095    0.001597
      2          6           0       -0.286148   -0.015170    0.003179
      3          7           0       -1.435477    0.005789   -0.003762
      4          1           0        1.562712    1.007363   -0.160239
      5          1           0        1.593637   -0.661533   -0.787285
      6          1           0        1.546165   -0.379908    0.945200
 ---------------------------------------------------------------------

 SCF Done:  E(RB2PLYPD3) =  -132.535019542     A.U. after   12 cycles
 E2(B2PLYPD3) =    -0.1801412857D+00 E(B2PLYPD3) =    -0.13271516082719D+03

 The electronic state is 1-A.
 Alpha  occ. eigenvalues --  -14.84124 -10.67310 -10.66207  -1.04342  -0.88932
 Alpha  occ. eigenvalues --   -0.59831  -0.54248  -0.52899  -0.44827  -0.39333
 Alpha  occ. eigenvalues --   -0.39124
 Alpha virt. eigenvalues --    0.03723   0.07726   0.08074   0.10185   0.11411
 Alpha virt. eigenvalues --    0.11629   0.15390   0.16200   0.16836   0.20029
 Alpha virt. eigenvalues --    0.20085   0.25275   0.32632   0.34207   0.35043

 Mulliken charges:
               1
     1  C   -0.081515
     2  C   -0.001101
     3  N   -0.202815
     4  H    0.099156
     5  H    0.091336
     6  H    0.094940
 Sum of Mulliken charges =   0.00000

 Dipole moment (field-independent basis, Debye):
    X=              4.1252    Y=             -0.0177    Z=              0.0142  Tot=              4.1252
 Quadrupole moment (field-independent basis, Debye-Ang):
   XX=            -20.9118   YY=            -17.7105   ZZ=            -17.8477
   XY=             -0.0063   XZ=             -0.0355   YZ=             -0.0376

 Normal termination of Gaussian 09 at Thu Aug 27 00:05:11 2020.
