 Gaussian 09, Revision D.01,
 Gaussian 09:  ES64L-G09RevD.01 24-Apr-2013

 --------------------
 #p B2PLYPD3/Def2QZVP
 --------------------

 ------------
 cyanomethane
 ------------
 Symbolic Z-matrix:
 Charge =  0 Multiplicity = 1

                         Standard orientation:
 ---------------------------------------------------------------------
 Center     Atomic      Atomic             Coordinates (Angstroms)
 Number     Number       Type             X           Y           Z
 ---------------------------------------------------------------------
      1          6           0       -1.174696    0.007732    0.002883
      2          6           0        0.281140   -0.008906   -0.001042
      3          7           0        1.435570    0.000799    0.001492
      4          1           0       -1.517472    0.887486   -0.497695
      5          1           0       -1.580691   -0.013198    0.997102
      6          1           0       -1.589489   -0.872838   -0.520898
 ---------------------------------------------------------------------

 SCF Done:  E(RB2PLYPD3) =  -132.535143968     A.U. after   11 cycles
 E2(B2PLYPD3) =    -0.1803952867D+00 E(B2PLYPD3) =    -0.13271553925499D+03

 The electronic state is 1-A.
 Alpha  occ. eigenvalues --  -14.84244 -10.66883 -10.66309  -1.04157  -0.89358
 Alpha  occ. eigenvalues --   -0.60167  -0.54406  -0.53358  -0.44847  -0.39161
 Alpha  occ. eigenvalues --   -0.39048
 Alpha virt. eigenvalues --    0.03792   0.07745   0.08091   0.10186   0.11406
 Alpha virt. eigenvalues --    0.11536   0.15450   0.16378   0.16617   0.20067
 Alpha virt. eigenvalues --    0.20109   0.25385   0.32745   0.34548   0.35058

 Mulliken charges:
               1
     1  C   -0.075736
     2  C   -0.000444
     3  N   -0.205858
     4  H    0.096797
     5  H    0.094103
     6  H    0.091137
 Sum of Mulliken charges =   0.00000

 Dipole moment (field-independent basis, Debye):
    X=             -4.1365    Y=              0.0027    Z=              0.0005  Tot=              4.1365
 Quadrupole moment (field-independent basis, Debye-Ang):
   XX=            -20.8707   YY=            -17.7591   ZZ=            -17.7961
   XY=              0.0432   XZ=             -0.0359   YZ=             -0.0362

 Normal termination of Gaussian 09 at Thu Aug 27 00:01:19 2020.
