 Gaussian 09, Revision D.01,
 Gaussian 09:  ES64L-G09RevD.01 24-Apr-2013

 --------------------
 #p B2PLYPD3/Def2QZVP
 --------------------

 ------------
 cyanomethane
 ------------
 Symbolic Z-matrix:
 Charge =  0 Multiplicity = 1

                         Standard orientation:
 ---------------------------------------------------------------------
 Center     Atomic      Atomic             Coordinates (Angstroms)
 Number     Number       Type             X           Y           Z
 ---------------------------------------------------------------------
      1          6           0        1.184638    0.036193    0.010984
      2          6           0       -0.280810   -0.084121    0.002951
      3          7           0       -1.409696    0.040287   -0.008377
      4          1           0        1.501057    0.979097   -0.327356
      5          1           0        1.538625   -0.772657   -0.669358
      6          1           0        1.405226   -0.200882    0.971737
 ---------------------------------------------------------------------

 SCF Done:  E(RB2PLYPD3) =  -132.526333838     A.U. after   12 cycles
 E2(B2PLYPD3) =    -0.1788082018D+00 E(B2PLYPD3) =    -0.13270514203940D+03

 The electronic state is 1-A.
 Alpha  occ. eigenvalues --  -14.83462 -10.66277 -10.65405  -1.04777  -0.89923
 Alpha  occ. eigenvalues --   -0.58602  -0.56302  -0.53766  -0.44512  -0.39622
 Alpha  occ. eigenvalues --   -0.39303
 Alpha virt. eigenvalues --    0.03758   0.08140   0.09439   0.10063   0.11350
 Alpha virt. eigenvalues --    0.11731   0.15055   0.15467   0.16825   0.19931
 Alpha virt. eigenvalues --    0.20107   0.25697   0.32716   0.34618   0.35653

 Mulliken charges:
               1
     1  C   -0.099100
     2  C   -0.007173
     3  N   -0.199136
     4  H    0.106585
     5  H    0.092626
     6  H    0.106199
 Sum of Mulliken charges =   0.00000

 Dipole moment (field-independent basis, Debye):
    X=              4.0367    Y=             -0.0698    Z=              0.0218  Tot=              4.0374
 Quadrupole moment (field-independent basis, Debye-Ang):
   XX=            -21.3014   YY=            -17.4938   ZZ=            -17.5931
   XY=              0.1998   XZ=             -0.1253   YZ=             -0.0857

 Normal termination of Gaussian 09 at Wed Aug 26 21:45:16 2020.
