 Gaussian 09, Revision D.01,
 Gaussian 09:  ES64L-G09RevD.01 24-Apr-2013

 --------------------
 #p B2PLYPD3/Def2QZVP
 --------------------

 ------------
 cyanomethane
 ------------
 Symbolic Z-matrix:
 Charge =  0 Multiplicity = 1

                         Standard orientation:
 ---------------------------------------------------------------------
 Center     Atomic      Atomic             Coordinates (Angstroms)
 Number     Number       Type             X           Y           Z
 ---------------------------------------------------------------------
      1          6           0       -1.184003    0.001867   -0.002654
      2          6           0        0.279814    0.011228    0.005645
      3          7           0        1.435360   -0.001337   -0.002763
      4          1           0       -1.515147   -0.422452    0.928907
      5          1           0       -1.503006   -0.647451   -0.801021
      6          1           0       -1.604234    1.000696   -0.126491
 ---------------------------------------------------------------------

 SCF Done:  E(RB2PLYPD3) =  -132.535286598     A.U. after   12 cycles
 E2(B2PLYPD3) =    -0.1804461117D+00 E(B2PLYPD3) =    -0.13271573271005D+03

 The electronic state is 1-A.
 Alpha  occ. eigenvalues --  -14.84178 -10.66967 -10.66266  -1.04029  -0.89348
 Alpha  occ. eigenvalues --   -0.59477  -0.54266  -0.54125  -0.44733  -0.39103
 Alpha  occ. eigenvalues --   -0.38999
 Alpha virt. eigenvalues --    0.03796   0.07938   0.08219   0.10207   0.11325
 Alpha virt. eigenvalues --    0.11463   0.15341   0.15910   0.16599   0.20079
 Alpha virt. eigenvalues --    0.20127   0.25210   0.32663   0.34574   0.34955

 Mulliken charges:
               1
     1  C   -0.085556
     2  C   -0.002414
     3  N   -0.207238
     4  H    0.097750
     5  H    0.098969
     6  H    0.098488
 Sum of Mulliken charges =   0.00000

 Dipole moment (field-independent basis, Debye):
    X=             -4.1341    Y=             -0.0179    Z=              0.0090  Tot=              4.1341
 Quadrupole moment (field-independent basis, Debye-Ang):
   XX=            -21.0434   YY=            -17.6779   ZZ=            -17.7847
   XY=             -0.0288   XZ=              0.0036   YZ=              0.0025

 Normal termination of Gaussian 09 at Thu Aug 27 00:01:57 2020.
