 Gaussian 09, Revision D.01,
 Gaussian 09:  ES64L-G09RevD.01 24-Apr-2013

 --------------------
 #p B2PLYPD3/Def2QZVP
 --------------------

 ------------
 cyanomethane
 ------------
 Symbolic Z-matrix:
 Charge =  0 Multiplicity = 1

                         Standard orientation:
 ---------------------------------------------------------------------
 Center     Atomic      Atomic             Coordinates (Angstroms)
 Number     Number       Type             X           Y           Z
 ---------------------------------------------------------------------
      1          6           0       -1.165386    0.023575   -0.010806
      2          6           0        0.257259   -0.034387    0.040722
      3          7           0        1.427807    0.022163   -0.026002
      4          1           0       -1.397943   -0.380602    0.866526
      5          1           0       -1.526305   -0.680100   -0.716269
      6          1           0       -1.621642    0.970430   -0.147737
 ---------------------------------------------------------------------

 SCF Done:  E(RB2PLYPD3) =  -132.519390007     A.U. after   13 cycles
 E2(B2PLYPD3) =    -0.1818902910D+00 E(B2PLYPD3) =    -0.13270128029768D+03

 The electronic state is 1-A.
 Alpha  occ. eigenvalues --  -14.84620 -10.66608 -10.65216  -1.03492  -0.91355
 Alpha  occ. eigenvalues --   -0.60855  -0.56012  -0.54671  -0.44848  -0.38651
 Alpha  occ. eigenvalues --   -0.38307
 Alpha virt. eigenvalues --    0.03788   0.07303   0.08808   0.09888   0.11254
 Alpha virt. eigenvalues --    0.11498   0.14883   0.15779   0.17738   0.20241
 Alpha virt. eigenvalues --    0.20403   0.26181   0.33256   0.34978   0.35529

 Mulliken charges:
               1
     1  C   -0.076168
     2  C    0.006545
     3  N   -0.218267
     4  H    0.098533
     5  H    0.090200
     6  H    0.099157
 Sum of Mulliken charges =   0.00000

 Dipole moment (field-independent basis, Debye):
    X=             -4.1567    Y=             -0.0803    Z=              0.0747  Tot=              4.1581
 Quadrupole moment (field-independent basis, Debye-Ang):
   XX=            -20.8666   YY=            -17.5403   ZZ=            -17.8975
   XY=             -0.0992   XZ=              0.1439   YZ=             -0.0332

 Normal termination of Gaussian 09 at Wed Aug 26 23:51:27 2020.
