 Gaussian 09, Revision D.01,
 Gaussian 09:  ES64L-G09RevD.01 24-Apr-2013

 --------------------
 #p B2PLYPD3/Def2QZVP
 --------------------

 ------------
 cyanomethane
 ------------
 Symbolic Z-matrix:
 Charge =  0 Multiplicity = 1

                         Standard orientation:
 ---------------------------------------------------------------------
 Center     Atomic      Atomic             Coordinates (Angstroms)
 Number     Number       Type             X           Y           Z
 ---------------------------------------------------------------------
      1          6           0       -1.178666    0.019754    0.005354
      2          6           0        0.295645   -0.026440   -0.028119
      3          7           0        1.433461    0.008099    0.013541
      4          1           0       -1.529679    1.040159   -0.077179
      5          1           0       -1.588978   -0.448825    0.922437
      6          1           0       -1.617447   -0.607913   -0.803452
 ---------------------------------------------------------------------

 SCF Done:  E(RB2PLYPD3) =  -132.534134491     A.U. after   11 cycles
 E2(B2PLYPD3) =    -0.1794118352D+00 E(B2PLYPD3) =    -0.13271354632658D+03

 The electronic state is 1-A.
 Alpha  occ. eigenvalues --  -14.83877 -10.67593 -10.65978  -1.04770  -0.88485
 Alpha  occ. eigenvalues --   -0.59609  -0.54247  -0.52232  -0.44811  -0.39681
 Alpha  occ. eigenvalues --   -0.39376
 Alpha virt. eigenvalues --    0.03667   0.07851   0.08138   0.10214   0.11453
 Alpha virt. eigenvalues --    0.11767   0.15303   0.16312   0.17017   0.19922
 Alpha virt. eigenvalues --    0.20046   0.25180   0.32584   0.34087   0.35075

 Mulliken charges:
               1
     1  C   -0.083067
     2  C   -0.002306
     3  N   -0.196564
     4  H    0.100909
     5  H    0.091745
     6  H    0.089283
 Sum of Mulliken charges =   0.00000

 Dipole moment (field-independent basis, Debye):
    X=             -4.1097    Y=             -0.0321    Z=             -0.0142  Tot=              4.1098
 Quadrupole moment (field-independent basis, Debye-Ang):
   XX=            -20.8678   YY=            -17.6185   ZZ=            -17.9433
   XY=              0.0720   XZ=             -0.0851   YZ=             -0.0226

 Normal termination of Gaussian 09 at Wed Aug 26 10:39:08 2020.
