 Gaussian 09, Revision D.01,
 Gaussian 09:  ES64L-G09RevD.01 24-Apr-2013

 --------------------
 #p B2PLYPD3/Def2QZVP
 --------------------

 ------------
 cyanomethane
 ------------
 Symbolic Z-matrix:
 Charge =  0 Multiplicity = 1

                         Standard orientation:
 ---------------------------------------------------------------------
 Center     Atomic      Atomic             Coordinates (Angstroms)
 Number     Number       Type             X           Y           Z
 ---------------------------------------------------------------------
      1          6           0       -1.190290    0.001304   -0.004388
      2          6           0        0.275226    0.011450    0.027906
      3          7           0        1.441582   -0.009330   -0.016073
      4          1           0       -1.508558   -0.052533    0.998679
      5          1           0       -1.585024   -0.867269   -0.553479
      6          1           0       -1.507111    0.908586   -0.473796
 ---------------------------------------------------------------------

 SCF Done:  E(RB2PLYPD3) =  -132.532523077     A.U. after   12 cycles
 E2(B2PLYPD3) =    -0.1814313298D+00 E(B2PLYPD3) =    -0.13271395440659D+03

 The electronic state is 1-A.
 Alpha  occ. eigenvalues --  -14.84499 -10.66836 -10.66588  -1.03555  -0.89553
 Alpha  occ. eigenvalues --   -0.59398  -0.55108  -0.53849  -0.44749  -0.38815
 Alpha  occ. eigenvalues --   -0.38745
 Alpha virt. eigenvalues --    0.03747   0.07607   0.08360   0.10152   0.11119
 Alpha virt. eigenvalues --    0.11310   0.15308   0.15670   0.16554   0.20135
 Alpha virt. eigenvalues --    0.20178   0.25211   0.32588   0.34577   0.34978

 Mulliken charges:
               1
     1  C   -0.085308
     2  C   -0.001112
     3  N   -0.212939
     4  H    0.100271
     5  H    0.097532
     6  H    0.101557
 Sum of Mulliken charges =   0.00000

 Dipole moment (field-independent basis, Debye):
    X=             -4.1467    Y=              0.0144    Z=              0.0306  Tot=              4.1468
 Quadrupole moment (field-independent basis, Debye-Ang):
   XX=            -21.0877   YY=            -17.7311   ZZ=            -17.7645
   XY=              0.1042   XZ=              0.0959   YZ=             -0.0340

 Normal termination of Gaussian 09 at Wed Aug 26 12:49:38 2020.
