 Gaussian 09, Revision D.01,
 Gaussian 09:  ES64L-G09RevD.01 24-Apr-2013

 --------------------
 #p B2PLYPD3/Def2QZVP
 --------------------

 ------------
 cyanomethane
 ------------
 Symbolic Z-matrix:
 Charge =  0 Multiplicity = 1

                         Standard orientation:
 ---------------------------------------------------------------------
 Center     Atomic      Atomic             Coordinates (Angstroms)
 Number     Number       Type             X           Y           Z
 ---------------------------------------------------------------------
      1          6           0       -1.182389    0.009085    0.007151
      2          6           0        0.293417   -0.031658   -0.027560
      3          7           0        1.435644    0.009914    0.012433
      4          1           0       -1.497480    1.061607   -0.152705
      5          1           0       -1.580695   -0.351316    0.944994
      6          1           0       -1.637501   -0.644254   -0.756870
 ---------------------------------------------------------------------

 SCF Done:  E(RB2PLYPD3) =  -132.534492916     A.U. after   12 cycles
 E2(B2PLYPD3) =    -0.1797246673D+00 E(B2PLYPD3) =    -0.13271421758367D+03

 The electronic state is 1-A.
 Alpha  occ. eigenvalues --  -14.83981 -10.67533 -10.66098  -1.04565  -0.88573
 Alpha  occ. eigenvalues --   -0.59637  -0.53743  -0.52931  -0.44797  -0.39451
 Alpha  occ. eigenvalues --   -0.39392
 Alpha virt. eigenvalues --    0.03672   0.07967   0.08034   0.10240   0.11493
 Alpha virt. eigenvalues --    0.11584   0.15230   0.16449   0.16685   0.19964
 Alpha virt. eigenvalues --    0.20048   0.25129   0.32544   0.34453   0.34666

 Mulliken charges:
               1
     1  C   -0.084731
     2  C   -0.001476
     3  N   -0.199480
     4  H    0.099064
     5  H    0.095078
     6  H    0.091545
 Sum of Mulliken charges =   0.00000

 Dipole moment (field-independent basis, Debye):
    X=             -4.1170    Y=             -0.0284    Z=             -0.0045  Tot=              4.1171
 Quadrupole moment (field-independent basis, Debye-Ang):
   XX=            -20.9029   YY=            -17.6531   ZZ=            -17.9059
   XY=              0.0813   XZ=             -0.0838   YZ=             -0.0271

 Normal termination of Gaussian 09 at Wed Aug 26 15:26:55 2020.
