 Gaussian 09, Revision D.01,
 Gaussian 09:  ES64L-G09RevD.01 24-Apr-2013

 --------------------
 #p B2PLYPD3/Def2QZVP
 --------------------

 ------------
 cyanomethane
 ------------
 Symbolic Z-matrix:
 Charge =  0 Multiplicity = 1

                         Standard orientation:
 ---------------------------------------------------------------------
 Center     Atomic      Atomic             Coordinates (Angstroms)
 Number     Number       Type             X           Y           Z
 ---------------------------------------------------------------------
      1          6           0       -1.211080    0.017174   -0.010327
      2          6           0        0.275045    0.038440    0.027199
      3          7           0        1.447942   -0.026286   -0.002382
      4          1           0       -1.427330    1.042542   -0.174790
      5          1           0       -1.656607   -0.472306    0.975474
      6          1           0       -1.435447   -0.719920   -0.885238
 ---------------------------------------------------------------------

 SCF Done:  E(RB2PLYPD3) =  -132.516843257     A.U. after   12 cycles
 E2(B2PLYPD3) =    -0.1832365465D+00 E(B2PLYPD3) =    -0.13270007980327D+03

 The electronic state is 1-A.
 Alpha  occ. eigenvalues --  -14.84571 -10.69042 -10.66782  -1.03106  -0.88225
 Alpha  occ. eigenvalues --   -0.57349  -0.55467  -0.51643  -0.44526  -0.38585
 Alpha  occ. eigenvalues --   -0.38188
 Alpha virt. eigenvalues --    0.03188   0.06507   0.08343   0.10144   0.10725
 Alpha virt. eigenvalues --    0.11471   0.14626   0.15122   0.16080   0.20089
 Alpha virt. eigenvalues --    0.20245   0.24737   0.31256   0.32405   0.34551

 Mulliken charges:
               1
     1  C   -0.122678
     2  C    0.001908
     3  N   -0.216454
     4  H    0.120937
     5  H    0.104839
     6  H    0.111448
 Sum of Mulliken charges =   0.00000

 Dipole moment (field-independent basis, Debye):
    X=             -4.1155    Y=              0.0115    Z=             -0.0087  Tot=              4.1155
 Quadrupole moment (field-independent basis, Debye-Ang):
   XX=            -21.6641   YY=            -17.5868   ZZ=            -17.9214
   XY=              0.2707   XZ=             -0.1655   YZ=             -0.0253

 Normal termination of Gaussian 09 at Wed Aug 26 21:59:39 2020.
