 Gaussian 09, Revision D.01,
 Gaussian 09:  ES64L-G09RevD.01 24-Apr-2013

 --------------------
 #p B2PLYPD3/Def2QZVP
 --------------------

 ------------
 cyanomethane
 ------------
 Symbolic Z-matrix:
 Charge =  0 Multiplicity = 1

                         Standard orientation:
 ---------------------------------------------------------------------
 Center     Atomic      Atomic             Coordinates (Angstroms)
 Number     Number       Type             X           Y           Z
 ---------------------------------------------------------------------
      1          6           0       -1.174460    0.006338   -0.003660
      2          6           0        0.289853    0.008932   -0.033556
      3          7           0        1.438302   -0.001031    0.019551
      4          1           0       -1.573562   -0.508750    0.910210
      5          1           0       -1.539047   -0.567798   -0.822110
      6          1           0       -1.647861    0.992142   -0.001657
 ---------------------------------------------------------------------

 SCF Done:  E(RB2PLYPD3) =  -132.533264120     A.U. after   12 cycles
 E2(B2PLYPD3) =    -0.1802469167D+00 E(B2PLYPD3) =    -0.13271351103680D+03

 The electronic state is 1-A.
 Alpha  occ. eigenvalues --  -14.84231 -10.67249 -10.66332  -1.04402  -0.88898
 Alpha  occ. eigenvalues --   -0.60303  -0.54165  -0.52455  -0.44925  -0.39410
 Alpha  occ. eigenvalues --   -0.39144
 Alpha virt. eigenvalues --    0.03656   0.07459   0.08201   0.10171   0.11339
 Alpha virt. eigenvalues --    0.11714   0.15442   0.16278   0.17189   0.19984
 Alpha virt. eigenvalues --    0.20128   0.25298   0.32684   0.34079   0.35209

 Mulliken charges:
               1
     1  C   -0.074309
     2  C    0.001495
     3  N   -0.202220
     4  H    0.087895
     5  H    0.093875
     6  H    0.093263
 Sum of Mulliken charges =   0.00000

 Dipole moment (field-independent basis, Debye):
    X=             -4.1311    Y=             -0.0197    Z=             -0.0270  Tot=              4.1313
 Quadrupole moment (field-independent basis, Debye-Ang):
   XX=            -20.7453   YY=            -17.7754   ZZ=            -17.8910
   XY=             -0.0133   XZ=             -0.1487   YZ=              0.0570

 Normal termination of Gaussian 09 at Wed Aug 26 11:43:32 2020.
