 Gaussian 09, Revision D.01,
 Gaussian 09:  ES64L-G09RevD.01 24-Apr-2013

 --------------------
 #p B2PLYPD3/Def2QZVP
 --------------------

 ------------
 cyanomethane
 ------------
 Symbolic Z-matrix:
 Charge =  0 Multiplicity = 1

                         Standard orientation:
 ---------------------------------------------------------------------
 Center     Atomic      Atomic             Coordinates (Angstroms)
 Number     Number       Type             X           Y           Z
 ---------------------------------------------------------------------
      1          6           0       -1.193358    0.013819    0.011757
      2          6           0        0.279701    0.004998    0.042234
      3          7           0        1.437676    0.007122   -0.029365
      4          1           0       -1.399569   -0.353541    0.865728
      5          1           0       -1.492146   -0.775384   -0.721262
      6          1           0       -1.690077    0.966169   -0.262855
 ---------------------------------------------------------------------

 SCF Done:  E(RB2PLYPD3) =  -132.514129178     A.U. after   12 cycles
 E2(B2PLYPD3) =    -0.1809284283D+00 E(B2PLYPD3) =    -0.13269505760613D+03

 The electronic state is 1-A.
 Alpha  occ. eigenvalues --  -14.84304 -10.66434 -10.66350  -1.03866  -0.90278
 Alpha  occ. eigenvalues --   -0.59265  -0.56643  -0.52891  -0.44716  -0.39194
 Alpha  occ. eigenvalues --   -0.38747
 Alpha virt. eigenvalues --    0.03607   0.07292   0.09415   0.10136   0.10931
 Alpha virt. eigenvalues --    0.11593   0.15068   0.15358   0.17445   0.20066
 Alpha virt. eigenvalues --    0.20267   0.25108   0.32360   0.33755   0.35777

 Mulliken charges:
               1
     1  C   -0.102071
     2  C    0.000838
     3  N   -0.210329
     4  H    0.115132
     5  H    0.091798
     6  H    0.104632
 Sum of Mulliken charges =   0.00000

 Dipole moment (field-independent basis, Debye):
    X=             -4.1430    Y=             -0.0566    Z=              0.0534  Tot=              4.1437
 Quadrupole moment (field-independent basis, Debye-Ang):
   XX=            -20.9841   YY=            -17.5731   ZZ=            -17.8787
   XY=             -0.1092   XZ=              0.2368   YZ=             -0.1188

 Normal termination of Gaussian 09 at Wed Aug 26 23:03:28 2020.
