 Gaussian 09, Revision D.01,
 Gaussian 09:  ES64L-G09RevD.01 24-Apr-2013

 --------------------
 #p B2PLYPD3/Def2QZVP
 --------------------

 ------------
 cyanomethane
 ------------
 Symbolic Z-matrix:
 Charge =  0 Multiplicity = 1

                         Standard orientation:
 ---------------------------------------------------------------------
 Center     Atomic      Atomic             Coordinates (Angstroms)
 Number     Number       Type             X           Y           Z
 ---------------------------------------------------------------------
      1          6           0       -1.179774   -0.011766    0.007829
      2          6           0        0.281856    0.014205   -0.012579
      3          7           0        1.442801   -0.006864    0.002387
      4          1           0       -1.564680    1.030449   -0.066737
      5          1           0       -1.532112   -0.434938    0.901575
      6          1           0       -1.615303   -0.562101   -0.823052
 ---------------------------------------------------------------------

 SCF Done:  E(RB2PLYPD3) =  -132.533425819     A.U. after   12 cycles
 E2(B2PLYPD3) =    -0.1810294386D+00 E(B2PLYPD3) =    -0.13271445525806D+03

 The electronic state is 1-A.
 Alpha  occ. eigenvalues --  -14.84482 -10.67001 -10.66583  -1.03897  -0.89251
 Alpha  occ. eigenvalues --   -0.60263  -0.54397  -0.53138  -0.44898  -0.39072
 Alpha  occ. eigenvalues --   -0.38897
 Alpha virt. eigenvalues --    0.03763   0.07581   0.07938   0.10164   0.11322
 Alpha virt. eigenvalues --    0.11443   0.15400   0.16232   0.16779   0.20092
 Alpha virt. eigenvalues --    0.20130   0.25294   0.32528   0.34281   0.35240

 Mulliken charges:
               1
     1  C   -0.074660
     2  C    0.001619
     3  N   -0.208735
     4  H    0.091118
     5  H    0.097852
     6  H    0.092805
 Sum of Mulliken charges =   0.00000

 Dipole moment (field-independent basis, Debye):
    X=             -4.1490    Y=              0.0042    Z=              0.0035  Tot=              4.1490
 Quadrupole moment (field-independent basis, Debye-Ang):
   XX=            -20.8457   YY=            -17.8134   ZZ=            -17.8246
   XY=              0.0575   XZ=              0.0325   YZ=             -0.0263

 Normal termination of Gaussian 09 at Wed Aug 26 12:47:47 2020.
