 Gaussian 09, Revision D.01,
 Gaussian 09:  ES64L-G09RevD.01 24-Apr-2013

 --------------------
 #p B2PLYPD3/Def2QZVP
 --------------------

 ------------
 cyanomethane
 ------------
 Symbolic Z-matrix:
 Charge =  0 Multiplicity = 1

                         Standard orientation:
 ---------------------------------------------------------------------
 Center     Atomic      Atomic             Coordinates (Angstroms)
 Number     Number       Type             X           Y           Z
 ---------------------------------------------------------------------
      1          6           0        1.170633    0.000946    0.004306
      2          6           0       -0.281822    0.004951   -0.009340
      3          7           0       -1.431436   -0.004910    0.007049
      4          1           0        1.607427   -0.503149    0.896755
      5          1           0        1.532331    1.040953   -0.026459
      6          1           0        1.547430   -0.538816   -0.889431
 ---------------------------------------------------------------------

 SCF Done:  E(RB2PLYPD3) =  -132.534588695     A.U. after   12 cycles
 E2(B2PLYPD3) =    -0.1803363912D+00 E(B2PLYPD3) =    -0.13271492508571D+03

 The electronic state is 1-A.
 Alpha  occ. eigenvalues --  -14.84097 -10.67619 -10.66149  -1.04343  -0.88838
 Alpha  occ. eigenvalues --   -0.59733  -0.53693  -0.53069  -0.44820  -0.39152
 Alpha  occ. eigenvalues --   -0.39093
 Alpha virt. eigenvalues --    0.03665   0.07507   0.07888   0.10162   0.11561
 Alpha virt. eigenvalues --    0.11650   0.15429   0.16124   0.16776   0.20047
 Alpha virt. eigenvalues --    0.20092   0.25453   0.32689   0.34231   0.34466

 Mulliken charges:
               1
     1  C   -0.088087
     2  C   -0.000549
     3  N   -0.202878
     4  H    0.096601
     5  H    0.098492
     6  H    0.096421
 Sum of Mulliken charges =   0.00000

 Dipole moment (field-independent basis, Debye):
    X=              4.1129    Y=              0.0062    Z=             -0.0159  Tot=              4.1129
 Quadrupole moment (field-independent basis, Debye-Ang):
   XX=            -20.9920   YY=            -17.7359   ZZ=            -17.8091
   XY=             -0.0701   XZ=              0.0711   YZ=              0.0015

 Normal termination of Gaussian 09 at Thu Aug 27 00:03:30 2020.
