 Gaussian 09, Revision D.01,
 Gaussian 09:  ES64L-G09RevD.01 24-Apr-2013

 --------------------
 #p B2PLYPD3/Def2QZVP
 --------------------

 ------------
 cyanomethane
 ------------
 Symbolic Z-matrix:
 Charge =  0 Multiplicity = 1

                         Standard orientation:
 ---------------------------------------------------------------------
 Center     Atomic      Atomic             Coordinates (Angstroms)
 Number     Number       Type             X           Y           Z
 ---------------------------------------------------------------------
      1          6           0        1.179896    0.001412   -0.005905
      2          6           0       -0.282804   -0.015059    0.003314
      3          7           0       -1.435277    0.006063    0.001594
      4          1           0        1.591336    0.022532    1.028681
      5          1           0        1.516714    0.928903   -0.519878
      6          1           0        1.556336   -0.911995   -0.504410
 ---------------------------------------------------------------------

 SCF Done:  E(RB2PLYPD3) =  -132.534226809     A.U. after   11 cycles
 E2(B2PLYPD3) =    -0.1805946765D+00 E(B2PLYPD3) =    -0.13271482148532D+03

 The electronic state is 1-A.
 Alpha  occ. eigenvalues --  -14.84144 -10.67835 -10.66231  -1.04172  -0.88648
 Alpha  occ. eigenvalues --   -0.59277  -0.53934  -0.52943  -0.44766  -0.39126
 Alpha  occ. eigenvalues --   -0.39011
 Alpha virt. eigenvalues --    0.03635   0.07605   0.07846   0.10189   0.11420
 Alpha virt. eigenvalues --    0.11605   0.15270   0.16286   0.16331   0.20033
 Alpha virt. eigenvalues --    0.20109   0.25248   0.32500   0.34067   0.34476

 Mulliken charges:
               1
     1  C   -0.093825
     2  C   -0.001098
     3  N   -0.204471
     4  H    0.096625
     5  H    0.101675
     6  H    0.101095
 Sum of Mulliken charges =   0.00000

 Dipole moment (field-independent basis, Debye):
    X=              4.1166    Y=             -0.0050    Z=              0.0097  Tot=              4.1167
 Quadrupole moment (field-independent basis, Debye-Ang):
   XX=            -21.0978   YY=            -17.6641   ZZ=            -17.8629
   XY=              0.0118   XZ=              0.0885   YZ=              0.0040

 Normal termination of Gaussian 09 at Thu Aug 27 00:09:22 2020.
