 Gaussian 09, Revision D.01,
 Gaussian 09:  ES64L-G09RevD.01 24-Apr-2013

 --------------------
 #p B2PLYPD3/Def2QZVP
 --------------------

 ------------
 cyanomethane
 ------------
 Symbolic Z-matrix:
 Charge =  0 Multiplicity = 1

                         Standard orientation:
 ---------------------------------------------------------------------
 Center     Atomic      Atomic             Coordinates (Angstroms)
 Number     Number       Type             X           Y           Z
 ---------------------------------------------------------------------
      1          6           0        1.172328   -0.014192   -0.003557
      2          6           0       -0.284082    0.009525   -0.025036
      3          7           0       -1.436855   -0.005092    0.016109
      4          1           0        1.611504   -0.103535    1.059391
      5          1           0        1.542633    0.992303   -0.392991
      6          1           0        1.574378   -0.825126   -0.607607
 ---------------------------------------------------------------------

 SCF Done:  E(RB2PLYPD3) =  -132.530350107     A.U. after   12 cycles
 E2(B2PLYPD3) =    -0.1810035127D+00 E(B2PLYPD3) =    -0.13271135361992D+03

 The electronic state is 1-A.
 Alpha  occ. eigenvalues --  -14.84277 -10.68233 -10.66355  -1.04221  -0.88370
 Alpha  occ. eigenvalues --   -0.59642  -0.53748  -0.51991  -0.44884  -0.39175
 Alpha  occ. eigenvalues --   -0.38863
 Alpha virt. eigenvalues --    0.03485   0.07006   0.07736   0.10128   0.11412
 Alpha virt. eigenvalues --    0.11760   0.15372   0.16038   0.16923   0.20016
 Alpha virt. eigenvalues --    0.20129   0.25412   0.32363   0.33347   0.34618

 Mulliken charges:
               1
     1  C   -0.092869
     2  C    0.002207
     3  N   -0.203605
     4  H    0.095227
     5  H    0.095834
     6  H    0.103205
 Sum of Mulliken charges =   0.00000

 Dipole moment (field-independent basis, Debye):
    X=              4.1098    Y=              0.0118    Z=             -0.0234  Tot=              4.1099
 Quadrupole moment (field-independent basis, Debye-Ang):
   XX=            -21.0089   YY=            -17.7753   ZZ=            -17.8756
   XY=             -0.0423   XZ=              0.1400   YZ=              0.0619

 Normal termination of Gaussian 09 at Wed Aug 26 12:30:06 2020.
