 Gaussian 09, Revision D.01,
 Gaussian 09:  ES64L-G09RevD.01 24-Apr-2013

 --------------------
 #p B2PLYPD3/Def2QZVP
 --------------------

 ------------
 cyanomethane
 ------------
 Symbolic Z-matrix:
 Charge =  0 Multiplicity = 1

                         Standard orientation:
 ---------------------------------------------------------------------
 Center     Atomic      Atomic             Coordinates (Angstroms)
 Number     Number       Type             X           Y           Z
 ---------------------------------------------------------------------
      1          6           0        1.162987   -0.007706    0.021130
      2          6           0       -0.283695   -0.016580    0.016610
      3          7           0       -1.422588    0.016329   -0.013619
      4          1           0        1.657695    0.924887   -0.474167
      5          1           0        1.504292   -0.832478   -0.601003
      6          1           0        1.520374   -0.060997    0.944059
 ---------------------------------------------------------------------

 SCF Done:  E(RB2PLYPD3) =  -132.524819844     A.U. after   12 cycles
 E2(B2PLYPD3) =    -0.1792724037D+00 E(B2PLYPD3) =    -0.13270409224775D+03

 The electronic state is 1-A.
 Alpha  occ. eigenvalues --  -14.83840 -10.66625 -10.65830  -1.04800  -0.89704
 Alpha  occ. eigenvalues --   -0.60528  -0.55762  -0.51915  -0.44829  -0.39675
 Alpha  occ. eigenvalues --   -0.39126
 Alpha virt. eigenvalues --    0.03599   0.07335   0.08961   0.10187   0.11365
 Alpha virt. eigenvalues --    0.11986   0.15594   0.16224   0.17117   0.19938
 Alpha virt. eigenvalues --    0.20141   0.25574   0.32511   0.33876   0.35597

 Mulliken charges:
               1
     1  C   -0.078469
     2  C   -0.001454
     3  N   -0.198216
     4  H    0.083801
     5  H    0.093241
     6  H    0.101096
 Sum of Mulliken charges =   0.00000

 Dipole moment (field-independent basis, Debye):
    X=              4.0983    Y=             -0.0481    Z=              0.0242  Tot=              4.0987
 Quadrupole moment (field-independent basis, Debye-Ang):
   XX=            -20.8137   YY=            -17.8165   ZZ=            -17.6514
   XY=              0.1647   XZ=             -0.1188   YZ=              0.0578

 Normal termination of Gaussian 09 at Wed Aug 26 15:52:51 2020.
