 Gaussian 09, Revision D.01,
 Gaussian 09:  ES64L-G09RevD.01 24-Apr-2013

 --------------------
 #p B2PLYPD3/Def2QZVP
 --------------------

 ------------
 cyanomethane
 ------------
 Symbolic Z-matrix:
 Charge =  0 Multiplicity = 1

                         Standard orientation:
 ---------------------------------------------------------------------
 Center     Atomic      Atomic             Coordinates (Angstroms)
 Number     Number       Type             X           Y           Z
 ---------------------------------------------------------------------
      1          6           0        1.168858    0.001842   -0.002514
      2          6           0       -0.272786   -0.003259   -0.016292
      3          7           0       -1.434266   -0.000813    0.005681
      4          1           0        1.535674    0.965103   -0.250114
      5          1           0        1.608445   -0.715404   -0.661050
      6          1           0        1.519308   -0.235504    0.984232
 ---------------------------------------------------------------------

 SCF Done:  E(RB2PLYPD3) =  -132.534069596     A.U. after   11 cycles
 E2(B2PLYPD3) =    -0.1808383262D+00 E(B2PLYPD3) =    -0.13271490792183D+03

 The electronic state is 1-A.
 Alpha  occ. eigenvalues --  -14.84412 -10.66450 -10.66279  -1.03901  -0.89982
 Alpha  occ. eigenvalues --   -0.60701  -0.54621  -0.53995  -0.44879  -0.38954
 Alpha  occ. eigenvalues --   -0.38837
 Alpha virt. eigenvalues --    0.03864   0.07798   0.07996   0.10160   0.11348
 Alpha virt. eigenvalues --    0.11512   0.15571   0.16245   0.16707   0.20118
 Alpha virt. eigenvalues --    0.20163   0.25639   0.32960   0.34751   0.35234

 Mulliken charges:
               1
     1  C   -0.067639
     2  C    0.001339
     3  N   -0.210220
     4  H    0.093594
     5  H    0.091435
     6  H    0.091491
 Sum of Mulliken charges =   0.00000

 Dipole moment (field-independent basis, Debye):
    X=              4.1518    Y=              0.0024    Z=              0.0066  Tot=              4.1518
 Quadrupole moment (field-independent basis, Debye-Ang):
   XX=            -20.8145   YY=            -17.7369   ZZ=            -17.8118
   XY=             -0.0424   XZ=              0.0129   YZ=             -0.0030

 Normal termination of Gaussian 09 at Thu Aug 27 00:13:57 2020.
