 Gaussian 09, Revision D.01,
 Gaussian 09:  ES64L-G09RevD.01 24-Apr-2013

 --------------------
 #p B2PLYPD3/Def2QZVP
 --------------------

 ------------
 cyanomethane
 ------------
 Symbolic Z-matrix:
 Charge =  0 Multiplicity = 1

                         Standard orientation:
 ---------------------------------------------------------------------
 Center     Atomic      Atomic             Coordinates (Angstroms)
 Number     Number       Type             X           Y           Z
 ---------------------------------------------------------------------
      1          6           0       -1.165403    0.020807   -0.011358
      2          6           0        0.288358    0.055704   -0.010826
      3          7           0        1.411446   -0.023412    0.010585
      4          1           0       -1.563038   -0.343613    0.987056
      5          1           0       -1.427856   -0.893281   -0.664794
      6          1           0       -1.626954    0.941716   -0.263255
 ---------------------------------------------------------------------

 SCF Done:  E(RB2PLYPD3) =  -132.527783937     A.U. after   12 cycles
 E2(B2PLYPD3) =    -0.1786422798D+00 E(B2PLYPD3) =    -0.13270642621633D+03

 The electronic state is 1-A.
 Alpha  occ. eigenvalues --  -14.83303 -10.67792 -10.65358  -1.05252  -0.88663
 Alpha  occ. eigenvalues --   -0.59471  -0.55165  -0.51349  -0.44640  -0.39957
 Alpha  occ. eigenvalues --   -0.39116
 Alpha virt. eigenvalues --    0.03514   0.07502   0.08508   0.10233   0.11481
 Alpha virt. eigenvalues --    0.12455   0.15340   0.16097   0.17115   0.19759
 Alpha virt. eigenvalues --    0.20153   0.25467   0.32633   0.32995   0.35244

 Mulliken charges:
               1
     1  C   -0.098801
     2  C   -0.004161
     3  N   -0.190228
     4  H    0.090116
     5  H    0.096464
     6  H    0.106610
 Sum of Mulliken charges =   0.00000

 Dipole moment (field-independent basis, Debye):
    X=             -4.0616    Y=             -0.0060    Z=              0.0161  Tot=              4.0616
 Quadrupole moment (field-independent basis, Debye-Ang):
   XX=            -21.0980   YY=            -17.3554   ZZ=            -18.0025
   XY=              0.1011   XZ=             -0.2089   YZ=             -0.0500

 Normal termination of Gaussian 09 at Wed Aug 26 22:32:57 2020.
