 Gaussian 09, Revision D.01,
 Gaussian 09:  ES64L-G09RevD.01 24-Apr-2013

 --------------------
 #p B2PLYPD3/Def2QZVP
 --------------------

 ------------
 cyanomethane
 ------------
 Symbolic Z-matrix:
 Charge =  0 Multiplicity = 1

                         Standard orientation:
 ---------------------------------------------------------------------
 Center     Atomic      Atomic             Coordinates (Angstroms)
 Number     Number       Type             X           Y           Z
 ---------------------------------------------------------------------
      1          6           0        1.173794   -0.019688    0.004931
      2          6           0       -0.271992    0.021829   -0.005556
      3          7           0       -1.426456   -0.002002    0.002029
      4          1           0        1.506549   -0.139776    1.005346
      5          1           0        1.617388    0.961060   -0.388065
      6          1           0        1.450439   -0.820119   -0.627732
 ---------------------------------------------------------------------

 SCF Done:  E(RB2PLYPD3) =  -132.532008541     A.U. after   12 cycles
 E2(B2PLYPD3) =    -0.1804703112D+00 E(B2PLYPD3) =    -0.13271247885260D+03

 The electronic state is 1-A.
 Alpha  occ. eigenvalues --  -14.84080 -10.66978 -10.66098  -1.04090  -0.89625
 Alpha  occ. eigenvalues --   -0.59403  -0.55567  -0.53064  -0.44701  -0.39067
 Alpha  occ. eigenvalues --   -0.38817
 Alpha virt. eigenvalues --    0.03755   0.07490   0.08405   0.10177   0.11362
 Alpha virt. eigenvalues --    0.11654   0.15381   0.16046   0.16253   0.20088
 Alpha virt. eigenvalues --    0.20134   0.25550   0.32361   0.34275   0.35200

 Mulliken charges:
               1
     1  C   -0.091009
     2  C   -0.002153
     3  N   -0.207677
     4  H    0.102504
     5  H    0.092651
     6  H    0.105683
 Sum of Mulliken charges =   0.00000

 Dipole moment (field-independent basis, Debye):
    X=              4.1098    Y=             -0.0098    Z=              0.0081  Tot=              4.1098
 Quadrupole moment (field-independent basis, Debye-Ang):
   XX=            -21.1535   YY=            -17.7053   ZZ=            -17.6837
   XY=              0.0962   XZ=              0.0319   YZ=              0.0711

 Normal termination of Gaussian 09 at Wed Aug 26 14:38:35 2020.
