 Gaussian 09, Revision D.01,
 Gaussian 09:  ES64L-G09RevD.01 24-Apr-2013

 --------------------
 #p B2PLYPD3/Def2QZVP
 --------------------

 ------------
 cyanomethane
 ------------
 Symbolic Z-matrix:
 Charge =  0 Multiplicity = 1

                         Standard orientation:
 ---------------------------------------------------------------------
 Center     Atomic      Atomic             Coordinates (Angstroms)
 Number     Number       Type             X           Y           Z
 ---------------------------------------------------------------------
      1          6           0        1.195468   -0.032270    0.008737
      2          6           0       -0.263737    0.027203   -0.079794
      3          7           0       -1.453517   -0.007552    0.041558
      4          1           0        1.572088    1.062288   -0.013519
      5          1           0        1.488286   -0.549642   -0.791842
      6          1           0        1.523860   -0.429376    0.940796
 ---------------------------------------------------------------------

 SCF Done:  E(RB2PLYPD3) =  -132.516786580     A.U. after   13 cycles
 E2(B2PLYPD3) =    -0.1843146680D+00 E(B2PLYPD3) =    -0.13270110124835D+03

 The electronic state is 1-A.
 Alpha  occ. eigenvalues --  -14.85365 -10.67433 -10.66834  -1.02509  -0.89832
 Alpha  occ. eigenvalues --   -0.59724  -0.56692  -0.52567  -0.44881  -0.38303
 Alpha  occ. eigenvalues --   -0.37880
 Alpha virt. eigenvalues --    0.03458   0.06386   0.08121   0.09944   0.10612
 Alpha virt. eigenvalues --    0.11348   0.15284   0.15500   0.16404   0.20162
 Alpha virt. eigenvalues --    0.20328   0.25623   0.31760   0.33758   0.35466

 Mulliken charges:
               1
     1  C   -0.087377
     2  C    0.006559
     3  N   -0.224156
     4  H    0.092036
     5  H    0.108846
     6  H    0.104092
 Sum of Mulliken charges =   0.00000

 Dipole moment (field-independent basis, Debye):
    X=              4.1485    Y=             -0.0020    Z=             -0.0251  Tot=              4.1486
 Quadrupole moment (field-independent basis, Debye-Ang):
   XX=            -21.1562   YY=            -17.8734   ZZ=            -17.7819
   XY=              0.0085   XZ=              0.2536   YZ=              0.0858

 Normal termination of Gaussian 09 at Wed Aug 26 22:09:21 2020.
