 Gaussian 09, Revision D.01,
 Gaussian 09:  ES64L-G09RevD.01 24-Apr-2013

 --------------------
 #p B2PLYPD3/Def2QZVP
 --------------------

 ------------
 cyanomethane
 ------------
 Symbolic Z-matrix:
 Charge =  0 Multiplicity = 1

                         Standard orientation:
 ---------------------------------------------------------------------
 Center     Atomic      Atomic             Coordinates (Angstroms)
 Number     Number       Type             X           Y           Z
 ---------------------------------------------------------------------
      1          6           0       -1.182488   -0.000858    0.014148
      2          6           0        0.275547    0.010778   -0.021102
      3          7           0        1.438610   -0.006945    0.005559
      4          1           0       -1.596197   -0.695194   -0.755365
      5          1           0       -1.535854    1.006967   -0.209655
      6          1           0       -1.496568   -0.322683    0.967829
 ---------------------------------------------------------------------

 SCF Done:  E(RB2PLYPD3) =  -132.533417544     A.U. after   12 cycles
 E2(B2PLYPD3) =    -0.1812204234D+00 E(B2PLYPD3) =    -0.13271463796764D+03

 The electronic state is 1-A.
 Alpha  occ. eigenvalues --  -14.84415 -10.67117 -10.66490  -1.03742  -0.89342
 Alpha  occ. eigenvalues --   -0.59582  -0.54864  -0.53352  -0.44782  -0.38910
 Alpha  occ. eigenvalues --   -0.38759
 Alpha virt. eigenvalues --    0.03748   0.07565   0.08042   0.10164   0.11261
 Alpha virt. eigenvalues --    0.11423   0.15340   0.16060   0.16346   0.20107
 Alpha virt. eigenvalues --    0.20154   0.25342   0.32495   0.34233   0.35057

 Mulliken charges:
               1
     1  C   -0.086028
     2  C   -0.000452
     3  N   -0.210779
     4  H    0.094867
     5  H    0.099106
     6  H    0.103285
 Sum of Mulliken charges =   0.00000

 Dipole moment (field-independent basis, Debye):
    X=             -4.1375    Y=              0.0080    Z=             -0.0002  Tot=              4.1375
 Quadrupole moment (field-independent basis, Debye-Ang):
   XX=            -21.0681   YY=            -17.7507   ZZ=            -17.7698
   XY=              0.0664   XZ=              0.0290   YZ=             -0.0483

 Normal termination of Gaussian 09 at Wed Aug 26 11:30:14 2020.
