 Gaussian 09, Revision D.01,
 Gaussian 09:  ES64L-G09RevD.01 24-Apr-2013

 --------------------
 #p B2PLYPD3/Def2QZVP
 --------------------

 ------------
 cyanomethane
 ------------
 Symbolic Z-matrix:
 Charge =  0 Multiplicity = 1

                         Standard orientation:
 ---------------------------------------------------------------------
 Center     Atomic      Atomic             Coordinates (Angstroms)
 Number     Number       Type             X           Y           Z
 ---------------------------------------------------------------------
      1          6           0        1.180199   -0.003929   -0.002324
      2          6           0       -0.270597    0.021154    0.002239
      3          7           0       -1.432167   -0.011864   -0.002979
      4          1           0        1.509702    1.024782   -0.129045
      5          1           0        1.554289   -0.641264   -0.810287
      6          1           0        1.503565   -0.403823    0.960695
 ---------------------------------------------------------------------

 SCF Done:  E(RB2PLYPD3) =  -132.534233174     A.U. after   12 cycles
 E2(B2PLYPD3) =    -0.1811279953D+00 E(B2PLYPD3) =    -0.13271536116890D+03

 The electronic state is 1-A.
 Alpha  occ. eigenvalues --  -14.84274 -10.67185 -10.66323  -1.03765  -0.89430
 Alpha  occ. eigenvalues --   -0.59232  -0.54490  -0.54040  -0.44700  -0.38790
 Alpha  occ. eigenvalues --   -0.38752
 Alpha virt. eigenvalues --    0.03735   0.07681   0.08040   0.10138   0.11334
 Alpha virt. eigenvalues --    0.11440   0.15362   0.15737   0.16326   0.20126
 Alpha virt. eigenvalues --    0.20168   0.25439   0.32698   0.34390   0.34557

 Mulliken charges:
               1
     1  C   -0.093855
     2  C   -0.001282
     3  N   -0.211028
     4  H    0.102358
     5  H    0.101778
     6  H    0.102029
 Sum of Mulliken charges =   0.00000

 Dipole moment (field-independent basis, Debye):
    X=              4.1225    Y=              0.0134    Z=              0.0091  Tot=              4.1225
 Quadrupole moment (field-independent basis, Debye-Ang):
   XX=            -21.2193   YY=            -17.6825   ZZ=            -17.7368
   XY=             -0.0922   XZ=             -0.0408   YZ=             -0.0036

 Normal termination of Gaussian 09 at Thu Aug 27 00:05:27 2020.
