 Gaussian 09, Revision D.01,
 Gaussian 09:  ES64L-G09RevD.01 24-Apr-2013

 --------------------
 #p B2PLYPD3/Def2QZVP
 --------------------

 ------------
 cyanomethane
 ------------
 Symbolic Z-matrix:
 Charge =  0 Multiplicity = 1

                         Standard orientation:
 ---------------------------------------------------------------------
 Center     Atomic      Atomic             Coordinates (Angstroms)
 Number     Number       Type             X           Y           Z
 ---------------------------------------------------------------------
      1          6           0        1.184064    0.007545    0.001944
      2          6           0       -0.284997   -0.015815    0.005477
      3          7           0       -1.431949    0.006942   -0.003853
      4          1           0        1.535235    1.035531   -0.034480
      5          1           0        1.556219   -0.542706   -0.877106
      6          1           0        1.537784   -0.491799    0.894037
 ---------------------------------------------------------------------

 SCF Done:  E(RB2PLYPD3) =  -132.535941830     A.U. after   11 cycles
 E2(B2PLYPD3) =    -0.1798280292D+00 E(B2PLYPD3) =    -0.13271576985914D+03

 The electronic state is 1-A.
 Alpha  occ. eigenvalues --  -14.83946 -10.67256 -10.66025  -1.04351  -0.89002
 Alpha  occ. eigenvalues --   -0.59186  -0.54301  -0.53617  -0.44696  -0.39306
 Alpha  occ. eigenvalues --   -0.39214
 Alpha virt. eigenvalues --    0.03751   0.08037   0.08268   0.10213   0.11429
 Alpha virt. eigenvalues --    0.11535   0.15307   0.16095   0.16468   0.20039
 Alpha virt. eigenvalues --    0.20070   0.25141   0.32686   0.34423   0.34833

 Mulliken charges:
               1
     1  C   -0.089776
     2  C   -0.004305
     3  N   -0.202452
     4  H    0.100825
     5  H    0.096770
     6  H    0.098938
 Sum of Mulliken charges =   0.00000

 Dipole moment (field-independent basis, Debye):
    X=              4.1155    Y=             -0.0159    Z=              0.0067  Tot=              4.1155
 Quadrupole moment (field-independent basis, Debye-Ang):
   XX=            -21.0805   YY=            -17.6710   ZZ=            -17.7512
   XY=              0.0131   XZ=             -0.0339   YZ=             -0.0177

 Normal termination of Gaussian 09 at Wed Aug 26 09:39:11 2020.
