 Gaussian 09, Revision D.01,
 Gaussian 09:  ES64L-G09RevD.01 24-Apr-2013

 --------------------
 #p B2PLYPD3/Def2QZVP
 --------------------

 ------------
 cyanomethane
 ------------
 Symbolic Z-matrix:
 Charge =  0 Multiplicity = 1

                         Standard orientation:
 ---------------------------------------------------------------------
 Center     Atomic      Atomic             Coordinates (Angstroms)
 Number     Number       Type             X           Y           Z
 ---------------------------------------------------------------------
      1          6           0       -1.168607   -0.023762   -0.008227
      2          6           0        0.268591    0.035063    0.002942
      3          7           0        1.433843   -0.017282   -0.000672
      4          1           0       -1.524233    1.000325   -0.153766
      5          1           0       -1.552751   -0.329099    0.932607
      6          1           0       -1.559823   -0.618058   -0.742428
 ---------------------------------------------------------------------

 SCF Done:  E(RB2PLYPD3) =  -132.530147338     A.U. after   12 cycles
 E2(B2PLYPD3) =    -0.1812288807D+00 E(B2PLYPD3) =    -0.13271137621905D+03

 The electronic state is 1-A.
 Alpha  occ. eigenvalues --  -14.84530 -10.66546 -10.66011  -1.03730  -0.90277
 Alpha  occ. eigenvalues --   -0.60979  -0.55316  -0.53734  -0.44893  -0.38919
 Alpha  occ. eigenvalues --   -0.38601
 Alpha virt. eigenvalues --    0.03882   0.07831   0.07877   0.10045   0.11298
 Alpha virt. eigenvalues --    0.11502   0.15613   0.15810   0.17083   0.20146
 Alpha virt. eigenvalues --    0.20208   0.25808   0.32906   0.34374   0.35688

 Mulliken charges:
               1
     1  C   -0.066725
     2  C    0.003568
     3  N   -0.212923
     4  H    0.088157
     5  H    0.091595
     6  H    0.096328
 Sum of Mulliken charges =   0.00000

 Dipole moment (field-independent basis, Debye):
    X=             -4.1489    Y=              0.0309    Z=              0.0094  Tot=              4.1490
 Quadrupole moment (field-independent basis, Debye-Ang):
   XX=            -20.8405   YY=            -17.7665   ZZ=            -17.7639
   XY=              0.0951   XZ=             -0.0197   YZ=              0.0488

 Normal termination of Gaussian 09 at Wed Aug 26 11:50:50 2020.
