 Gaussian 09, Revision D.01,
 Gaussian 09:  ES64L-G09RevD.01 24-Apr-2013

 --------------------
 #p B2PLYPD3/Def2QZVP
 --------------------

 ------------
 cyanomethane
 ------------
 Symbolic Z-matrix:
 Charge =  0 Multiplicity = 1

                         Standard orientation:
 ---------------------------------------------------------------------
 Center     Atomic      Atomic             Coordinates (Angstroms)
 Number     Number       Type             X           Y           Z
 ---------------------------------------------------------------------
      1          6           0       -1.178130    0.006530    0.006014
      2          6           0        0.276082   -0.000579    0.017611
      3          7           0        1.432037    0.001634   -0.011870
      4          1           0       -1.503968   -0.297782    0.971493
      5          1           0       -1.538336   -0.756172   -0.752376
      6          1           0       -1.569669    1.006812   -0.277779
 ---------------------------------------------------------------------

 SCF Done:  E(RB2PLYPD3) =  -132.532998478     A.U. after   12 cycles
 E2(B2PLYPD3) =    -0.1808007055D+00 E(B2PLYPD3) =    -0.13271379918328D+03

 The electronic state is 1-A.
 Alpha  occ. eigenvalues --  -14.84176 -10.67519 -10.66229  -1.04013  -0.89092
 Alpha  occ. eigenvalues --   -0.59241  -0.54648  -0.53043  -0.44732  -0.39034
 Alpha  occ. eigenvalues --   -0.38815
 Alpha virt. eigenvalues --    0.03640   0.07415   0.08177   0.10162   0.11326
 Alpha virt. eigenvalues --    0.11622   0.15353   0.15846   0.16483   0.20070
 Alpha virt. eigenvalues --    0.20145   0.25382   0.32552   0.33798   0.34843

 Mulliken charges:
               1
     1  C   -0.094943
     2  C   -0.001176
     3  N   -0.207288
     4  H    0.103816
     5  H    0.097419
     6  H    0.102172
 Sum of Mulliken charges =   0.00000

 Dipole moment (field-independent basis, Debye):
    X=             -4.1146    Y=             -0.0138    Z=              0.0239  Tot=              4.1147
 Quadrupole moment (field-independent basis, Debye-Ang):
   XX=            -21.1687   YY=            -17.6969   ZZ=            -17.7625
   XY=             -0.0135   XZ=              0.0870   YZ=             -0.0534

 Normal termination of Gaussian 09 at Wed Aug 26 10:10:25 2020.
