 Gaussian 09, Revision D.01,
 Gaussian 09:  ES64L-G09RevD.01 24-Apr-2013

 --------------------
 #p B2PLYPD3/Def2QZVP
 --------------------

 ------------
 cyanomethane
 ------------
 Symbolic Z-matrix:
 Charge =  0 Multiplicity = 1

                         Standard orientation:
 ---------------------------------------------------------------------
 Center     Atomic      Atomic             Coordinates (Angstroms)
 Number     Number       Type             X           Y           Z
 ---------------------------------------------------------------------
      1          6           0       -1.181657   -0.011170    0.022934
      2          6           0        0.262119   -0.043848   -0.014196
      3          7           0        1.421195    0.019148   -0.001618
      4          1           0       -1.390364   -0.069603    0.968864
      5          1           0       -1.578256   -0.786757   -0.613518
      6          1           0       -1.462516    1.052433   -0.396448
 ---------------------------------------------------------------------

 SCF Done:  E(RB2PLYPD3) =  -132.517385348     A.U. after   12 cycles
 E2(B2PLYPD3) =    -0.1809741943D+00 E(B2PLYPD3) =    -0.13269835954247D+03

 The electronic state is 1-A.
 Alpha  occ. eigenvalues --  -14.84080 -10.66617 -10.66107  -1.03802  -0.90414
 Alpha  occ. eigenvalues --   -0.59049  -0.57101  -0.53005  -0.44556  -0.38956
 Alpha  occ. eigenvalues --   -0.38423
 Alpha virt. eigenvalues --    0.03558   0.07522   0.08892   0.10146   0.11102
 Alpha virt. eigenvalues --    0.11663   0.15331   0.15511   0.15976   0.20096
 Alpha virt. eigenvalues --    0.20229   0.25535   0.31865   0.33291   0.35916

 Mulliken charges:
               1
     1  C   -0.107626
     2  C   -0.001343
     3  N   -0.213396
     4  H    0.116464
     5  H    0.106806
     6  H    0.099096
 Sum of Mulliken charges =   0.00000

 Dipole moment (field-independent basis, Debye):
    X=             -4.0908    Y=             -0.0272    Z=              0.0150  Tot=              4.0909
 Quadrupole moment (field-independent basis, Debye-Ang):
   XX=            -21.4187   YY=            -17.5841   ZZ=            -17.6395
   XY=             -0.0134   XZ=              0.0962   YZ=              0.0485

 Normal termination of Gaussian 09 at Wed Aug 26 23:18:02 2020.
