 Gaussian 09, Revision D.01,
 Gaussian 09:  ES64L-G09RevD.01 24-Apr-2013

 --------------------
 #p B2PLYPD3/Def2QZVP
 --------------------

 ------------
 cyanomethane
 ------------
 Symbolic Z-matrix:
 Charge =  0 Multiplicity = 1

                         Standard orientation:
 ---------------------------------------------------------------------
 Center     Atomic      Atomic             Coordinates (Angstroms)
 Number     Number       Type             X           Y           Z
 ---------------------------------------------------------------------
      1          6           0        1.168092    0.000525   -0.010610
      2          6           0       -0.268104   -0.011229   -0.025306
      3          7           0       -1.433412    0.004740    0.010258
      4          1           0        1.543303    0.984692   -0.162863
      5          1           0        1.598612   -0.665950   -0.651836
      6          1           0        1.492041   -0.287703    0.958388
 ---------------------------------------------------------------------

 SCF Done:  E(RB2PLYPD3) =  -132.529979746     A.U. after   12 cycles
 E2(B2PLYPD3) =    -0.1810252082D+00 E(B2PLYPD3) =    -0.13271100495457D+03

 The electronic state is 1-A.
 Alpha  occ. eigenvalues --  -14.84495 -10.66524 -10.65663  -1.03744  -0.90565
 Alpha  occ. eigenvalues --   -0.61134  -0.55501  -0.54045  -0.44880  -0.38937
 Alpha  occ. eigenvalues --   -0.38642
 Alpha virt. eigenvalues --    0.03904   0.07885   0.08153   0.10160   0.11174
 Alpha virt. eigenvalues --    0.11581   0.15634   0.16037   0.16904   0.20120
 Alpha virt. eigenvalues --    0.20228   0.25738   0.33082   0.34618   0.35708

 Mulliken charges:
               1
     1  C   -0.060646
     2  C    0.003087
     3  N   -0.213119
     4  H    0.092023
     5  H    0.091337
     6  H    0.087318
 Sum of Mulliken charges =   0.00000

 Dipole moment (field-independent basis, Debye):
    X=              4.1648    Y=             -0.0191    Z=              0.0212  Tot=              4.1649
 Quadrupole moment (field-independent basis, Debye-Ang):
   XX=            -20.7686   YY=            -17.6559   ZZ=            -17.8607
   XY=             -0.0254   XZ=              0.0709   YZ=              0.0349

 Normal termination of Gaussian 09 at Wed Aug 26 16:17:41 2020.
