 Gaussian 09, Revision D.01,
 Gaussian 09:  ES64L-G09RevD.01 24-Apr-2013

 --------------------
 #p B2PLYPD3/Def2QZVP
 --------------------

 ------------
 cyanomethane
 ------------
 Symbolic Z-matrix:
 Charge =  0 Multiplicity = 1

                         Standard orientation:
 ---------------------------------------------------------------------
 Center     Atomic      Atomic             Coordinates (Angstroms)
 Number     Number       Type             X           Y           Z
 ---------------------------------------------------------------------
      1          6           0        1.187423   -0.009203    0.004081
      2          6           0       -0.280501   -0.015719   -0.000829
      3          7           0       -1.437866    0.009138   -0.001031
      4          1           0        1.545190    0.985146   -0.311729
      5          1           0        1.551353   -0.718339   -0.673222
      6          1           0        1.526986   -0.181245    0.972661
 ---------------------------------------------------------------------

 SCF Done:  E(RB2PLYPD3) =  -132.533049366     A.U. after   11 cycles
 E2(B2PLYPD3) =    -0.1804016597D+00 E(B2PLYPD3) =    -0.13271345102579D+03

 The electronic state is 1-A.
 Alpha  occ. eigenvalues --  -14.84256 -10.66450 -10.66337  -1.03953  -0.89715
 Alpha  occ. eigenvalues --   -0.59742  -0.55494  -0.53644  -0.44752  -0.39188
 Alpha  occ. eigenvalues --   -0.38958
 Alpha virt. eigenvalues --    0.03837   0.08001   0.08518   0.10215   0.11142
 Alpha virt. eigenvalues --    0.11456   0.15365   0.16233   0.16342   0.20066
 Alpha virt. eigenvalues --    0.20147   0.25128   0.32713   0.34396   0.35615

 Mulliken charges:
               1
     1  C   -0.076860
     2  C   -0.002543
     3  N   -0.208347
     4  H    0.092020
     5  H    0.097588
     6  H    0.098142
 Sum of Mulliken charges =   0.00000

 Dipole moment (field-independent basis, Debye):
    X=              4.1450    Y=             -0.0090    Z=              0.0038  Tot=              4.1450
 Quadrupole moment (field-independent basis, Debye-Ang):
   XX=            -20.9616   YY=            -17.7638   ZZ=            -17.6939
   XY=              0.0622   XZ=             -0.0203   YZ=              0.0329

 Normal termination of Gaussian 09 at Thu Aug 27 00:14:11 2020.
