 Gaussian 09, Revision D.01,
 Gaussian 09:  ES64L-G09RevD.01 24-Apr-2013

 --------------------
 #p B2PLYPD3/Def2QZVP
 --------------------

 ------------
 cyanomethane
 ------------
 Symbolic Z-matrix:
 Charge =  0 Multiplicity = 1

                         Standard orientation:
 ---------------------------------------------------------------------
 Center     Atomic      Atomic             Coordinates (Angstroms)
 Number     Number       Type             X           Y           Z
 ---------------------------------------------------------------------
      1          6           0       -1.179595   -0.000338    0.005809
      2          6           0        0.278034   -0.003731   -0.026754
      3          7           0        1.429170    0.002138    0.013093
      4          1           0       -1.526848   -0.091795    1.004855
      5          1           0       -1.532613   -0.826109   -0.565601
      6          1           0       -1.535362    0.927349   -0.405231
 ---------------------------------------------------------------------

 SCF Done:  E(RB2PLYPD3) =  -132.535298942     A.U. after   11 cycles
 E2(B2PLYPD3) =    -0.1799346363D+00 E(B2PLYPD3) =    -0.13271523357843D+03

 The electronic state is 1-A.
 Alpha  occ. eigenvalues --  -14.84046 -10.66438 -10.66079  -1.04190  -0.89754
 Alpha  occ. eigenvalues --   -0.59679  -0.54728  -0.54399  -0.44715  -0.39157
 Alpha  occ. eigenvalues --   -0.39132
 Alpha virt. eigenvalues --    0.03868   0.08179   0.08406   0.10186   0.11366
 Alpha virt. eigenvalues --    0.11477   0.15456   0.16093   0.16426   0.20069
 Alpha virt. eigenvalues --    0.20110   0.25371   0.32940   0.34915   0.35026

 Mulliken charges:
               1
     1  C   -0.080152
     2  C   -0.003551
     3  N   -0.205903
     4  H    0.096669
     5  H    0.096620
     6  H    0.096317
 Sum of Mulliken charges =   0.00000

 Dipole moment (field-independent basis, Debye):
    X=             -4.1234    Y=             -0.0052    Z=             -0.0109  Tot=              4.1234
 Quadrupole moment (field-independent basis, Debye-Ang):
   XX=            -21.0155   YY=            -17.6539   ZZ=            -17.7240
   XY=             -0.0093   XZ=             -0.0859   YZ=              0.0056

 Normal termination of Gaussian 09 at Thu Aug 27 00:01:31 2020.
