 Gaussian 09, Revision D.01,
 Gaussian 09:  ES64L-G09RevD.01 24-Apr-2013

 --------------------
 #p B2PLYPD3/Def2QZVP
 --------------------

 ------------
 cyanomethane
 ------------
 Symbolic Z-matrix:
 Charge =  0 Multiplicity = 1

                         Standard orientation:
 ---------------------------------------------------------------------
 Center     Atomic      Atomic             Coordinates (Angstroms)
 Number     Number       Type             X           Y           Z
 ---------------------------------------------------------------------
      1          6           0        1.203249   -0.012808    0.016791
      2          6           0       -0.274826    0.050684    0.012231
      3          7           0       -1.448118   -0.029711   -0.016599
      4          1           0        1.486659    1.000810   -0.217581
      5          1           0        1.657299   -0.689831   -0.735877
      6          1           0        1.422332   -0.330261    0.895518
 ---------------------------------------------------------------------

 SCF Done:  E(RB2PLYPD3) =  -132.514990471     A.U. after   13 cycles
 E2(B2PLYPD3) =    -0.1822010046D+00 E(B2PLYPD3) =    -0.13269719147534D+03

 The electronic state is 1-A.
 Alpha  occ. eigenvalues --  -14.84779 -10.66891 -10.66197  -1.03219  -0.90269
 Alpha  occ. eigenvalues --   -0.59633  -0.56981  -0.53037  -0.44743  -0.38798
 Alpha  occ. eigenvalues --   -0.38484
 Alpha virt. eigenvalues --    0.03652   0.07291   0.08879   0.10033   0.10831
 Alpha virt. eigenvalues --    0.11276   0.15149   0.15399   0.16824   0.20150
 Alpha virt. eigenvalues --    0.20267   0.25057   0.32269   0.34105   0.35679

 Mulliken charges:
               1
     1  C   -0.091955
     2  C    0.000847
     3  N   -0.217091
     4  H    0.101735
     5  H    0.093045
     6  H    0.113419
 Sum of Mulliken charges =   0.00000

 Dipole moment (field-independent basis, Debye):
    X=              4.1512    Y=              0.0322    Z=              0.0283  Tot=              4.1514
 Quadrupole moment (field-independent basis, Debye-Ang):
   XX=            -21.0534   YY=            -17.6852   ZZ=            -17.8271
   XY=             -0.2496   XZ=             -0.2191   YZ=             -0.1111

 Normal termination of Gaussian 09 at Wed Aug 26 23:34:27 2020.
