 Gaussian 09, Revision D.01,
 Gaussian 09:  ES64L-G09RevD.01 24-Apr-2013

 --------------------
 #p B2PLYPD3/Def2QZVP
 --------------------

 ------------
 cyanomethane
 ------------
 Symbolic Z-matrix:
 Charge =  0 Multiplicity = 1

                         Standard orientation:
 ---------------------------------------------------------------------
 Center     Atomic      Atomic             Coordinates (Angstroms)
 Number     Number       Type             X           Y           Z
 ---------------------------------------------------------------------
      1          6           0       -1.199358    0.049010    0.012920
      2          6           0        0.310410   -0.015425   -0.068490
      3          7           0        1.434806    0.001174    0.031185
      4          1           0       -1.547732    1.065919    0.009491
      5          1           0       -1.532864   -0.612425    0.975414
      6          1           0       -1.629357   -0.663218   -0.869784
 ---------------------------------------------------------------------

 SCF Done:  E(RB2PLYPD3) =  -132.513012669     A.U. after   12 cycles
 E2(B2PLYPD3) =    -0.1798300722D+00 E(B2PLYPD3) =    -0.13269284274090D+03

 The electronic state is 1-A.
 Alpha  occ. eigenvalues --  -14.83531 -10.69917 -10.65733  -1.05074  -0.86607
 Alpha  occ. eigenvalues --   -0.57811  -0.54254  -0.49740  -0.44620  -0.40079
 Alpha  occ. eigenvalues --   -0.39123
 Alpha virt. eigenvalues --    0.03030   0.06841   0.08202   0.10146   0.11301
 Alpha virt. eigenvalues --    0.12010   0.14753   0.15634   0.17275   0.19762
 Alpha virt. eigenvalues --    0.20006   0.24718   0.30948   0.31647   0.34759

 Mulliken charges:
               1
     1  C   -0.122364
     2  C   -0.001418
     3  N   -0.188542
     4  H    0.121156
     5  H    0.098621
     6  H    0.092548
 Sum of Mulliken charges =   0.00000

 Dipole moment (field-independent basis, Debye):
    X=             -4.0553    Y=             -0.0274    Z=             -0.0381  Tot=              4.0556
 Quadrupole moment (field-independent basis, Debye-Ang):
   XX=            -21.3536   YY=            -17.3997   ZZ=            -18.1156
   XY=              0.1041   XZ=             -0.1590   YZ=             -0.0222

 Normal termination of Gaussian 09 at Wed Aug 26 20:08:43 2020.
