 Gaussian 09, Revision D.01,
 Gaussian 09:  ES64L-G09RevD.01 24-Apr-2013

 --------------------
 #p B2PLYPD3/Def2QZVP
 --------------------

 ------------
 cyanomethane
 ------------
 Symbolic Z-matrix:
 Charge =  0 Multiplicity = 1

                         Standard orientation:
 ---------------------------------------------------------------------
 Center     Atomic      Atomic             Coordinates (Angstroms)
 Number     Number       Type             X           Y           Z
 ---------------------------------------------------------------------
      1          6           0       -1.175562   -0.000788   -0.003604
      2          6           0        0.281371   -0.017919    0.008963
      3          7           0        1.433617    0.010248   -0.007234
      4          1           0       -1.566969    1.017966    0.001553
      5          1           0       -1.516219   -0.483981    0.866683
      6          1           0       -1.586986   -0.493484   -0.849759
 ---------------------------------------------------------------------

 SCF Done:  E(RB2PLYPD3) =  -132.534519605     A.U. after   11 cycles
 E2(B2PLYPD3) =    -0.1800779718D+00 E(B2PLYPD3) =    -0.13271459757667D+03

 The electronic state is 1-A.
 Alpha  occ. eigenvalues --  -14.84181 -10.66443 -10.66233  -1.04222  -0.89675
 Alpha  occ. eigenvalues --   -0.60277  -0.54621  -0.53779  -0.44829  -0.39221
 Alpha  occ. eigenvalues --   -0.39138
 Alpha virt. eigenvalues --    0.03835   0.07886   0.08408   0.10183   0.11377
 Alpha virt. eigenvalues --    0.11514   0.15498   0.16153   0.16865   0.20056
 Alpha virt. eigenvalues --    0.20119   0.25389   0.32924   0.34762   0.35229

 Mulliken charges:
               1
     1  C   -0.071466
     2  C   -0.000983
     3  N   -0.205441
     4  H    0.091407
     5  H    0.093788
     6  H    0.092694
 Sum of Mulliken charges =   0.00000

 Dipole moment (field-independent basis, Debye):
    X=             -4.1371    Y=             -0.0210    Z=              0.0182  Tot=              4.1372
 Quadrupole moment (field-independent basis, Debye-Ang):
   XX=            -20.8318   YY=            -17.7526   ZZ=            -17.7523
   XY=             -0.0578   XZ=              0.0722   YZ=             -0.0061

 Normal termination of Gaussian 09 at Thu Aug 27 00:00:56 2020.
