 Gaussian 09, Revision D.01,
 Gaussian 09:  ES64L-G09RevD.01 24-Apr-2013

 --------------------
 #p B2PLYPD3/Def2QZVP
 --------------------

 ------------
 cyanomethane
 ------------
 Symbolic Z-matrix:
 Charge =  0 Multiplicity = 1

                         Standard orientation:
 ---------------------------------------------------------------------
 Center     Atomic      Atomic             Coordinates (Angstroms)
 Number     Number       Type             X           Y           Z
 ---------------------------------------------------------------------
      1          6           0       -1.157234   -0.006870   -0.006707
      2          6           0        0.263406    0.063493   -0.012746
      3          7           0        1.430346   -0.045906    0.000475
      4          1           0       -1.396898    1.021567   -0.170942
      5          1           0       -1.508308   -0.319382    0.957735
      6          1           0       -1.744252   -0.720583   -0.673404
 ---------------------------------------------------------------------

 SCF Done:  E(RB2PLYPD3) =  -132.520660358     A.U. after   13 cycles
 E2(B2PLYPD3) =    -0.1826382441D+00 E(B2PLYPD3) =    -0.13270329860170D+03

 The electronic state is 1-A.
 Alpha  occ. eigenvalues --  -14.84714 -10.66893 -10.66710  -1.03616  -0.90007
 Alpha  occ. eigenvalues --   -0.61089  -0.54942  -0.52204  -0.44971  -0.38440
 Alpha  occ. eigenvalues --   -0.38334
 Alpha virt. eigenvalues --    0.03459   0.06357   0.08151   0.09713   0.11318
 Alpha virt. eigenvalues --    0.11844   0.14931   0.15956   0.17745   0.20037
 Alpha virt. eigenvalues --    0.20620   0.26238   0.32819   0.34198   0.34499

 Mulliken charges:
               1
     1  C   -0.084063
     2  C    0.009206
     3  N   -0.214738
     4  H    0.099238
     5  H    0.094717
     6  H    0.095640
 Sum of Mulliken charges =   0.00000

 Dipole moment (field-independent basis, Debye):
    X=             -4.1330    Y=              0.0501    Z=              0.0571  Tot=              4.1337
 Quadrupole moment (field-independent basis, Debye-Ang):
   XX=            -20.8602   YY=            -17.6156   ZZ=            -18.0794
   XY=              0.5083   XZ=             -0.0308   YZ=             -0.0521

 Normal termination of Gaussian 09 at Wed Aug 26 18:41:42 2020.
