 Gaussian 09, Revision D.01,
 Gaussian 09:  ES64L-G09RevD.01 24-Apr-2013

 --------------------
 #p B2PLYPD3/Def2QZVP
 --------------------

 ------------
 cyanomethane
 ------------
 Symbolic Z-matrix:
 Charge =  0 Multiplicity = 1

                         Standard orientation:
 ---------------------------------------------------------------------
 Center     Atomic      Atomic             Coordinates (Angstroms)
 Number     Number       Type             X           Y           Z
 ---------------------------------------------------------------------
      1          6           0        1.170950    0.003725    0.002405
      2          6           0       -0.285382    0.018358   -0.008155
      3          7           0       -1.431792   -0.007807    0.003152
      4          1           0        1.560962   -0.615575   -0.811511
      5          1           0        1.544940   -0.442511    0.918078
      6          1           0        1.603232    0.980241   -0.094130
 ---------------------------------------------------------------------

 SCF Done:  E(RB2PLYPD3) =  -132.535789573     A.U. after   11 cycles
 E2(B2PLYPD3) =    -0.1797712381D+00 E(B2PLYPD3) =    -0.13271556081060D+03

 The electronic state is 1-A.
 Alpha  occ. eigenvalues --  -14.84057 -10.66882 -10.66116  -1.04486  -0.89249
 Alpha  occ. eigenvalues --   -0.60292  -0.54058  -0.53361  -0.44852  -0.39381
 Alpha  occ. eigenvalues --   -0.39234
 Alpha virt. eigenvalues --    0.03786   0.07937   0.08095   0.10196   0.11466
 Alpha virt. eigenvalues --    0.11670   0.15497   0.16492   0.16769   0.20018
 Alpha virt. eigenvalues --    0.20079   0.25400   0.32893   0.34523   0.35093

 Mulliken charges:
               1
     1  C   -0.073791
     2  C   -0.000878
     3  N   -0.201652
     4  H    0.090768
     5  H    0.092264
     6  H    0.093290
 Sum of Mulliken charges =   0.00000

 Dipole moment (field-independent basis, Debye):
    X=              4.1261    Y=              0.0003    Z=             -0.0016  Tot=              4.1261
 Quadrupole moment (field-independent basis, Debye-Ang):
   XX=            -20.8061   YY=            -17.7364   ZZ=            -17.8097
   XY=             -0.0355   XZ=              0.0097   YZ=             -0.0116

 Normal termination of Gaussian 09 at Thu Aug 27 00:11:42 2020.
