 Gaussian 09, Revision D.01,
 Gaussian 09:  ES64L-G09RevD.01 24-Apr-2013

 --------------------
 #p B2PLYPD3/Def2QZVP
 --------------------

 ------------
 cyanomethane
 ------------
 Symbolic Z-matrix:
 Charge =  0 Multiplicity = 1

                         Standard orientation:
 ---------------------------------------------------------------------
 Center     Atomic      Atomic             Coordinates (Angstroms)
 Number     Number       Type             X           Y           Z
 ---------------------------------------------------------------------
      1          6           0       -1.167244   -0.000165    0.000115
      2          6           0        0.274629    0.016928   -0.008319
      3          7           0        1.432806   -0.009993    0.004009
      4          1           0       -1.543327    1.044510   -0.028151
      5          1           0       -1.560829   -0.505746    0.920878
      6          1           0       -1.569792   -0.569384   -0.871572
 ---------------------------------------------------------------------

 SCF Done:  E(RB2PLYPD3) =  -132.533205906     A.U. after   11 cycles
 E2(B2PLYPD3) =    -0.1811930764D+00 E(B2PLYPD3) =    -0.13271439898268D+03

 The electronic state is 1-A.
 Alpha  occ. eigenvalues --  -14.84323 -10.67775 -10.66348  -1.04008  -0.88915
 Alpha  occ. eigenvalues --   -0.59764  -0.53722  -0.52993  -0.44851  -0.38879
 Alpha  occ. eigenvalues --   -0.38794
 Alpha virt. eigenvalues --    0.03614   0.07252   0.07565   0.10118   0.11478
 Alpha virt. eigenvalues --    0.11656   0.15449   0.16216   0.16464   0.20071
 Alpha virt. eigenvalues --    0.20147   0.25624   0.32631   0.34041   0.34310

 Mulliken charges:
               1
     1  C   -0.090492
     2  C    0.001350
     3  N   -0.207226
     4  H    0.100008
     5  H    0.097987
     6  H    0.098373
 Sum of Mulliken charges =   0.00000

 Dipole moment (field-independent basis, Debye):
    X=             -4.1170    Y=              0.0060    Z=             -0.0033  Tot=              4.1170
 Quadrupole moment (field-independent basis, Debye-Ang):
   XX=            -21.0578   YY=            -17.7280   ZZ=            -17.8478
   XY=              0.0962   XZ=             -0.0226   YZ=              0.0058

 Normal termination of Gaussian 09 at Wed Aug 26 10:28:19 2020.
