 Gaussian 09, Revision D.01,
 Gaussian 09:  ES64L-G09RevD.01 24-Apr-2013

 --------------------
 #p B2PLYPD3/Def2QZVP
 --------------------

 ------------
 cyanomethane
 ------------
 Symbolic Z-matrix:
 Charge =  0 Multiplicity = 1

                         Standard orientation:
 ---------------------------------------------------------------------
 Center     Atomic      Atomic             Coordinates (Angstroms)
 Number     Number       Type             X           Y           Z
 ---------------------------------------------------------------------
      1          6           0       -1.178319    0.003469    0.007021
      2          6           0        0.277578    0.001612    0.005148
      3          7           0        1.430111   -0.002414   -0.004790
      4          1           0       -1.519129   -0.126497    1.017302
      5          1           0       -1.558994   -0.857445   -0.631288
      6          1           0       -1.528208    0.970359   -0.425497
 ---------------------------------------------------------------------

 SCF Done:  E(RB2PLYPD3) =  -132.533444629     A.U. after   11 cycles
 E2(B2PLYPD3) =    -0.1805332605D+00 E(B2PLYPD3) =    -0.13271397788916D+03

 The electronic state is 1-A.
 Alpha  occ. eigenvalues --  -14.84054 -10.67711 -10.66109  -1.04146  -0.88915
 Alpha  occ. eigenvalues --   -0.59054  -0.54347  -0.53114  -0.44699  -0.39079
 Alpha  occ. eigenvalues --   -0.38921
 Alpha virt. eigenvalues --    0.03634   0.07522   0.08087   0.10175   0.11434
 Alpha virt. eigenvalues --    0.11626   0.15315   0.16074   0.16205   0.20071
 Alpha virt. eigenvalues --    0.20109   0.25332   0.32496   0.33836   0.34628

 Mulliken charges:
               1
     1  C   -0.098794
     2  C   -0.001943
     3  N   -0.205352
     4  H    0.104526
     5  H    0.098919
     6  H    0.102644
 Sum of Mulliken charges =   0.00000

 Dipole moment (field-independent basis, Debye):
    X=             -4.1051    Y=              0.0019    Z=              0.0162  Tot=              4.1051
 Quadrupole moment (field-independent basis, Debye-Ang):
   XX=            -21.2184   YY=            -17.6985   ZZ=            -17.7302
   XY=              0.0414   XZ=              0.0301   YZ=             -0.0337

 Normal termination of Gaussian 09 at Thu Aug 27 00:09:24 2020.
