 Gaussian 09, Revision D.01,
 Gaussian 09:  ES64L-G09RevD.01 24-Apr-2013

 --------------------
 #p B2PLYPD3/Def2QZVP
 --------------------

 ------------
 cyanomethane
 ------------
 Symbolic Z-matrix:
 Charge =  0 Multiplicity = 1

                         Standard orientation:
 ---------------------------------------------------------------------
 Center     Atomic      Atomic             Coordinates (Angstroms)
 Number     Number       Type             X           Y           Z
 ---------------------------------------------------------------------
      1          6           0        1.169438    0.011077    0.007110
      2          6           0       -0.276891   -0.006063   -0.008898
      3          7           0       -1.435455   -0.000504    0.000832
      4          1           0        1.533512    1.015762   -0.058357
      5          1           0        1.617826   -0.573404   -0.843604
      6          1           0        1.541567   -0.468918    0.906860
 ---------------------------------------------------------------------

 SCF Done:  E(RB2PLYPD3) =  -132.533940833     A.U. after   11 cycles
 E2(B2PLYPD3) =    -0.1809167378D+00 E(B2PLYPD3) =    -0.13271485757086D+03

 The electronic state is 1-A.
 Alpha  occ. eigenvalues --  -14.84362 -10.67138 -10.66404  -1.04020  -0.89300
 Alpha  occ. eigenvalues --   -0.60220  -0.54568  -0.52834  -0.44882  -0.39044
 Alpha  occ. eigenvalues --   -0.38827
 Alpha virt. eigenvalues --    0.03731   0.07376   0.07916   0.10154   0.11367
 Alpha virt. eigenvalues --    0.11634   0.15473   0.16381   0.16570   0.20072
 Alpha virt. eigenvalues --    0.20145   0.25556   0.32633   0.34236   0.35029

 Mulliken charges:
               1
     1  C   -0.078103
     2  C    0.000883
     3  N   -0.207655
     4  H    0.099045
     5  H    0.089935
     6  H    0.095896
 Sum of Mulliken charges =   0.00000

 Dipole moment (field-independent basis, Debye):
    X=              4.1354    Y=             -0.0035    Z=              0.0070  Tot=              4.1354
 Quadrupole moment (field-independent basis, Debye-Ang):
   XX=            -20.9002   YY=            -17.7291   ZZ=            -17.8685
   XY=             -0.0610   XZ=             -0.0321   YZ=             -0.0432

 Normal termination of Gaussian 09 at Wed Aug 26 08:36:02 2020.
