 Gaussian 09, Revision D.01,
 Gaussian 09:  ES64L-G09RevD.01 24-Apr-2013

 --------------------
 #p B2PLYPD3/Def2QZVP
 --------------------

 ------------
 cyanomethane
 ------------
 Symbolic Z-matrix:
 Charge =  0 Multiplicity = 1

                         Standard orientation:
 ---------------------------------------------------------------------
 Center     Atomic      Atomic             Coordinates (Angstroms)
 Number     Number       Type             X           Y           Z
 ---------------------------------------------------------------------
      1          6           0        1.175311   -0.011250   -0.002901
      2          6           0       -0.277864   -0.008113   -0.019300
      3          7           0       -1.433889    0.004523    0.004065
      4          1           0        1.563289    1.012185   -0.231141
      5          1           0        1.624124   -0.704365   -0.639611
      6          1           0        1.465125   -0.223296    0.975503
 ---------------------------------------------------------------------

 SCF Done:  E(RB2PLYPD3) =  -132.531833529     A.U. after   12 cycles
 E2(B2PLYPD3) =    -0.1803995632D+00 E(B2PLYPD3) =    -0.13271223309226D+03

 The electronic state is 1-A.
 Alpha  occ. eigenvalues --  -14.84252 -10.66408 -10.66319  -1.04080  -0.89852
 Alpha  occ. eigenvalues --   -0.60445  -0.54951  -0.53563  -0.44824  -0.39175
 Alpha  occ. eigenvalues --   -0.38931
 Alpha virt. eigenvalues --    0.03821   0.07797   0.08364   0.10205   0.11299
 Alpha virt. eigenvalues --    0.11583   0.15483   0.15957   0.16981   0.20085
 Alpha virt. eigenvalues --    0.20149   0.25424   0.32695   0.34405   0.35524

 Mulliken charges:
               1
     1  C   -0.073620
     2  C    0.000790
     3  N   -0.207847
     4  H    0.090573
     5  H    0.094898
     6  H    0.095207
 Sum of Mulliken charges =   0.00000

 Dipole moment (field-independent basis, Debye):
    X=              4.1429    Y=             -0.0165    Z=              0.0295  Tot=              4.1431
 Quadrupole moment (field-independent basis, Debye-Ang):
   XX=            -20.8553   YY=            -17.6961   ZZ=            -17.8155
   XY=             -0.0107   XZ=             -0.0047   YZ=              0.0340

 Normal termination of Gaussian 09 at Wed Aug 26 09:37:31 2020.
