 Gaussian 09, Revision D.01,
 Gaussian 09:  ES64L-G09RevD.01 24-Apr-2013

 --------------------
 #p B2PLYPD3/Def2QZVP
 --------------------

 ------------
 cyanomethane
 ------------
 Symbolic Z-matrix:
 Charge =  0 Multiplicity = 1

                         Standard orientation:
 ---------------------------------------------------------------------
 Center     Atomic      Atomic             Coordinates (Angstroms)
 Number     Number       Type             X           Y           Z
 ---------------------------------------------------------------------
      1          6           0       -1.160468   -0.011589    0.009521
      2          6           0        0.281674   -0.008853   -0.032030
      3          7           0        1.426149    0.006232    0.011097
      4          1           0       -1.576946    1.051549   -0.046765
      5          1           0       -1.508608   -0.428648    0.905166
      6          1           0       -1.624725   -0.543867   -0.801023
 ---------------------------------------------------------------------

 SCF Done:  E(RB2PLYPD3) =  -132.532725446     A.U. after   11 cycles
 E2(B2PLYPD3) =    -0.1797637835D+00 E(B2PLYPD3) =    -0.13271248922999D+03

 The electronic state is 1-A.
 Alpha  occ. eigenvalues --  -14.84026 -10.66844 -10.66031  -1.04595  -0.89426
 Alpha  occ. eigenvalues --   -0.60660  -0.54482  -0.52722  -0.44886  -0.39397
 Alpha  occ. eigenvalues --   -0.39138
 Alpha virt. eigenvalues --    0.03721   0.07572   0.08177   0.10173   0.11555
 Alpha virt. eigenvalues --    0.11800   0.15585   0.16633   0.16734   0.20011
 Alpha virt. eigenvalues --    0.20077   0.25702   0.32755   0.34080   0.35427

 Mulliken charges:
               1
     1  C   -0.073576
     2  C    0.000938
     3  N   -0.201089
     4  H    0.087169
     5  H    0.096098
     6  H    0.090460
 Sum of Mulliken charges =   0.00000

 Dipole moment (field-independent basis, Debye):
    X=             -4.1122    Y=             -0.0256    Z=             -0.0063  Tot=              4.1123
 Quadrupole moment (field-independent basis, Debye-Ang):
   XX=            -20.7812   YY=            -17.7658   ZZ=            -17.7823
   XY=             -0.0108   XZ=             -0.0070   YZ=             -0.0216

 Normal termination of Gaussian 09 at Wed Aug 26 14:38:24 2020.
