 Gaussian 09, Revision D.01,
 Gaussian 09:  ES64L-G09RevD.01 24-Apr-2013

 --------------------
 #p B2PLYPD3/Def2QZVP
 --------------------

 ------------
 cyanomethane
 ------------
 Symbolic Z-matrix:
 Charge =  0 Multiplicity = 1

                         Standard orientation:
 ---------------------------------------------------------------------
 Center     Atomic      Atomic             Coordinates (Angstroms)
 Number     Number       Type             X           Y           Z
 ---------------------------------------------------------------------
      1          6           0       -1.176912   -0.020673    0.000674
      2          6           0        0.297930    0.009786   -0.004928
      3          7           0        1.443744    0.011640    0.008593
      4          1           0       -1.619579   -0.394453    0.946290
      5          1           0       -1.425976   -0.676417   -0.813067
      6          1           0       -1.786757    1.054713   -0.167849
 ---------------------------------------------------------------------

 SCF Done:  E(RB2PLYPD3) =  -132.518905582     A.U. after   12 cycles
 E2(B2PLYPD3) =    -0.1808067358D+00 E(B2PLYPD3) =    -0.13269971231815D+03

 The electronic state is 1-A.
 Alpha  occ. eigenvalues --  -14.84216 -10.68784 -10.66394  -1.04610  -0.87909
 Alpha  occ. eigenvalues --   -0.59480  -0.54063  -0.50365  -0.44949  -0.39494
 Alpha  occ. eigenvalues --   -0.39087
 Alpha virt. eigenvalues --    0.03141   0.06298   0.08208   0.10270   0.11436
 Alpha virt. eigenvalues --    0.11908   0.15112   0.16130   0.17452   0.19922
 Alpha virt. eigenvalues --    0.20226   0.25025   0.30636   0.33553   0.34778

 Mulliken charges:
               1
     1  C   -0.095895
     2  C    0.003436
     3  N   -0.198295
     4  H    0.098713
     5  H    0.105282
     6  H    0.086759
 Sum of Mulliken charges =   0.00000

 Dipole moment (field-independent basis, Debye):
    X=             -4.1062    Y=             -0.0813    Z=             -0.0027  Tot=              4.1070
 Quadrupole moment (field-independent basis, Debye-Ang):
   XX=            -20.8319   YY=            -17.9417   ZZ=            -17.8887
   XY=             -0.1786   XZ=             -0.1865   YZ=              0.0871

 Normal termination of Gaussian 09 at Wed Aug 26 21:32:57 2020.
