 Gaussian 09, Revision D.01,
 Gaussian 09:  ES64L-G09RevD.01 24-Apr-2013

 --------------------
 #p B2PLYPD3/Def2QZVP
 --------------------

 ------------
 cyanomethane
 ------------
 Symbolic Z-matrix:
 Charge =  0 Multiplicity = 1

                         Standard orientation:
 ---------------------------------------------------------------------
 Center     Atomic      Atomic             Coordinates (Angstroms)
 Number     Number       Type             X           Y           Z
 ---------------------------------------------------------------------
      1          6           0        1.185687   -0.006025   -0.000655
      2          6           0       -0.281963    0.011041   -0.005959
      3          7           0       -1.436535   -0.001122    0.001570
      4          1           0        1.530816   -0.612447   -0.825333
      5          1           0        1.501945   -0.436675    0.944327
      6          1           0        1.600639    1.026880   -0.090298
 ---------------------------------------------------------------------

 SCF Done:  E(RB2PLYPD3) =  -132.534905189     A.U. after   12 cycles
 E2(B2PLYPD3) =    -0.1805234868D+00 E(B2PLYPD3) =    -0.13271542867573D+03

 The electronic state is 1-A.
 Alpha  occ. eigenvalues --  -14.84162 -10.67399 -10.66260  -1.04059  -0.88986
 Alpha  occ. eigenvalues --   -0.59206  -0.54313  -0.53501  -0.44725  -0.39097
 Alpha  occ. eigenvalues --   -0.39032
 Alpha virt. eigenvalues --    0.03723   0.07759   0.08163   0.10208   0.11374
 Alpha virt. eigenvalues --    0.11452   0.15270   0.16046   0.16406   0.20080
 Alpha virt. eigenvalues --    0.20096   0.25139   0.32485   0.34418   0.34713

 Mulliken charges:
               1
     1  C   -0.091103
     2  C   -0.002490
     3  N   -0.206206
     4  H    0.101381
     5  H    0.101128
     6  H    0.097290
 Sum of Mulliken charges =   0.00000

 Dipole moment (field-independent basis, Debye):
    X=              4.1266    Y=             -0.0099    Z=              0.0030  Tot=              4.1266
 Quadrupole moment (field-independent basis, Debye-Ang):
   XX=            -21.1003   YY=            -17.7414   ZZ=            -17.7388
   XY=              0.0399   XZ=             -0.0081   YZ=              0.0115

 Normal termination of Gaussian 09 at Wed Aug 26 14:49:32 2020.
