 Gaussian 09, Revision D.01,
 Gaussian 09:  ES64L-G09RevD.01 24-Apr-2013

 --------------------
 #p B2PLYPD3/Def2QZVP
 --------------------

 ------------
 cyanomethane
 ------------
 Symbolic Z-matrix:
 Charge =  0 Multiplicity = 1

                         Standard orientation:
 ---------------------------------------------------------------------
 Center     Atomic      Atomic             Coordinates (Angstroms)
 Number     Number       Type             X           Y           Z
 ---------------------------------------------------------------------
      1          6           0       -1.156881    0.010875    0.001870
      2          6           0        0.281844    0.012921   -0.005698
      3          7           0        1.424102   -0.003587    0.003211
      4          1           0       -1.558343   -0.390422    0.975221
      5          1           0       -1.529538   -0.734808   -0.782413
      6          1           0       -1.630608    1.007559   -0.192322
 ---------------------------------------------------------------------

 SCF Done:  E(RB2PLYPD3) =  -132.531525529     A.U. after   12 cycles
 E2(B2PLYPD3) =    -0.1800751794D+00 E(B2PLYPD3) =    -0.13271160070852D+03

 The electronic state is 1-A.
 Alpha  occ. eigenvalues --  -14.83918 -10.68082 -10.65932  -1.04702  -0.88585
 Alpha  occ. eigenvalues --   -0.59905  -0.53335  -0.52351  -0.44854  -0.39328
 Alpha  occ. eigenvalues --   -0.39031
 Alpha virt. eigenvalues --    0.03559   0.07383   0.07433   0.10141   0.11690
 Alpha virt. eigenvalues --    0.12017   0.15518   0.16155   0.17057   0.20002
 Alpha virt. eigenvalues --    0.20086   0.25687   0.32663   0.33505   0.34522

 Mulliken charges:
               1
     1  C   -0.092495
     2  C    0.001181
     3  N   -0.198326
     4  H    0.095635
     5  H    0.094313
     6  H    0.099692
 Sum of Mulliken charges =   0.00000

 Dipole moment (field-independent basis, Debye):
    X=             -4.0916    Y=             -0.0175    Z=              0.0028  Tot=              4.0917
 Quadrupole moment (field-independent basis, Debye-Ang):
   XX=            -20.9676   YY=            -17.6869   ZZ=            -17.8873
   XY=              0.0050   XZ=             -0.0438   YZ=             -0.0244

 Normal termination of Gaussian 09 at Wed Aug 26 16:19:52 2020.
