 Gaussian 09, Revision D.01,
 Gaussian 09:  ES64L-G09RevD.01 24-Apr-2013

 --------------------
 #p B2PLYPD3/Def2QZVP
 --------------------

 ------------
 cyanomethane
 ------------
 Symbolic Z-matrix:
 Charge =  0 Multiplicity = 1

                         Standard orientation:
 ---------------------------------------------------------------------
 Center     Atomic      Atomic             Coordinates (Angstroms)
 Number     Number       Type             X           Y           Z
 ---------------------------------------------------------------------
      1          6           0        1.173187   -0.005008   -0.006738
      2          6           0       -0.285223   -0.005828    0.023082
      3          7           0       -1.428753    0.004034   -0.011477
      4          1           0        1.563304    1.020492   -0.095929
      5          1           0        1.554799   -0.572522   -0.811875
      6          1           0        1.555381   -0.411191    0.890078
 ---------------------------------------------------------------------

 SCF Done:  E(RB2PLYPD3) =  -132.535065608     A.U. after   11 cycles
 E2(B2PLYPD3) =    -0.1793664222D+00 E(B2PLYPD3) =    -0.13271443203055D+03

 The electronic state is 1-A.
 Alpha  occ. eigenvalues --  -14.83939 -10.66495 -10.65978  -1.04564  -0.89544
 Alpha  occ. eigenvalues --   -0.60198  -0.54487  -0.53690  -0.44799  -0.39446
 Alpha  occ. eigenvalues --   -0.39340
 Alpha virt. eigenvalues --    0.03835   0.08068   0.08480   0.10199   0.11485
 Alpha virt. eigenvalues --    0.11601   0.15514   0.16313   0.16827   0.20019
 Alpha virt. eigenvalues --    0.20064   0.25386   0.32985   0.34663   0.35295

 Mulliken charges:
               1
     1  C   -0.072719
     2  C   -0.002528
     3  N   -0.200842
     4  H    0.090638
     5  H    0.093738
     6  H    0.091713
 Sum of Mulliken charges =   0.00000

 Dipole moment (field-independent basis, Debye):
    X=              4.1212    Y=             -0.0161    Z=              0.0230  Tot=              4.1213
 Quadrupole moment (field-independent basis, Debye-Ang):
   XX=            -20.8284   YY=            -17.7079   ZZ=            -17.7485
   XY=              0.0090   XZ=             -0.0525   YZ=              0.0124

 Normal termination of Gaussian 09 at Wed Aug 26 23:56:51 2020.
