 Gaussian 09, Revision D.01,
 Gaussian 09:  ES64L-G09RevD.01 24-Apr-2013

 --------------------
 #p B2PLYPD3/Def2QZVP
 --------------------

 ------------
 cyanomethane
 ------------
 Symbolic Z-matrix:
 Charge =  0 Multiplicity = 1

                         Standard orientation:
 ---------------------------------------------------------------------
 Center     Atomic      Atomic             Coordinates (Angstroms)
 Number     Number       Type             X           Y           Z
 ---------------------------------------------------------------------
      1          6           0        1.186235    0.008569   -0.007659
      2          6           0       -0.276691   -0.024523    0.033731
      3          7           0       -1.432003    0.015927   -0.018244
      4          1           0        1.501180   -0.038491    0.989399
      5          1           0        1.578384    0.898562   -0.476916
      6          1           0        1.487191   -0.875840   -0.541209
 ---------------------------------------------------------------------

 SCF Done:  E(RB2PLYPD3) =  -132.532921491     A.U. after   12 cycles
 E2(B2PLYPD3) =    -0.1804846808D+00 E(B2PLYPD3) =    -0.13271340617175D+03

 The electronic state is 1-A.
 Alpha  occ. eigenvalues --  -14.84177 -10.66542 -10.66226  -1.03955  -0.89742
 Alpha  occ. eigenvalues --   -0.59367  -0.54969  -0.54335  -0.44693  -0.39026
 Alpha  occ. eigenvalues --   -0.38982
 Alpha virt. eigenvalues --    0.03787   0.07873   0.08676   0.10133   0.11281
 Alpha virt. eigenvalues --    0.11371   0.15358   0.15520   0.16777   0.20109
 Alpha virt. eigenvalues --    0.20138   0.25343   0.32874   0.34769   0.34978

 Mulliken charges:
               1
     1  C   -0.086164
     2  C   -0.002620
     3  N   -0.208834
     4  H    0.098793
     5  H    0.099284
     6  H    0.099541
 Sum of Mulliken charges =   0.00000

 Dipole moment (field-independent basis, Debye):
    X=              4.1230    Y=             -0.0284    Z=              0.0382  Tot=              4.1232
 Quadrupole moment (field-independent basis, Debye-Ang):
   XX=            -21.0977   YY=            -17.6540   ZZ=            -17.7270
   XY=              0.1417   XZ=             -0.0900   YZ=              0.0092

 Normal termination of Gaussian 09 at Wed Aug 26 12:53:38 2020.
