 Gaussian 09, Revision D.01,
 Gaussian 09:  ES64L-G09RevD.01 24-Apr-2013

 --------------------
 #p B2PLYPD3/Def2QZVP
 --------------------

 ------------
 cyanomethane
 ------------
 Symbolic Z-matrix:
 Charge =  0 Multiplicity = 1

                         Standard orientation:
 ---------------------------------------------------------------------
 Center     Atomic      Atomic             Coordinates (Angstroms)
 Number     Number       Type             X           Y           Z
 ---------------------------------------------------------------------
      1          6           0       -1.172622    0.016698   -0.010104
      2          6           0        0.301800   -0.026908   -0.025112
      3          7           0        1.437955    0.014062    0.002692
      4          1           0       -1.647017    1.117057   -0.021771
      5          1           0       -1.460180   -0.499128    1.034471
      6          1           0       -1.733557   -0.655102   -0.820247
 ---------------------------------------------------------------------

 SCF Done:  E(RB2PLYPD3) =  -132.512487906     A.U. after   12 cycles
 E2(B2PLYPD3) =    -0.1809057419D+00 E(B2PLYPD3) =    -0.13269339364789D+03

 The electronic state is 1-A.
 Alpha  occ. eigenvalues --  -14.83949 -10.70337 -10.66174  -1.04950  -0.86591
 Alpha  occ. eigenvalues --   -0.58681  -0.51556  -0.50767  -0.44901  -0.39523
 Alpha  occ. eigenvalues --   -0.39078
 Alpha virt. eigenvalues --    0.02997   0.06497   0.06863   0.10222   0.11744
 Alpha virt. eigenvalues --    0.12151   0.15045   0.15708   0.17775   0.20000
 Alpha virt. eigenvalues --    0.20099   0.25119   0.31094   0.32151   0.33416

 Mulliken charges:
               1
     1  C   -0.119250
     2  C    0.008065
     3  N   -0.192119
     4  H    0.105312
     5  H    0.098276
     6  H    0.099715
 Sum of Mulliken charges =   0.00000

 Dipole moment (field-independent basis, Debye):
    X=             -4.0733    Y=             -0.0428    Z=              0.0242  Tot=              4.0736
 Quadrupole moment (field-independent basis, Debye-Ang):
   XX=            -21.0455   YY=            -17.7485   ZZ=            -18.0691
   XY=             -0.0583   XZ=              0.1062   YZ=              0.0108

 Normal termination of Gaussian 09 at Wed Aug 26 22:07:00 2020.
