 Gaussian 09, Revision D.01,
 Gaussian 09:  ES64L-G09RevD.01 24-Apr-2013

 --------------------
 #p B2PLYPD3/Def2QZVP
 --------------------

 ------------
 cyanomethane
 ------------
 Symbolic Z-matrix:
 Charge =  0 Multiplicity = 1

                         Standard orientation:
 ---------------------------------------------------------------------
 Center     Atomic      Atomic             Coordinates (Angstroms)
 Number     Number       Type             X           Y           Z
 ---------------------------------------------------------------------
      1          6           0       -1.173715    0.019961    0.000629
      2          6           0        0.263492   -0.043026   -0.010575
      3          7           0        1.429661    0.021107    0.004689
      4          1           0       -1.503981   -0.200785    1.024281
      5          1           0       -1.513613   -0.795059   -0.665777
      6          1           0       -1.528697    0.986483   -0.331653
 ---------------------------------------------------------------------

 SCF Done:  E(RB2PLYPD3) =  -132.532181645     A.U. after   12 cycles
 E2(B2PLYPD3) =    -0.1817650310D+00 E(B2PLYPD3) =    -0.13271394667557D+03

 The electronic state is 1-A.
 Alpha  occ. eigenvalues --  -14.84418 -10.67196 -10.66425  -1.03569  -0.89594
 Alpha  occ. eigenvalues --   -0.59395  -0.54640  -0.53912  -0.44732  -0.38637
 Alpha  occ. eigenvalues --   -0.38450
 Alpha virt. eigenvalues --    0.03688   0.07488   0.07777   0.10039   0.11351
 Alpha virt. eigenvalues --    0.11443   0.15420   0.15445   0.16520   0.20140
 Alpha virt. eigenvalues --    0.20215   0.25772   0.32706   0.33951   0.34800

 Mulliken charges:
               1
     1  C   -0.095654
     2  C    0.001626
     3  N   -0.214296
     4  H    0.101903
     5  H    0.099929
     6  H    0.106492
 Sum of Mulliken charges =   0.00000

 Dipole moment (field-independent basis, Debye):
    X=             -4.1155    Y=             -0.0345    Z=              0.0003  Tot=              4.1156
 Quadrupole moment (field-independent basis, Debye-Ang):
   XX=            -21.2695   YY=            -17.6594   ZZ=            -17.7656
   XY=             -0.1029   XZ=             -0.0275   YZ=             -0.0300

 Normal termination of Gaussian 09 at Wed Aug 26 15:40:08 2020.
