 Gaussian 09, Revision D.01,
 Gaussian 09:  ES64L-G09RevD.01 24-Apr-2013

 --------------------
 #p B2PLYPD3/Def2QZVP
 --------------------

 ------------
 cyanomethane
 ------------
 Symbolic Z-matrix:
 Charge =  0 Multiplicity = 1

                         Standard orientation:
 ---------------------------------------------------------------------
 Center     Atomic      Atomic             Coordinates (Angstroms)
 Number     Number       Type             X           Y           Z
 ---------------------------------------------------------------------
      1          6           0       -1.173221    0.020478    0.010005
      2          6           0        0.275901   -0.014485   -0.022547
      3          7           0        1.423258    0.007689    0.012669
      4          1           0       -1.550570   -0.096620    0.989501
      5          1           0       -1.487698   -0.902244   -0.554008
      6          1           0       -1.540619    0.909086   -0.448930
 ---------------------------------------------------------------------

 SCF Done:  E(RB2PLYPD3) =  -132.533100869     A.U. after   11 cycles
 E2(B2PLYPD3) =    -0.1798808881D+00 E(B2PLYPD3) =    -0.13271298175694D+03

 The electronic state is 1-A.
 Alpha  occ. eigenvalues --  -14.83907 -10.66825 -10.65932  -1.04348  -0.89583
 Alpha  occ. eigenvalues --   -0.59763  -0.55203  -0.53223  -0.44695  -0.39316
 Alpha  occ. eigenvalues --   -0.38914
 Alpha virt. eigenvalues --    0.03799   0.08013   0.08233   0.10126   0.11374
 Alpha virt. eigenvalues --    0.11765   0.15461   0.15655   0.16904   0.20043
 Alpha virt. eigenvalues --    0.20134   0.25551   0.32682   0.33955   0.35475

 Mulliken charges:
               1
     1  C   -0.088731
     2  C   -0.001542
     3  N   -0.204402
     4  H    0.098515
     5  H    0.093350
     6  H    0.102809
 Sum of Mulliken charges =   0.00000

 Dipole moment (field-independent basis, Debye):
    X=             -4.1024    Y=             -0.0261    Z=             -0.0023  Tot=              4.1025
 Quadrupole moment (field-independent basis, Debye-Ang):
   XX=            -21.1083   YY=            -17.5799   ZZ=            -17.7764
   XY=             -0.0442   XZ=             -0.1434   YZ=             -0.0716

 Normal termination of Gaussian 09 at Wed Aug 26 14:44:35 2020.
