 Gaussian 09, Revision D.01,
 Gaussian 09:  ES64L-G09RevD.01 24-Apr-2013

 --------------------
 #p B2PLYPD3/Def2QZVP
 --------------------

 ------------
 cyanomethane
 ------------
 Symbolic Z-matrix:
 Charge =  0 Multiplicity = 1

                         Standard orientation:
 ---------------------------------------------------------------------
 Center     Atomic      Atomic             Coordinates (Angstroms)
 Number     Number       Type             X           Y           Z
 ---------------------------------------------------------------------
      1          6           0       -1.172274    0.013738   -0.022259
      2          6           0        0.254965    0.052208   -0.020462
      3          7           0        1.423924   -0.036020    0.007170
      4          1           0       -1.417371    0.978597   -0.276111
      5          1           0       -1.438642   -0.243285    1.107791
      6          1           0       -1.607598   -0.878847   -0.625550
 ---------------------------------------------------------------------

 SCF Done:  E(RB2PLYPD3) =  -132.514836092     A.U. after   12 cycles
 E2(B2PLYPD3) =    -0.1828748046D+00 E(B2PLYPD3) =    -0.13269771089620D+03

 The electronic state is 1-A.
 Alpha  occ. eigenvalues --  -14.84419 -10.67999 -10.66434  -1.03386  -0.89651
 Alpha  occ. eigenvalues --   -0.58501  -0.56492  -0.51694  -0.44645  -0.38518
 Alpha  occ. eigenvalues --   -0.37814
 Alpha virt. eigenvalues --    0.03215   0.06138   0.08444   0.09982   0.10914
 Alpha virt. eigenvalues --    0.11976   0.14842   0.15402   0.16553   0.20058
 Alpha virt. eigenvalues --    0.20375   0.25760   0.31684   0.32469   0.35070

 Mulliken charges:
               1
     1  C   -0.114259
     2  C    0.004905
     3  N   -0.217570
     4  H    0.117621
     5  H    0.100254
     6  H    0.109049
 Sum of Mulliken charges =   0.00000

 Dipole moment (field-independent basis, Debye):
    X=             -4.0863    Y=              0.0221    Z=              0.0198  Tot=              4.0864
 Quadrupole moment (field-independent basis, Debye-Ang):
   XX=            -21.5749   YY=            -17.4716   ZZ=            -17.9145
   XY=              0.3706   XZ=             -0.0101   YZ=             -0.0395

 Normal termination of Gaussian 09 at Wed Aug 26 21:39:15 2020.
