 Gaussian 09, Revision D.01,
 Gaussian 09:  ES64L-G09RevD.01 24-Apr-2013

 --------------------
 #p B2PLYPD3/Def2QZVP
 --------------------

 ------------
 cyanomethane
 ------------
 Symbolic Z-matrix:
 Charge =  0 Multiplicity = 1

                         Standard orientation:
 ---------------------------------------------------------------------
 Center     Atomic      Atomic             Coordinates (Angstroms)
 Number     Number       Type             X           Y           Z
 ---------------------------------------------------------------------
      1          6           0       -1.175802   -0.000938   -0.016102
      2          6           0        0.285811    0.008570   -0.022989
      3          7           0        1.436380   -0.008091    0.011229
      4          1           0       -1.530529    1.045526   -0.130044
      5          1           0       -1.552483   -0.353859    1.016636
      6          1           0       -1.631701   -0.680818   -0.730647
 ---------------------------------------------------------------------

 SCF Done:  E(RB2PLYPD3) =  -132.531596837     A.U. after   12 cycles
 E2(B2PLYPD3) =    -0.1806502519D+00 E(B2PLYPD3) =    -0.13271224708917D+03

 The electronic state is 1-A.
 Alpha  occ. eigenvalues --  -14.84182 -10.67988 -10.66289  -1.04289  -0.88496
 Alpha  occ. eigenvalues --   -0.59727  -0.54114  -0.51999  -0.44844  -0.39303
 Alpha  occ. eigenvalues --   -0.38904
 Alpha virt. eigenvalues --    0.03545   0.07306   0.07870   0.10169   0.11336
 Alpha virt. eigenvalues --    0.11817   0.15325   0.16065   0.16958   0.19994
 Alpha virt. eigenvalues --    0.20132   0.25279   0.32447   0.33283   0.34995

 Mulliken charges:
               1
     1  C   -0.090596
     2  C    0.001399
     3  N   -0.203061
     4  H    0.099752
     5  H    0.091409
     6  H    0.101097
 Sum of Mulliken charges =   0.00000

 Dipole moment (field-independent basis, Debye):
    X=             -4.1172    Y=              0.0058    Z=              0.0001  Tot=              4.1172
 Quadrupole moment (field-independent basis, Debye-Ang):
   XX=            -20.9873   YY=            -17.6927   ZZ=            -17.9280
   XY=              0.1285   XZ=             -0.0702   YZ=              0.0616

 Normal termination of Gaussian 09 at Wed Aug 26 14:56:35 2020.
