 Gaussian 09, Revision D.01,
 Gaussian 09:  ES64L-G09RevD.01 24-Apr-2013

 --------------------
 #p B2PLYPD3/Def2QZVP
 --------------------

 ------------
 cyanomethane
 ------------
 Symbolic Z-matrix:
 Charge =  0 Multiplicity = 1

                         Standard orientation:
 ---------------------------------------------------------------------
 Center     Atomic      Atomic             Coordinates (Angstroms)
 Number     Number       Type             X           Y           Z
 ---------------------------------------------------------------------
      1          6           0        1.198981   -0.013072   -0.019586
      2          6           0       -0.288586    0.031928   -0.025238
      3          7           0       -1.446356   -0.004900    0.022003
      4          1           0        1.391452   -0.578175   -0.763095
      5          1           0        1.575251   -0.479614    0.889013
      6          1           0        1.695412    0.978955   -0.010997
 ---------------------------------------------------------------------

 SCF Done:  E(RB2PLYPD3) =  -132.516573207     A.U. after   12 cycles
 E2(B2PLYPD3) =    -0.1806619766D+00 E(B2PLYPD3) =    -0.13269723518391D+03

 The electronic state is 1-A.
 Alpha  occ. eigenvalues --  -14.84397 -10.66550 -10.66229  -1.03918  -0.90027
 Alpha  occ. eigenvalues --   -0.59614  -0.57005  -0.52375  -0.44784  -0.39345
 Alpha  occ. eigenvalues --   -0.38959
 Alpha virt. eigenvalues --    0.03760   0.07419   0.09157   0.10314   0.10866
 Alpha virt. eigenvalues --    0.11513   0.15176   0.15945   0.16956   0.19995
 Alpha virt. eigenvalues --    0.20208   0.24787   0.32168   0.34196   0.36103

 Mulliken charges:
               1
     1  C   -0.085599
     2  C   -0.000519
     3  N   -0.208714
     4  H    0.113186
     5  H    0.087941
     6  H    0.093705
 Sum of Mulliken charges =   0.00000

 Dipole moment (field-independent basis, Debye):
    X=              4.1615    Y=             -0.0219    Z=             -0.0055  Tot=              4.1616
 Quadrupole moment (field-independent basis, Debye-Ang):
   XX=            -20.7987   YY=            -17.7175   ZZ=            -17.8417
   XY=              0.0873   XZ=              0.3088   YZ=              0.1441

 Normal termination of Gaussian 09 at Wed Aug 26 21:52:21 2020.
