 Gaussian 09, Revision D.01,
 Gaussian 09:  ES64L-G09RevD.01 24-Apr-2013

 --------------------
 #p B2PLYPD3/Def2QZVP
 --------------------

 ------------
 cyanomethane
 ------------
 Symbolic Z-matrix:
 Charge =  0 Multiplicity = 1

                         Standard orientation:
 ---------------------------------------------------------------------
 Center     Atomic      Atomic             Coordinates (Angstroms)
 Number     Number       Type             X           Y           Z
 ---------------------------------------------------------------------
      1          6           0        1.178346    0.020200   -0.003370
      2          6           0       -0.253636   -0.070120    0.027000
      3          7           0       -1.428793    0.037704   -0.009391
      4          1           0        1.410188   -0.561067   -0.844293
      5          1           0        1.513925   -0.418388    0.864545
      6          1           0        1.529180    1.015048   -0.096294
 ---------------------------------------------------------------------

 SCF Done:  E(RB2PLYPD3) =  -132.524056918     A.U. after   13 cycles
 E2(B2PLYPD3) =    -0.1824467650D+00 E(B2PLYPD3) =    -0.13270650368317D+03

 The electronic state is 1-A.
 Alpha  occ. eigenvalues --  -14.84713 -10.66690 -10.65650  -1.03141  -0.90915
 Alpha  occ. eigenvalues --   -0.59877  -0.56003  -0.55227  -0.44727  -0.38361
 Alpha  occ. eigenvalues --   -0.38239
 Alpha virt. eigenvalues --    0.03730   0.07456   0.08582   0.09964   0.11043
 Alpha virt. eigenvalues --    0.11310   0.15016   0.15616   0.16598   0.20203
 Alpha virt. eigenvalues --    0.20309   0.26044   0.33135   0.34829   0.35217

 Mulliken charges:
               1
     1  C   -0.083837
     2  C    0.002802
     3  N   -0.221813
     4  H    0.101887
     5  H    0.099375
     6  H    0.101585
 Sum of Mulliken charges =   0.00000

 Dipole moment (field-independent basis, Debye):
    X=              4.1262    Y=             -0.0561    Z=              0.0066  Tot=              4.1266
 Quadrupole moment (field-independent basis, Debye-Ang):
   XX=            -21.2014   YY=            -17.6422   ZZ=            -17.7035
   XY=              0.2171   XZ=              0.0282   YZ=              0.0114

 Normal termination of Gaussian 09 at Wed Aug 26 20:11:24 2020.
