 Gaussian 09, Revision D.01,
 Gaussian 09:  ES64L-G09RevD.01 24-Apr-2013

 --------------------
 #p B2PLYPD3/Def2QZVP
 --------------------

 ------------
 cyanomethane
 ------------
 Symbolic Z-matrix:
 Charge =  0 Multiplicity = 1

                         Standard orientation:
 ---------------------------------------------------------------------
 Center     Atomic      Atomic             Coordinates (Angstroms)
 Number     Number       Type             X           Y           Z
 ---------------------------------------------------------------------
      1          6           0        1.188012    0.000724   -0.001441
      2          6           0       -0.274008    0.005565   -0.030898
      3          7           0       -1.440490   -0.004615    0.012577
      4          1           0        1.520973    1.002179   -0.155057
      5          1           0        1.586114   -0.673479   -0.719212
      6          1           0        1.492323   -0.334127    0.980271
 ---------------------------------------------------------------------

 SCF Done:  E(RB2PLYPD3) =  -132.533459845     A.U. after   12 cycles
 E2(B2PLYPD3) =    -0.1813366038D+00 E(B2PLYPD3) =    -0.13271479644844D+03

 The electronic state is 1-A.
 Alpha  occ. eigenvalues --  -14.84489 -10.66664 -10.66575  -1.03565  -0.89686
 Alpha  occ. eigenvalues --   -0.59642  -0.55051  -0.54075  -0.44756  -0.38861
 Alpha  occ. eigenvalues --   -0.38695
 Alpha virt. eigenvalues --    0.03810   0.07880   0.08123   0.10184   0.11088
 Alpha virt. eigenvalues --    0.11377   0.15329   0.15954   0.16329   0.20116
 Alpha virt. eigenvalues --    0.20191   0.25258   0.32645   0.34495   0.35243

 Mulliken charges:
               1
     1  C   -0.081610
     2  C   -0.000818
     3  N   -0.213221
     4  H    0.100048
     5  H    0.098130
     6  H    0.097471
 Sum of Mulliken charges =   0.00000

 Dipole moment (field-independent basis, Debye):
    X=              4.1517    Y=              0.0000    Z=              0.0002  Tot=              4.1517
 Quadrupole moment (field-independent basis, Debye-Ang):
   XX=            -21.0522   YY=            -17.6796   ZZ=            -17.8128
   XY=             -0.0702   XZ=              0.0415   YZ=              0.0140

 Normal termination of Gaussian 09 at Wed Aug 26 11:13:18 2020.
