 Gaussian 09, Revision D.01,
 Gaussian 09:  ES64L-G09RevD.01 24-Apr-2013

 --------------------
 #p B2PLYPD3/Def2QZVP
 --------------------

 ------------
 cyanomethane
 ------------
 Symbolic Z-matrix:
 Charge =  0 Multiplicity = 1

                         Standard orientation:
 ---------------------------------------------------------------------
 Center     Atomic      Atomic             Coordinates (Angstroms)
 Number     Number       Type             X           Y           Z
 ---------------------------------------------------------------------
      1          6           0       -1.192703    0.030549   -0.009059
      2          6           0        0.268814    0.006172    0.001403
      3          7           0        1.421860   -0.008586    0.004092
      4          1           0       -1.423234    1.020495   -0.269129
      5          1           0       -1.527494   -0.348635    1.064891
      6          1           0       -1.458961   -0.832087   -0.778473
 ---------------------------------------------------------------------

 SCF Done:  E(RB2PLYPD3) =  -132.517939273     A.U. after   12 cycles
 E2(B2PLYPD3) =    -0.1812676992D+00 E(B2PLYPD3) =    -0.13269920697191D+03

 The electronic state is 1-A.
 Alpha  occ. eigenvalues --  -14.83772 -10.68790 -10.65882  -1.03950  -0.88696
 Alpha  occ. eigenvalues --   -0.57408  -0.55574  -0.51872  -0.44377  -0.38988
 Alpha  occ. eigenvalues --   -0.38401
 Alpha virt. eigenvalues --    0.03272   0.06926   0.08456   0.10100   0.11279
 Alpha virt. eigenvalues --    0.11938   0.14818   0.15262   0.15708   0.20063
 Alpha virt. eigenvalues --    0.20213   0.25009   0.31565   0.31779   0.34766

 Mulliken charges:
               1
     1  C   -0.131790
     2  C   -0.000302
     3  N   -0.208734
     4  H    0.123694
     5  H    0.107664
     6  H    0.109467
 Sum of Mulliken charges =   0.00000

 Dipole moment (field-independent basis, Debye):
    X=             -4.0483    Y=             -0.0081    Z=             -0.0010  Tot=              4.0483
 Quadrupole moment (field-independent basis, Debye-Ang):
   XX=            -21.8930   YY=            -17.4323   ZZ=            -17.7565
   XY=              0.1338   XZ=             -0.1074   YZ=             -0.0692

 Normal termination of Gaussian 09 at Wed Aug 26 23:49:03 2020.
