 Gaussian 09, Revision D.01,
 Gaussian 09:  ES64L-G09RevD.01 24-Apr-2013

 --------------------
 #p B2PLYPD3/Def2QZVP
 --------------------

 ------------
 cyanomethane
 ------------
 Symbolic Z-matrix:
 Charge =  0 Multiplicity = 1

                         Standard orientation:
 ---------------------------------------------------------------------
 Center     Atomic      Atomic             Coordinates (Angstroms)
 Number     Number       Type             X           Y           Z
 ---------------------------------------------------------------------
      1          6           0        1.184627    0.002705   -0.008209
      2          6           0       -0.274426   -0.001213    0.018652
      3          7           0       -1.440292    0.001354   -0.009038
      4          1           0        1.533926   -0.322920    0.940234
      5          1           0        1.554354    0.968173   -0.195873
      6          1           0        1.532559   -0.663675   -0.743758
 ---------------------------------------------------------------------

 SCF Done:  E(RB2PLYPD3) =  -132.532798902     A.U. after   11 cycles
 E2(B2PLYPD3) =    -0.1810509307D+00 E(B2PLYPD3) =    -0.13271384983226D+03

 The electronic state is 1-A.
 Alpha  occ. eigenvalues --  -14.84497 -10.66574 -10.66122  -1.03644  -0.90051
 Alpha  occ. eigenvalues --   -0.60120  -0.54969  -0.54594  -0.44805  -0.38902
 Alpha  occ. eigenvalues --   -0.38817
 Alpha virt. eigenvalues --    0.03902   0.08061   0.08166   0.10174   0.11220
 Alpha virt. eigenvalues --    0.11268   0.15439   0.16013   0.16534   0.20151
 Alpha virt. eigenvalues --    0.20158   0.25311   0.32789   0.34957   0.35338

 Mulliken charges:
               1
     1  C   -0.070902
     2  C   -0.000470
     3  N   -0.212693
     4  H    0.093215
     5  H    0.095254
     6  H    0.095596
 Sum of Mulliken charges =   0.00000

 Dipole moment (field-independent basis, Debye):
    X=              4.1598    Y=             -0.0060    Z=              0.0159  Tot=              4.1598
 Quadrupole moment (field-independent basis, Debye-Ang):
   XX=            -20.9159   YY=            -17.7321   ZZ=            -17.7632
   XY=              0.0145   XZ=             -0.0396   YZ=              0.0080

 Normal termination of Gaussian 09 at Wed Aug 26 09:45:36 2020.
