 Gaussian 09, Revision D.01,
 Gaussian 09:  ES64L-G09RevD.01 24-Apr-2013

 --------------------
 #p B2PLYPD3/Def2QZVP
 --------------------

 ------------
 cyanomethane
 ------------
 Symbolic Z-matrix:
 Charge =  0 Multiplicity = 1

                         Standard orientation:
 ---------------------------------------------------------------------
 Center     Atomic      Atomic             Coordinates (Angstroms)
 Number     Number       Type             X           Y           Z
 ---------------------------------------------------------------------
      1          6           0       -1.176612   -0.019099   -0.013980
      2          6           0        0.272642   -0.006615    0.067334
      3          7           0        1.454025    0.011381   -0.033221
      4          1           0       -1.575292   -0.173513    0.921639
      5          1           0       -1.520704   -0.738735   -0.671996
      6          1           0       -1.658360    0.986865   -0.337222
 ---------------------------------------------------------------------

 SCF Done:  E(RB2PLYPD3) =  -132.521664921     A.U. after   12 cycles
 E2(B2PLYPD3) =    -0.1833557090D+00 E(B2PLYPD3) =    -0.13270502063007D+03

 The electronic state is 1-A.
 Alpha  occ. eigenvalues --  -14.85294 -10.67352 -10.66622  -1.03062  -0.89766
 Alpha  occ. eigenvalues --   -0.61055  -0.55601  -0.52157  -0.45121  -0.38621
 Alpha  occ. eigenvalues --   -0.38262
 Alpha virt. eigenvalues --    0.03398   0.06635   0.07771   0.10035   0.11037
 Alpha virt. eigenvalues --    0.11406   0.15512   0.15938   0.17200   0.20077
 Alpha virt. eigenvalues --    0.20351   0.25731   0.32245   0.33822   0.35640

 Mulliken charges:
               1
     1  C   -0.064473
     2  C    0.008727
     3  N   -0.217783
     4  H    0.091541
     5  H    0.098073
     6  H    0.083916
 Sum of Mulliken charges =   0.00000

 Dipole moment (field-independent basis, Debye):
    X=             -4.1702    Y=             -0.0365    Z=              0.0639  Tot=              4.1709
 Quadrupole moment (field-independent basis, Debye-Ang):
   XX=            -20.6810   YY=            -17.9224   ZZ=            -17.9316
   XY=             -0.1247   XZ=              0.0994   YZ=              0.0931

 Normal termination of Gaussian 09 at Wed Aug 26 22:18:50 2020.
