 Gaussian 09, Revision D.01,
 Gaussian 09:  ES64L-G09RevD.01 24-Apr-2013

 --------------------
 #p B2PLYPD3/Def2QZVP
 --------------------

 ------------
 cyanomethane
 ------------
 Symbolic Z-matrix:
 Charge =  0 Multiplicity = 1

                         Standard orientation:
 ---------------------------------------------------------------------
 Center     Atomic      Atomic             Coordinates (Angstroms)
 Number     Number       Type             X           Y           Z
 ---------------------------------------------------------------------
      1          6           0       -1.192857    0.004083    0.005250
      2          6           0        0.287522    0.032584   -0.004188
      3          7           0        1.433833   -0.013209    0.002094
      4          1           0       -1.527885   -0.272866    0.989009
      5          1           0       -1.489208   -0.817976   -0.698218
      6          1           0       -1.587731    0.963297   -0.311820
 ---------------------------------------------------------------------

 SCF Done:  E(RB2PLYPD3) =  -132.534426449     A.U. after   12 cycles
 E2(B2PLYPD3) =    -0.1799097696D+00 E(B2PLYPD3) =    -0.13271433621848D+03

 The electronic state is 1-A.
 Alpha  occ. eigenvalues --  -14.83911 -10.67517 -10.66032  -1.04299  -0.88771
 Alpha  occ. eigenvalues --   -0.58767  -0.54606  -0.53271  -0.44631  -0.39385
 Alpha  occ. eigenvalues --   -0.39133
 Alpha virt. eigenvalues --    0.03689   0.08080   0.08342   0.10233   0.11249
 Alpha virt. eigenvalues --    0.11616   0.15165   0.15966   0.16378   0.19986
 Alpha virt. eigenvalues --    0.20111   0.24929   0.32499   0.33875   0.35132

 Mulliken charges:
               1
     1  C   -0.096869
     2  C   -0.004810
     3  N   -0.202563
     4  H    0.101908
     5  H    0.099289
     6  H    0.103045
 Sum of Mulliken charges =   0.00000

 Dipole moment (field-independent basis, Debye):
    X=             -4.1142    Y=              0.0017    Z=              0.0063  Tot=              4.1142
 Quadrupole moment (field-independent basis, Debye-Ang):
   XX=            -21.1771   YY=            -17.6229   ZZ=            -17.7781
   XY=              0.0406   XZ=             -0.0406   YZ=             -0.0440

 Normal termination of Gaussian 09 at Wed Aug 26 15:54:09 2020.
