 Gaussian 09, Revision D.01,
 Gaussian 09:  ES64L-G09RevD.01 24-Apr-2013

 --------------------
 #p B2PLYPD3/Def2QZVP
 --------------------

 ------------
 cyanomethane
 ------------
 Symbolic Z-matrix:
 Charge =  0 Multiplicity = 1

                         Standard orientation:
 ---------------------------------------------------------------------
 Center     Atomic      Atomic             Coordinates (Angstroms)
 Number     Number       Type             X           Y           Z
 ---------------------------------------------------------------------
      1          6           0       -1.183988   -0.013956    0.003682
      2          6           0        0.276353    0.016766   -0.007994
      3          7           0        1.439823   -0.009258    0.002680
      4          1           0       -1.521899    0.997838   -0.225085
      5          1           0       -1.537045   -0.274742    0.955658
      6          1           0       -1.574006   -0.675146   -0.723464
 ---------------------------------------------------------------------

 SCF Done:  E(RB2PLYPD3) =  -132.533218800     A.U. after   12 cycles
 E2(B2PLYPD3) =    -0.1809909033D+00 E(B2PLYPD3) =    -0.13271420970331D+03

 The electronic state is 1-A.
 Alpha  occ. eigenvalues --  -14.84443 -10.66539 -10.66456  -1.03739  -0.89767
 Alpha  occ. eigenvalues --   -0.60065  -0.54947  -0.53983  -0.44805  -0.38993
 Alpha  occ. eigenvalues --   -0.38800
 Alpha virt. eigenvalues --    0.03856   0.07977   0.08084   0.10154   0.11227
 Alpha virt. eigenvalues --    0.11364   0.15413   0.15892   0.16715   0.20139
 Alpha virt. eigenvalues --    0.20146   0.25301   0.32705   0.34482   0.35444

 Mulliken charges:
               1
     1  C   -0.075358
     2  C   -0.000070
     3  N   -0.211312
     4  H    0.092943
     5  H    0.097203
     6  H    0.096593
 Sum of Mulliken charges =   0.00000

 Dipole moment (field-independent basis, Debye):
    X=             -4.1517    Y=              0.0176    Z=              0.0009  Tot=              4.1518
 Quadrupole moment (field-independent basis, Debye-Ang):
   XX=            -20.9442   YY=            -17.7647   ZZ=            -17.7489
   XY=              0.0691   XZ=             -0.0047   YZ=              0.0131

 Normal termination of Gaussian 09 at Wed Aug 26 10:12:00 2020.
