 Gaussian 09, Revision D.01,
 Gaussian 09:  ES64L-G09RevD.01 24-Apr-2013

 --------------------
 #p B2PLYPD3/Def2QZVP
 --------------------

 ------------
 cyanomethane
 ------------
 Symbolic Z-matrix:
 Charge =  0 Multiplicity = 1

                         Standard orientation:
 ---------------------------------------------------------------------
 Center     Atomic      Atomic             Coordinates (Angstroms)
 Number     Number       Type             X           Y           Z
 ---------------------------------------------------------------------
      1          6           0       -1.186597   -0.003067    0.006239
      2          6           0        0.282999    0.011454   -0.001933
      3          7           0        1.436380   -0.000920    0.000134
      4          1           0       -1.527759   -0.231851    0.968464
      5          1           0       -1.499136   -0.787855   -0.678107
      6          1           0       -1.606175    0.975824   -0.317129
 ---------------------------------------------------------------------

 SCF Done:  E(RB2PLYPD3) =  -132.534153191     A.U. after   12 cycles
 E2(B2PLYPD3) =    -0.1802729753D+00 E(B2PLYPD3) =    -0.13271442616675D+03

 The electronic state is 1-A.
 Alpha  occ. eigenvalues --  -14.84135 -10.67035 -10.66235  -1.04111  -0.89243
 Alpha  occ. eigenvalues --   -0.59441  -0.54478  -0.53727  -0.44728  -0.39183
 Alpha  occ. eigenvalues --   -0.39089
 Alpha virt. eigenvalues --    0.03775   0.07863   0.08380   0.10218   0.11355
 Alpha virt. eigenvalues --    0.11433   0.15297   0.16019   0.16539   0.20073
 Alpha virt. eigenvalues --    0.20098   0.25104   0.32530   0.34480   0.34992

 Mulliken charges:
               1
     1  C   -0.086157
     2  C   -0.002812
     3  N   -0.205893
     4  H    0.099886
     5  H    0.098526
     6  H    0.096450
 Sum of Mulliken charges =   0.00000

 Dipole moment (field-independent basis, Debye):
    X=             -4.1313    Y=             -0.0177    Z=              0.0118  Tot=              4.1314
 Quadrupole moment (field-independent basis, Debye-Ang):
   XX=            -21.0367   YY=            -17.6834   ZZ=            -17.7804
   XY=             -0.0347   XZ=             -0.0253   YZ=             -0.0026

 Normal termination of Gaussian 09 at Wed Aug 26 15:06:25 2020.
