 Gaussian 09, Revision D.01,
 Gaussian 09:  ES64L-G09RevD.01 24-Apr-2013

 --------------------
 #p B2PLYPD3/Def2QZVP
 --------------------

 ------------
 cyanomethane
 ------------
 Symbolic Z-matrix:
 Charge =  0 Multiplicity = 1

                         Standard orientation:
 ---------------------------------------------------------------------
 Center     Atomic      Atomic             Coordinates (Angstroms)
 Number     Number       Type             X           Y           Z
 ---------------------------------------------------------------------
      1          6           0        1.177718   -0.015942    0.010190
      2          6           0       -0.298840    0.057276   -0.048950
      3          7           0       -1.441311   -0.041686    0.028549
      4          1           0        1.725918   -0.481727    0.961707
      5          1           0        1.434585    1.103892   -0.028468
      6          1           0        1.655406   -0.578367   -0.900523
 ---------------------------------------------------------------------

 SCF Done:  E(RB2PLYPD3) =  -132.514076764     A.U. after   13 cycles
 E2(B2PLYPD3) =    -0.1818226516D+00 E(B2PLYPD3) =    -0.13269589941528D+03

 The electronic state is 1-A.
 Alpha  occ. eigenvalues --  -14.84363 -10.69668 -10.66515  -1.04498  -0.87058
 Alpha  occ. eigenvalues --   -0.59048  -0.52327  -0.50691  -0.44997  -0.39208
 Alpha  occ. eigenvalues --   -0.38961
 Alpha virt. eigenvalues --    0.02908   0.06064   0.07657   0.09897   0.11493
 Alpha virt. eigenvalues --    0.11794   0.14984   0.15628   0.17878   0.19894
 Alpha virt. eigenvalues --    0.20511   0.25526   0.31776   0.32644   0.33382

 Mulliken charges:
               1
     1  C   -0.110943
     2  C    0.010389
     3  N   -0.198213
     4  H    0.100447
     5  H    0.098979
     6  H    0.099341
 Sum of Mulliken charges =   0.00000

 Dipole moment (field-independent basis, Debye):
    X=              4.0663    Y=              0.0746    Z=             -0.0407  Tot=              4.0672
 Quadrupole moment (field-independent basis, Debye-Ang):
   XX=            -20.9837   YY=            -17.8691   ZZ=            -17.9959
   XY=             -0.4414   XZ=              0.2292   YZ=              0.0414

 Normal termination of Gaussian 09 at Wed Aug 26 19:02:21 2020.
