 Gaussian 09, Revision D.01,
 Gaussian 09:  ES64L-G09RevD.01 24-Apr-2013

 --------------------
 #p B2PLYPD3/Def2QZVP
 --------------------

 ------------
 cyanomethane
 ------------
 Symbolic Z-matrix:
 Charge =  0 Multiplicity = 1

                         Standard orientation:
 ---------------------------------------------------------------------
 Center     Atomic      Atomic             Coordinates (Angstroms)
 Number     Number       Type             X           Y           Z
 ---------------------------------------------------------------------
      1          6           0       -1.166025    0.017873   -0.011808
      2          6           0        0.277392   -0.034368   -0.014903
      3          7           0        1.428864    0.016959    0.008939
      4          1           0       -1.553753   -0.494700   -0.844972
      5          1           0       -1.568678    1.000775    0.048995
      6          1           0       -1.547824   -0.525819    0.893670
 ---------------------------------------------------------------------

 SCF Done:  E(RB2PLYPD3) =  -132.533099919     A.U. after   12 cycles
 E2(B2PLYPD3) =    -0.1802936638D+00 E(B2PLYPD3) =    -0.13271339358315D+03

 The electronic state is 1-A.
 Alpha  occ. eigenvalues --  -14.84189 -10.66645 -10.66195  -1.04261  -0.89633
 Alpha  occ. eigenvalues --   -0.60497  -0.54981  -0.52958  -0.44866  -0.39251
 Alpha  occ. eigenvalues --   -0.38908
 Alpha virt. eigenvalues --    0.03763   0.07588   0.08232   0.10104   0.11357
 Alpha virt. eigenvalues --    0.11743   0.15592   0.16004   0.17067   0.20038
 Alpha virt. eigenvalues --    0.20151   0.25710   0.32877   0.34095   0.35503

 Mulliken charges:
               1
     1  C   -0.073896
     2  C    0.000984
     3  N   -0.205421
     4  H    0.094882
     5  H    0.096470
     6  H    0.086982
 Sum of Mulliken charges =   0.00000

 Dipole moment (field-independent basis, Debye):
    X=             -4.1221    Y=             -0.0318    Z=             -0.0075  Tot=              4.1222
 Quadrupole moment (field-independent basis, Debye-Ang):
   XX=            -20.8560   YY=            -17.7223   ZZ=            -17.7981
   XY=             -0.0857   XZ=             -0.0657   YZ=              0.0628

 Normal termination of Gaussian 09 at Wed Aug 26 13:35:32 2020.
