 Gaussian 09, Revision D.01,
 Gaussian 09:  ES64L-G09RevD.01 24-Apr-2013

 --------------------
 #p B2PLYPD3/Def2QZVP
 --------------------

 ------------
 cyanomethane
 ------------
 Symbolic Z-matrix:
 Charge =  0 Multiplicity = 1

                         Standard orientation:
 ---------------------------------------------------------------------
 Center     Atomic      Atomic             Coordinates (Angstroms)
 Number     Number       Type             X           Y           Z
 ---------------------------------------------------------------------
      1          6           0        1.164864   -0.003506   -0.021122
      2          6           0       -0.276228    0.020514    0.026946
      3          7           0       -1.430645   -0.014842   -0.010792
      4          1           0        1.500749    1.029600    0.017725
      5          1           0        1.578190   -0.507021   -0.818484
      6          1           0        1.603758   -0.520730    0.841359
 ---------------------------------------------------------------------

 SCF Done:  E(RB2PLYPD3) =  -132.531105161     A.U. after   12 cycles
 E2(B2PLYPD3) =    -0.1804849917D+00 E(B2PLYPD3) =    -0.13271159015224D+03

 The electronic state is 1-A.
 Alpha  occ. eigenvalues --  -14.84289 -10.66381 -10.66294  -1.04178  -0.89867
 Alpha  occ. eigenvalues --   -0.61136  -0.54786  -0.53083  -0.44905  -0.39150
 Alpha  occ. eigenvalues --   -0.38908
 Alpha virt. eigenvalues --    0.03835   0.07656   0.08072   0.10076   0.11385
 Alpha virt. eigenvalues --    0.11704   0.15501   0.16221   0.17098   0.20031
 Alpha virt. eigenvalues --    0.20202   0.25750   0.32939   0.34337   0.35422

 Mulliken charges:
               1
     1  C   -0.067688
     2  C    0.003443
     3  N   -0.207080
     4  H    0.093573
     5  H    0.093702
     6  H    0.084050
 Sum of Mulliken charges =   0.00000

 Dipole moment (field-independent basis, Debye):
    X=              4.1324    Y=             -0.0005    Z=              0.0196  Tot=              4.1325
 Quadrupole moment (field-independent basis, Debye-Ang):
   XX=            -20.7758   YY=            -17.6256   ZZ=            -17.9334
   XY=             -0.2144   XZ=             -0.0258   YZ=              0.0574

 Normal termination of Gaussian 09 at Wed Aug 26 15:52:06 2020.
