 Gaussian 09, Revision D.01,
 Gaussian 09:  ES64L-G09RevD.01 24-Apr-2013

 --------------------
 #p B2PLYPD3/Def2QZVP
 --------------------

 ------------
 cyanomethane
 ------------
 Symbolic Z-matrix:
 Charge =  0 Multiplicity = 1

                         Standard orientation:
 ---------------------------------------------------------------------
 Center     Atomic      Atomic             Coordinates (Angstroms)
 Number     Number       Type             X           Y           Z
 ---------------------------------------------------------------------
      1          6           0       -1.175865    0.015787    0.001567
      2          6           0        0.279256   -0.009148   -0.013617
      3          7           0        1.429132    0.002073    0.006215
      4          1           0       -1.527992    1.019953   -0.063945
      5          1           0       -1.538207   -0.472631    0.930194
      6          1           0       -1.558072   -0.601670   -0.837458
 ---------------------------------------------------------------------

 SCF Done:  E(RB2PLYPD3) =  -132.534879409     A.U. after   11 cycles
 E2(B2PLYPD3) =    -0.1801550355D+00 E(B2PLYPD3) =    -0.13271503444411D+03

 The electronic state is 1-A.
 Alpha  occ. eigenvalues --  -14.84017 -10.67273 -10.66061  -1.04270  -0.89154
 Alpha  occ. eigenvalues --   -0.59445  -0.54748  -0.53068  -0.44731  -0.39242
 Alpha  occ. eigenvalues --   -0.38978
 Alpha virt. eigenvalues --    0.03731   0.07782   0.08125   0.10174   0.11390
 Alpha virt. eigenvalues --    0.11687   0.15390   0.16038   0.16531   0.20033
 Alpha virt. eigenvalues --    0.20117   0.25394   0.32719   0.33954   0.35078

 Mulliken charges:
               1
     1  C   -0.089631
     2  C   -0.002451
     3  N   -0.204179
     4  H    0.103728
     5  H    0.096678
     6  H    0.095856
 Sum of Mulliken charges =   0.00000

 Dipole moment (field-independent basis, Debye):
    X=             -4.1118    Y=             -0.0142    Z=             -0.0054  Tot=              4.1119
 Quadrupole moment (field-independent basis, Debye-Ang):
   XX=            -21.0902   YY=            -17.6239   ZZ=            -17.8127
   XY=              0.0387   XZ=             -0.0308   YZ=             -0.0090

 Normal termination of Gaussian 09 at Wed Aug 26 10:22:55 2020.
