 Gaussian 09, Revision D.01,
 Gaussian 09:  ES64L-G09RevD.01 24-Apr-2013

 --------------------
 #p B2PLYPD3/Def2QZVP
 --------------------

 ------------
 cyanomethane
 ------------
 Symbolic Z-matrix:
 Charge =  0 Multiplicity = 1

                         Standard orientation:
 ---------------------------------------------------------------------
 Center     Atomic      Atomic             Coordinates (Angstroms)
 Number     Number       Type             X           Y           Z
 ---------------------------------------------------------------------
      1          6           0       -1.197879   -0.015699    0.024296
      2          6           0        0.263110   -0.063542   -0.011900
      3          7           0        1.442534    0.032570   -0.008629
      4          1           0       -1.334077   -0.220765    0.942799
      5          1           0       -1.636219   -0.640765   -0.725193
      6          1           0       -1.518823    1.108987   -0.231583
 ---------------------------------------------------------------------

 SCF Done:  E(RB2PLYPD3) =  -132.504691321     A.U. after   13 cycles
 E2(B2PLYPD3) =    -0.1831740829D+00 E(B2PLYPD3) =    -0.13268786540397D+03

 The electronic state is 1-A.
 Alpha  occ. eigenvalues --  -14.84848 -10.66963 -10.66775  -1.02975  -0.90429
 Alpha  occ. eigenvalues --   -0.58934  -0.57980  -0.52143  -0.44684  -0.38566
 Alpha  occ. eigenvalues --   -0.38006
 Alpha virt. eigenvalues --    0.03226   0.06958   0.08808   0.10185   0.10679
 Alpha virt. eigenvalues --    0.11294   0.15091   0.15312   0.16241   0.20164
 Alpha virt. eigenvalues --    0.20267   0.25293   0.31481   0.32812   0.36263

 Mulliken charges:
               1
     1  C   -0.109895
     2  C    0.002172
     3  N   -0.221433
     4  H    0.125622
     5  H    0.106888
     6  H    0.096646
 Sum of Mulliken charges =   0.00000

 Dipole moment (field-independent basis, Debye):
    X=             -4.1327    Y=             -0.0445    Z=              0.0063  Tot=              4.1330
 Quadrupole moment (field-independent basis, Debye-Ang):
   XX=            -21.2993   YY=            -17.7939   ZZ=            -17.6933
   XY=             -0.1220   XZ=              0.2824   YZ=             -0.0040

 Normal termination of Gaussian 09 at Wed Aug 26 20:14:14 2020.
