 Gaussian 09, Revision D.01,
 Gaussian 09:  ES64L-G09RevD.01 24-Apr-2013

 --------------------
 #p B2PLYPD3/Def2QZVP
 --------------------

 ------------
 cyanomethane
 ------------
 Symbolic Z-matrix:
 Charge =  0 Multiplicity = 1

                         Standard orientation:
 ---------------------------------------------------------------------
 Center     Atomic      Atomic             Coordinates (Angstroms)
 Number     Number       Type             X           Y           Z
 ---------------------------------------------------------------------
      1          6           0        1.176271   -0.012707    0.003961
      2          6           0       -0.278231    0.009805   -0.017372
      3          7           0       -1.428446   -0.004947    0.010538
      4          1           0        1.561664    0.035986    1.019935
      5          1           0        1.511395    0.919419   -0.521362
      6          1           0        1.537819   -0.903370   -0.491865
 ---------------------------------------------------------------------

 SCF Done:  E(RB2PLYPD3) =  -132.534618097     A.U. after   11 cycles
 E2(B2PLYPD3) =    -0.1802351793D+00 E(B2PLYPD3) =    -0.13271485327588D+03

 The electronic state is 1-A.
 Alpha  occ. eigenvalues --  -14.84016 -10.67321 -10.66062  -1.04242  -0.89144
 Alpha  occ. eigenvalues --   -0.59433  -0.54490  -0.53275  -0.44718  -0.39188
 Alpha  occ. eigenvalues --   -0.38962
 Alpha virt. eigenvalues --    0.03726   0.07807   0.08061   0.10154   0.11422
 Alpha virt. eigenvalues --    0.11655   0.15389   0.15860   0.16631   0.20049
 Alpha virt. eigenvalues --    0.20118   0.25413   0.32683   0.33993   0.34944

 Mulliken charges:
               1
     1  C   -0.092274
     2  C   -0.001919
     3  N   -0.204653
     4  H    0.098903
     5  H    0.097088
     6  H    0.102855
 Sum of Mulliken charges =   0.00000

 Dipole moment (field-independent basis, Debye):
    X=              4.1077    Y=              0.0132    Z=             -0.0030  Tot=              4.1077
 Quadrupole moment (field-independent basis, Debye-Ang):
   XX=            -21.1294   YY=            -17.6366   ZZ=            -17.7865
   XY=             -0.0309   XZ=              0.1216   YZ=              0.0425

 Normal termination of Gaussian 09 at Wed Aug 26 10:52:05 2020.
