 Gaussian 09, Revision D.01,
 Gaussian 09:  ES64L-G09RevD.01 24-Apr-2013

 --------------------
 #p B2PLYPD3/Def2QZVP
 --------------------

 ------------
 cyanomethane
 ------------
 Symbolic Z-matrix:
 Charge =  0 Multiplicity = 1

                         Standard orientation:
 ---------------------------------------------------------------------
 Center     Atomic      Atomic             Coordinates (Angstroms)
 Number     Number       Type             X           Y           Z
 ---------------------------------------------------------------------
      1          6           0       -1.182653   -0.004533   -0.003711
      2          6           0        0.280467    0.012165   -0.002986
      3          7           0        1.433358   -0.002148    0.003743
      4          1           0       -1.560428   -0.107184    0.987256
      5          1           0       -1.484099   -0.848903   -0.567337
      6          1           0       -1.575863    0.925329   -0.405934
 ---------------------------------------------------------------------

 SCF Done:  E(RB2PLYPD3) =  -132.534925367     A.U. after   11 cycles
 E2(B2PLYPD3) =    -0.1800851531D+00 E(B2PLYPD3) =    -0.13271501052027D+03

 The electronic state is 1-A.
 Alpha  occ. eigenvalues --  -14.84107 -10.66604 -10.66177  -1.04142  -0.89595
 Alpha  occ. eigenvalues --   -0.59700  -0.54932  -0.53847  -0.44732  -0.39188
 Alpha  occ. eigenvalues --   -0.39098
 Alpha virt. eigenvalues --    0.03853   0.08064   0.08392   0.10218   0.11318
 Alpha virt. eigenvalues --    0.11487   0.15361   0.16185   0.16449   0.20053
 Alpha virt. eigenvalues --    0.20127   0.25232   0.32782   0.34767   0.35122

 Mulliken charges:
               1
     1  C   -0.079885
     2  C   -0.003091
     3  N   -0.206165
     4  H    0.093649
     5  H    0.099558
     6  H    0.095933
 Sum of Mulliken charges =   0.00000

 Dipole moment (field-independent basis, Debye):
    X=             -4.1338    Y=             -0.0067    Z=              0.0121  Tot=              4.1338
 Quadrupole moment (field-independent basis, Debye-Ang):
   XX=            -20.9840   YY=            -17.6198   ZZ=            -17.8133
   XY=             -0.0334   XZ=             -0.0968   YZ=              0.0249

 Normal termination of Gaussian 09 at Thu Aug 27 00:11:24 2020.
