 Gaussian 09, Revision D.01,
 Gaussian 09:  ES64L-G09RevD.01 24-Apr-2013

 --------------------
 #p B2PLYPD3/Def2QZVP
 --------------------

 ------------
 cyanomethane
 ------------
 Symbolic Z-matrix:
 Charge =  0 Multiplicity = 1

                         Standard orientation:
 ---------------------------------------------------------------------
 Center     Atomic      Atomic             Coordinates (Angstroms)
 Number     Number       Type             X           Y           Z
 ---------------------------------------------------------------------
      1          6           0        1.183334   -0.001627   -0.000341
      2          6           0       -0.282019   -0.010569    0.007817
      3          7           0       -1.435434    0.003638   -0.001894
      4          1           0        1.579199   -0.098376    1.008840
      5          1           0        1.509224    0.966970   -0.421900
      6          1           0        1.551724   -0.820890   -0.618537
 ---------------------------------------------------------------------

 SCF Done:  E(RB2PLYPD3) =  -132.535462970     A.U. after   12 cycles
 E2(B2PLYPD3) =    -0.1804313809D+00 E(B2PLYPD3) =    -0.13271589435112D+03

 The electronic state is 1-A.
 Alpha  occ. eigenvalues --  -14.84139 -10.67384 -10.66230  -1.04115  -0.88979
 Alpha  occ. eigenvalues --   -0.59349  -0.54006  -0.53680  -0.44738  -0.39130
 Alpha  occ. eigenvalues --   -0.39043
 Alpha virt. eigenvalues --    0.03723   0.07921   0.07987   0.10204   0.11389
 Alpha virt. eigenvalues --    0.11494   0.15294   0.16139   0.16395   0.20072
 Alpha virt. eigenvalues --    0.20094   0.25188   0.32607   0.34297   0.34750

 Mulliken charges:
               1
     1  C   -0.089905
     2  C   -0.002223
     3  N   -0.205583
     4  H    0.098542
     5  H    0.099321
     6  H    0.099848
 Sum of Mulliken charges =   0.00000

 Dipole moment (field-independent basis, Debye):
    X=              4.1251    Y=             -0.0021    Z=              0.0038  Tot=              4.1252
 Quadrupole moment (field-independent basis, Debye-Ang):
   XX=            -21.0779   YY=            -17.7205   ZZ=            -17.7635
   XY=             -0.0091   XZ=              0.0311   YZ=              0.0119

 Normal termination of Gaussian 09 at Thu Aug 27 00:13:01 2020.
