 Gaussian 09, Revision D.01,
 Gaussian 09:  ES64L-G09RevD.01 24-Apr-2013

 --------------------
 #p B2PLYPD3/Def2QZVP
 --------------------

 ------------
 cyanomethane
 ------------
 Symbolic Z-matrix:
 Charge =  0 Multiplicity = 1

                         Standard orientation:
 ---------------------------------------------------------------------
 Center     Atomic      Atomic             Coordinates (Angstroms)
 Number     Number       Type             X           Y           Z
 ---------------------------------------------------------------------
      1          6           0        1.175794   -0.003212    0.009862
      2          6           0       -0.286775    0.027727   -0.019330
      3          7           0       -1.437716   -0.014944    0.009062
      4          1           0        1.579377   -0.430221    0.932270
      5          1           0        1.568285    1.006888   -0.108161
      6          1           0        1.582239   -0.619143   -0.830732
 ---------------------------------------------------------------------

 SCF Done:  E(RB2PLYPD3) =  -132.534494382     A.U. after   12 cycles
 E2(B2PLYPD3) =    -0.1804803791D+00 E(B2PLYPD3) =    -0.13271497476157D+03

 The electronic state is 1-A.
 Alpha  occ. eigenvalues --  -14.84249 -10.67487 -10.66331  -1.04275  -0.88764
 Alpha  occ. eigenvalues --   -0.59955  -0.53719  -0.52939  -0.44886  -0.39230
 Alpha  occ. eigenvalues --   -0.39123
 Alpha virt. eigenvalues --    0.03662   0.07525   0.07942   0.10148   0.11422
 Alpha virt. eigenvalues --    0.11597   0.15414   0.16229   0.16898   0.20014
 Alpha virt. eigenvalues --    0.20104   0.25347   0.32628   0.34258   0.34774

 Mulliken charges:
               1
     1  C   -0.080867
     2  C    0.000558
     3  N   -0.203444
     4  H    0.096548
     5  H    0.094836
     6  H    0.092370
 Sum of Mulliken charges =   0.00000

 Dipole moment (field-independent basis, Debye):
    X=              4.1237    Y=              0.0215    Z=             -0.0126  Tot=              4.1238
 Quadrupole moment (field-independent basis, Debye-Ang):
   XX=            -20.8765   YY=            -17.7941   ZZ=            -17.8289
   XY=             -0.0978   XZ=              0.0482   YZ=             -0.0227

 Normal termination of Gaussian 09 at Wed Aug 26 12:05:13 2020.
