 Gaussian 09, Revision D.01,
 Gaussian 09:  ES64L-G09RevD.01 24-Apr-2013

 --------------------
 #p B2PLYPD3/Def2QZVP
 --------------------

 ------------
 cyanomethane
 ------------
 Symbolic Z-matrix:
 Charge =  0 Multiplicity = 1

                         Standard orientation:
 ---------------------------------------------------------------------
 Center     Atomic      Atomic             Coordinates (Angstroms)
 Number     Number       Type             X           Y           Z
 ---------------------------------------------------------------------
      1          6           0       -1.204187   -0.013023   -0.011501
      2          6           0        0.270520   -0.044726    0.015969
      3          7           0        1.441610    0.017456   -0.012504
      4          1           0       -1.429708   -0.016518    0.970749
      5          1           0       -1.615069   -0.742203   -0.530673
      6          1           0       -1.444495    0.983023   -0.379358
 ---------------------------------------------------------------------

 SCF Done:  E(RB2PLYPD3) =  -132.518288052     A.U. after   12 cycles
 E2(B2PLYPD3) =    -0.1815366640D+00 E(B2PLYPD3) =    -0.13269982471640D+03

 The electronic state is 1-A.
 Alpha  occ. eigenvalues --  -14.84543 -10.66710 -10.65527  -1.03292  -0.90798
 Alpha  occ. eigenvalues --   -0.60083  -0.56781  -0.54429  -0.44637  -0.38881
 Alpha  occ. eigenvalues --   -0.38463
 Alpha virt. eigenvalues --    0.03840   0.08236   0.08885   0.10168   0.10821
 Alpha virt. eigenvalues --    0.11311   0.15091   0.15302   0.16721   0.20129
 Alpha virt. eigenvalues --    0.20282   0.25005   0.32603   0.34230   0.36239

 Mulliken charges:
               1
     1  C   -0.082298
     2  C    0.000116
     3  N   -0.218073
     4  H    0.100768
     5  H    0.101617
     6  H    0.097870
 Sum of Mulliken charges =   0.00000

 Dipole moment (field-independent basis, Debye):
    X=             -4.1674    Y=              0.0007    Z=              0.0504  Tot=              4.1677
 Quadrupole moment (field-independent basis, Debye-Ang):
   XX=            -21.0768   YY=            -17.6131   ZZ=            -17.7667
   XY=             -0.0099   XZ=              0.0794   YZ=              0.0845

 Normal termination of Gaussian 09 at Wed Aug 26 22:04:11 2020.
