 Gaussian 09, Revision D.01,
 Gaussian 09:  ES64L-G09RevD.01 24-Apr-2013

 --------------------
 #p B2PLYPD3/Def2QZVP
 --------------------

 ------------
 cyanomethane
 ------------
 Symbolic Z-matrix:
 Charge =  0 Multiplicity = 1

                         Standard orientation:
 ---------------------------------------------------------------------
 Center     Atomic      Atomic             Coordinates (Angstroms)
 Number     Number       Type             X           Y           Z
 ---------------------------------------------------------------------
      1          6           0        1.173648    0.001695    0.000193
      2          6           0       -0.277383   -0.004709   -0.013998
      3          7           0       -1.437728    0.006382    0.008475
      4          1           0        1.520116   -0.510648   -0.853401
      5          1           0        1.547513   -0.519473    0.864450
      6          1           0        1.618879    1.003532    0.012451
 ---------------------------------------------------------------------

 SCF Done:  E(RB2PLYPD3) =  -132.533892617     A.U. after   12 cycles
 E2(B2PLYPD3) =    -0.1808676771D+00 E(B2PLYPD3) =    -0.13271476029436D+03

 The electronic state is 1-A.
 Alpha  occ. eigenvalues --  -14.84422 -10.66633 -10.66477  -1.03933  -0.89640
 Alpha  occ. eigenvalues --   -0.60418  -0.54457  -0.53642  -0.44886  -0.38983
 Alpha  occ. eigenvalues --   -0.38932
 Alpha virt. eigenvalues --    0.03799   0.07557   0.08160   0.10155   0.11351
 Alpha virt. eigenvalues --    0.11477   0.15506   0.16084   0.16908   0.20098
 Alpha virt. eigenvalues --    0.20162   0.25480   0.32797   0.34780   0.34986

 Mulliken charges:
               1
     1  C   -0.071614
     2  C    0.000984
     3  N   -0.209023
     4  H    0.094612
     5  H    0.092625
     6  H    0.092416
 Sum of Mulliken charges =   0.00000

 Dipole moment (field-independent basis, Debye):
    X=              4.1488    Y=             -0.0282    Z=             -0.0130  Tot=              4.1489
 Quadrupole moment (field-independent basis, Debye-Ang):
   XX=            -20.8274   YY=            -17.7709   ZZ=            -17.8150
   XY=              0.0598   XZ=              0.0649   YZ=              0.0180

 Normal termination of Gaussian 09 at Wed Aug 26 10:18:26 2020.
