 Gaussian 09, Revision D.01,
 Gaussian 09:  ES64L-G09RevD.01 24-Apr-2013

 --------------------
 #p B2PLYPD3/Def2QZVP
 --------------------

 ------------
 cyanomethane
 ------------
 Symbolic Z-matrix:
 Charge =  0 Multiplicity = 1

                         Standard orientation:
 ---------------------------------------------------------------------
 Center     Atomic      Atomic             Coordinates (Angstroms)
 Number     Number       Type             X           Y           Z
 ---------------------------------------------------------------------
      1          6           0       -1.176384    0.007866   -0.002502
      2          6           0        0.273730   -0.004357    0.003739
      3          7           0        1.433764    0.003502   -0.003550
      4          1           0       -1.507403   -0.303062    0.959619
      5          1           0       -1.539715   -0.720061   -0.714041
      6          1           0       -1.573307    0.977555   -0.228148
 ---------------------------------------------------------------------

 SCF Done:  E(RB2PLYPD3) =  -132.534670652     A.U. after   12 cycles
 E2(B2PLYPD3) =    -0.1807230265D+00 E(B2PLYPD3) =    -0.13271539367854D+03

 The electronic state is 1-A.
 Alpha  occ. eigenvalues --  -14.84302 -10.66548 -10.66347  -1.03897  -0.89792
 Alpha  occ. eigenvalues --   -0.60004  -0.54695  -0.54126  -0.44786  -0.38986
 Alpha  occ. eigenvalues --   -0.38846
 Alpha virt. eigenvalues --    0.03844   0.07878   0.08147   0.10164   0.11317
 Alpha virt. eigenvalues --    0.11470   0.15479   0.15906   0.16686   0.20114
 Alpha virt. eigenvalues --    0.20159   0.25468   0.32860   0.34622   0.35132

 Mulliken charges:
               1
     1  C   -0.077944
     2  C   -0.000901
     3  N   -0.209789
     4  H    0.095625
     5  H    0.095008
     6  H    0.098000
 Sum of Mulliken charges =   0.00000

 Dipole moment (field-independent basis, Debye):
    X=             -4.1418    Y=             -0.0206    Z=              0.0178  Tot=              4.1419
 Quadrupole moment (field-independent basis, Debye-Ang):
   XX=            -20.9740   YY=            -17.6713   ZZ=            -17.8019
   XY=             -0.0152   XZ=              0.0211   YZ=             -0.0145

 Normal termination of Gaussian 09 at Thu Aug 27 00:12:14 2020.
