 Gaussian 09, Revision D.01,
 Gaussian 09:  ES64L-G09RevD.01 24-Apr-2013

 --------------------
 #p B2PLYPD3/Def2QZVP
 --------------------

 ------------
 cyanomethane
 ------------
 Symbolic Z-matrix:
 Charge =  0 Multiplicity = 1

                         Standard orientation:
 ---------------------------------------------------------------------
 Center     Atomic      Atomic             Coordinates (Angstroms)
 Number     Number       Type             X           Y           Z
 ---------------------------------------------------------------------
      1          6           0       -1.176256   -0.000419    0.008533
      2          6           0        0.280376   -0.010409    0.014242
      3          7           0        1.428522    0.003460   -0.011082
      4          1           0       -1.587780   -0.536538   -0.867578
      5          1           0       -1.515228    1.029413   -0.066664
      6          1           0       -1.521375   -0.452125    0.875166
 ---------------------------------------------------------------------

 SCF Done:  E(RB2PLYPD3) =  -132.534157868     A.U. after   11 cycles
 E2(B2PLYPD3) =    -0.1797863715D+00 E(B2PLYPD3) =    -0.13271394423909D+03

 The electronic state is 1-A.
 Alpha  occ. eigenvalues --  -14.83986 -10.66687 -10.66022  -1.04345  -0.89561
 Alpha  occ. eigenvalues --   -0.59748  -0.55189  -0.53318  -0.44739  -0.39323
 Alpha  occ. eigenvalues --   -0.39105
 Alpha virt. eigenvalues --    0.03797   0.07828   0.08588   0.10204   0.11335
 Alpha virt. eigenvalues --    0.11657   0.15450   0.16187   0.16532   0.20023
 Alpha virt. eigenvalues --    0.20119   0.25365   0.32865   0.34359   0.35269

 Mulliken charges:
               1
     1  C   -0.081402
     2  C   -0.003404
     3  N   -0.203653
     4  H    0.092316
     5  H    0.096422
     6  H    0.099722
 Sum of Mulliken charges =   0.00000

 Dipole moment (field-independent basis, Debye):
    X=             -4.1190    Y=             -0.0022    Z=              0.0169  Tot=              4.1190
 Quadrupole moment (field-independent basis, Debye-Ang):
   XX=            -20.9821   YY=            -17.7026   ZZ=            -17.7112
   XY=              0.0108   XZ=              0.1104   YZ=             -0.0581

 Normal termination of Gaussian 09 at Thu Aug 27 01:02:31 2020.
