 Gaussian 09, Revision D.01,
 Gaussian 09:  ES64L-G09RevD.01 24-Apr-2013

 --------------------
 #p B2PLYPD3/Def2QZVP
 --------------------

 ------------
 cyanomethane
 ------------
 Symbolic Z-matrix:
 Charge =  0 Multiplicity = 1

                         Standard orientation:
 ---------------------------------------------------------------------
 Center     Atomic      Atomic             Coordinates (Angstroms)
 Number     Number       Type             X           Y           Z
 ---------------------------------------------------------------------
      1          6           0        1.178071   -0.012952   -0.009556
      2          6           0       -0.287293    0.014204   -0.023617
      3          7           0       -1.434054   -0.006976    0.020078
      4          1           0        1.659572   -0.107464    0.981080
      5          1           0        1.516298    0.955120   -0.361200
      6          1           0        1.517842   -0.806339   -0.561390
 ---------------------------------------------------------------------

 SCF Done:  E(RB2PLYPD3) =  -132.530591668     A.U. after   12 cycles
 E2(B2PLYPD3) =    -0.1798219289D+00 E(B2PLYPD3) =    -0.13271041359709D+03

 The electronic state is 1-A.
 Alpha  occ. eigenvalues --  -14.84087 -10.66592 -10.66161  -1.04428  -0.89488
 Alpha  occ. eigenvalues --   -0.60273  -0.55650  -0.52299  -0.44832  -0.39512
 Alpha  occ. eigenvalues --   -0.39118
 Alpha virt. eigenvalues --    0.03770   0.07611   0.08720   0.10179   0.11215
 Alpha virt. eigenvalues --    0.11743   0.15426   0.16162   0.17107   0.19956
 Alpha virt. eigenvalues --    0.20174   0.25268   0.32797   0.34198   0.35644

 Mulliken charges:
               1
     1  C   -0.073296
     2  C   -0.000455
     3  N   -0.202471
     4  H    0.084546
     5  H    0.093015
     6  H    0.098661
 Sum of Mulliken charges =   0.00000

 Dipole moment (field-independent basis, Debye):
    X=              4.1298    Y=              0.0133    Z=             -0.0169  Tot=              4.1299
 Quadrupole moment (field-independent basis, Debye-Ang):
   XX=            -20.7905   YY=            -17.5907   ZZ=            -17.9475
   XY=             -0.0472   XZ=              0.2627   YZ=              0.0686

 Normal termination of Gaussian 09 at Wed Aug 26 11:29:46 2020.
