 Gaussian 09, Revision D.01,
 Gaussian 09:  ES64L-G09RevD.01 24-Apr-2013

 --------------------
 #p B2PLYPD3/Def2QZVP
 --------------------

 ------------
 cyanomethane
 ------------
 Symbolic Z-matrix:
 Charge =  0 Multiplicity = 1

                         Standard orientation:
 ---------------------------------------------------------------------
 Center     Atomic      Atomic             Coordinates (Angstroms)
 Number     Number       Type             X           Y           Z
 ---------------------------------------------------------------------
      1          6           0       -1.161789   -0.023492   -0.022319
      2          6           0        0.290811    0.072436    0.006206
      3          7           0        1.424636   -0.025223    0.004945
      4          1           0       -1.636139   -0.215725    0.989961
      5          1           0       -1.419910   -0.830815   -0.608446
      6          1           0       -1.690532    0.929442   -0.319457
 ---------------------------------------------------------------------

 SCF Done:  E(RB2PLYPD3) =  -132.528336486     A.U. after   12 cycles
 E2(B2PLYPD3) =    -0.1794494661D+00 E(B2PLYPD3) =    -0.13270778595161D+03

 The electronic state is 1-A.
 Alpha  occ. eigenvalues --  -14.83897 -10.67228 -10.65920  -1.04938  -0.88955
 Alpha  occ. eigenvalues --   -0.60249  -0.55093  -0.51437  -0.44905  -0.39730
 Alpha  occ. eigenvalues --   -0.39233
 Alpha virt. eigenvalues --    0.03657   0.07350   0.08139   0.10224   0.11557
 Alpha virt. eigenvalues --    0.11963   0.15444   0.16735   0.16932   0.19822
 Alpha virt. eigenvalues --    0.20092   0.25777   0.32470   0.33649   0.35848

 Mulliken charges:
               1
     1  C   -0.078005
     2  C    0.001780
     3  N   -0.196363
     4  H    0.081876
     5  H    0.102967
     6  H    0.087745
 Sum of Mulliken charges =   0.00000

 Dipole moment (field-independent basis, Debye):
    X=             -4.0882    Y=              0.0165    Z=              0.0143  Tot=              4.0883
 Quadrupole moment (field-independent basis, Debye-Ang):
   XX=            -20.7219   YY=            -17.6438   ZZ=            -17.9694
   XY=              0.0181   XZ=             -0.1938   YZ=              0.1146

 Normal termination of Gaussian 09 at Wed Aug 26 23:52:43 2020.
