 Gaussian 09, Revision D.01,
 Gaussian 09:  ES64L-G09RevD.01 24-Apr-2013

 --------------------
 #p B2PLYPD3/Def2QZVP
 --------------------

 ------------
 cyanomethane
 ------------
 Symbolic Z-matrix:
 Charge =  0 Multiplicity = 1

                         Standard orientation:
 ---------------------------------------------------------------------
 Center     Atomic      Atomic             Coordinates (Angstroms)
 Number     Number       Type             X           Y           Z
 ---------------------------------------------------------------------
      1          6           0        1.166643   -0.014470    0.030076
      2          6           0       -0.279499    0.029321   -0.039827
      3          7           0       -1.453315   -0.012111    0.009967
      4          1           0        1.673973    0.968042   -0.334393
      5          1           0        1.668445   -0.790999   -0.644282
      6          1           0        1.507928   -0.181368    0.967412
 ---------------------------------------------------------------------

 SCF Done:  E(RB2PLYPD3) =  -132.521286650     A.U. after   12 cycles
 E2(B2PLYPD3) =    -0.1828923312D+00 E(B2PLYPD3) =    -0.13270417898093D+03

 The electronic state is 1-A.
 Alpha  occ. eigenvalues --  -14.85125 -10.67529 -10.67213  -1.03534  -0.89052
 Alpha  occ. eigenvalues --   -0.61356  -0.54337  -0.51301  -0.45202  -0.38864
 Alpha  occ. eigenvalues --   -0.38426
 Alpha virt. eigenvalues --    0.03554   0.06291   0.07227   0.10077   0.11316
 Alpha virt. eigenvalues --    0.11564   0.15489   0.16553   0.17116   0.20090
 Alpha virt. eigenvalues --    0.20230   0.25698   0.31793   0.33401   0.35368

 Mulliken charges:
               1
     1  C   -0.067576
     2  C    0.010661
     3  N   -0.212829
     4  H    0.082013
     5  H    0.086100
     6  H    0.101632
 Sum of Mulliken charges =   0.00000

 Dipole moment (field-independent basis, Debye):
    X=              4.1528    Y=              0.0037    Z=              0.0126  Tot=              4.1528
 Quadrupole moment (field-independent basis, Debye-Ang):
   XX=            -20.6089   YY=            -18.0437   ZZ=            -17.9425
   XY=             -0.0583   XZ=             -0.0350   YZ=             -0.0236

 Normal termination of Gaussian 09 at Wed Aug 26 20:10:12 2020.
