 Gaussian 09, Revision D.01,
 Gaussian 09:  ES64L-G09RevD.01 24-Apr-2013

 --------------------
 #p B2PLYPD3/Def2QZVP
 --------------------

 ------------
 cyanomethane
 ------------
 Symbolic Z-matrix:
 Charge =  0 Multiplicity = 1

                         Standard orientation:
 ---------------------------------------------------------------------
 Center     Atomic      Atomic             Coordinates (Angstroms)
 Number     Number       Type             X           Y           Z
 ---------------------------------------------------------------------
      1          6           0       -1.168785    0.006605    0.005391
      2          6           0        0.288464    0.033341    0.019823
      3          7           0        1.443460   -0.016284   -0.023377
      4          1           0       -1.692681   -0.836373   -0.579773
      5          1           0       -1.705557    0.889869   -0.360742
      6          1           0       -1.424049   -0.179182    0.952870
 ---------------------------------------------------------------------

 SCF Done:  E(RB2PLYPD3) =  -132.520959240     A.U. after   12 cycles
 E2(B2PLYPD3) =    -0.1810338227D+00 E(B2PLYPD3) =    -0.13270199306266D+03

 The electronic state is 1-A.
 Alpha  occ. eigenvalues --  -14.84555 -10.66796 -10.66670  -1.04241  -0.89548
 Alpha  occ. eigenvalues --   -0.61084  -0.55110  -0.51451  -0.45081  -0.39323
 Alpha  occ. eigenvalues --   -0.38943
 Alpha virt. eigenvalues --    0.03483   0.06749   0.08546   0.10147   0.11251
 Alpha virt. eigenvalues --    0.11776   0.15431   0.16129   0.17878   0.19976
 Alpha virt. eigenvalues --    0.20465   0.25449   0.32265   0.33937   0.35622

 Mulliken charges:
               1
     1  C   -0.069590
     2  C    0.007938
     3  N   -0.205720
     4  H    0.080136
     5  H    0.088928
     6  H    0.098308
 Sum of Mulliken charges =   0.00000

 Dipole moment (field-independent basis, Debye):
    X=             -4.1512    Y=              0.0098    Z=              0.0825  Tot=              4.1521
 Quadrupole moment (field-independent basis, Debye-Ang):
   XX=            -20.4728   YY=            -17.9228   ZZ=            -17.9272
   XY=              0.0992   XZ=              0.2359   YZ=             -0.1029

 Normal termination of Gaussian 09 at Wed Aug 26 22:10:36 2020.
