 Gaussian 09, Revision D.01,
 Gaussian 09:  ES64L-G09RevD.01 24-Apr-2013

 --------------------
 #p B2PLYPD3/Def2QZVP
 --------------------

 ------------
 cyanomethane
 ------------
 Symbolic Z-matrix:
 Charge =  0 Multiplicity = 1

                         Standard orientation:
 ---------------------------------------------------------------------
 Center     Atomic      Atomic             Coordinates (Angstroms)
 Number     Number       Type             X           Y           Z
 ---------------------------------------------------------------------
      1          6           0       -1.173674   -0.007037    0.005465
      2          6           0        0.269708    0.011529   -0.015502
      3          7           0        1.433037   -0.005823    0.007251
      4          1           0       -1.543682   -0.788998   -0.659152
      5          1           0       -1.530111    0.975283   -0.351250
      6          1           0       -1.533675   -0.172477    1.019864
 ---------------------------------------------------------------------

 SCF Done:  E(RB2PLYPD3) =  -132.534333198     A.U. after   11 cycles
 E2(B2PLYPD3) =    -0.1813124290D+00 E(B2PLYPD3) =    -0.13271564562732D+03

 The electronic state is 1-A.
 Alpha  occ. eigenvalues --  -14.84373 -10.67194 -10.66404  -1.03752  -0.89430
 Alpha  occ. eigenvalues --   -0.59658  -0.54254  -0.53863  -0.44779  -0.38776
 Alpha  occ. eigenvalues --   -0.38682
 Alpha virt. eigenvalues --    0.03732   0.07635   0.07721   0.10124   0.11397
 Alpha virt. eigenvalues --    0.11458   0.15441   0.15912   0.16398   0.20145
 Alpha virt. eigenvalues --    0.20152   0.25587   0.32712   0.34248   0.34686

 Mulliken charges:
               1
     1  C   -0.088932
     2  C    0.000189
     3  N   -0.211201
     4  H    0.100507
     5  H    0.098209
     6  H    0.101229
 Sum of Mulliken charges =   0.00000

 Dipole moment (field-independent basis, Debye):
    X=             -4.1287    Y=              0.0102    Z=             -0.0090  Tot=              4.1287
 Quadrupole moment (field-independent basis, Debye-Ang):
   XX=            -21.1239   YY=            -17.7548   ZZ=            -17.7326
   XY=              0.0339   XZ=             -0.0347   YZ=              0.0113

 Normal termination of Gaussian 09 at Thu Aug 27 00:12:46 2020.
