 Gaussian 09, Revision D.01,
 Gaussian 09:  ES64L-G09RevD.01 24-Apr-2013

 --------------------
 #p B2PLYPD3/Def2QZVP
 --------------------

 ------------
 cyanomethane
 ------------
 Symbolic Z-matrix:
 Charge =  0 Multiplicity = 1

                         Standard orientation:
 ---------------------------------------------------------------------
 Center     Atomic      Atomic             Coordinates (Angstroms)
 Number     Number       Type             X           Y           Z
 ---------------------------------------------------------------------
      1          6           0       -1.170671    0.007962   -0.001737
      2          6           0        0.270041   -0.021200   -0.004206
      3          7           0        1.434220    0.009273    0.000678
      4          1           0       -1.523585   -0.146755    0.991725
      5          1           0       -1.570321   -0.781279   -0.609492
      6          1           0       -1.541853    0.942548   -0.351323
 ---------------------------------------------------------------------

 SCF Done:  E(RB2PLYPD3) =  -132.534022673     A.U. after   11 cycles
 E2(B2PLYPD3) =    -0.1810763448D+00 E(B2PLYPD3) =    -0.13271509901748D+03

 The electronic state is 1-A.
 Alpha  occ. eigenvalues --  -14.84455 -10.66481 -10.66308  -1.03767  -0.90018
 Alpha  occ. eigenvalues --   -0.60464  -0.54642  -0.54265  -0.44852  -0.38841
 Alpha  occ. eigenvalues --   -0.38763
 Alpha virt. eigenvalues --    0.03860   0.07809   0.07943   0.10138   0.11353
 Alpha virt. eigenvalues --    0.11422   0.15563   0.16122   0.16584   0.20138
 Alpha virt. eigenvalues --    0.20170   0.25666   0.32939   0.34805   0.35100

 Mulliken charges:
               1
     1  C   -0.071122
     2  C    0.000738
     3  N   -0.211808
     4  H    0.093545
     5  H    0.092768
     6  H    0.095878
 Sum of Mulliken charges =   0.00000

 Dipole moment (field-independent basis, Debye):
    X=             -4.1495    Y=             -0.0152    Z=              0.0102  Tot=              4.1496
 Quadrupole moment (field-independent basis, Debye-Ang):
   XX=            -20.8955   YY=            -17.7227   ZZ=            -17.7943
   XY=             -0.0241   XZ=             -0.0009   YZ=             -0.0114

 Normal termination of Gaussian 09 at Wed Aug 26 09:48:21 2020.
