 Gaussian 09, Revision D.01,
 Gaussian 09:  ES64L-G09RevD.01 24-Apr-2013

 --------------------
 #p B2PLYPD3/Def2QZVP
 --------------------

 ------------
 cyanomethane
 ------------
 Symbolic Z-matrix:
 Charge =  0 Multiplicity = 1

                         Standard orientation:
 ---------------------------------------------------------------------
 Center     Atomic      Atomic             Coordinates (Angstroms)
 Number     Number       Type             X           Y           Z
 ---------------------------------------------------------------------
      1          6           0        1.168934    0.021702    0.008090
      2          6           0       -0.273865   -0.015381   -0.020832
      3          7           0       -1.432677    0.002524    0.004893
      4          1           0        1.521522    1.012175   -0.129970
      5          1           0        1.635773   -0.663933   -0.761323
      6          1           0        1.501034   -0.403837    0.933490
 ---------------------------------------------------------------------

 SCF Done:  E(RB2PLYPD3) =  -132.532430125     A.U. after   12 cycles
 E2(B2PLYPD3) =    -0.1809198707D+00 E(B2PLYPD3) =    -0.13271334999597D+03

 The electronic state is 1-A.
 Alpha  occ. eigenvalues --  -14.84328 -10.66933 -10.66355  -1.03984  -0.89553
 Alpha  occ. eigenvalues --   -0.60151  -0.55356  -0.52605  -0.44845  -0.39073
 Alpha  occ. eigenvalues --   -0.38695
 Alpha virt. eigenvalues --    0.03756   0.07356   0.08065   0.10154   0.11263
 Alpha virt. eigenvalues --    0.11729   0.15449   0.16068   0.16775   0.20048
 Alpha virt. eigenvalues --    0.20183   0.25653   0.32507   0.34232   0.35322

 Mulliken charges:
               1
     1  C   -0.078707
     2  C    0.000899
     3  N   -0.208778
     4  H    0.102608
     5  H    0.087746
     6  H    0.096232
 Sum of Mulliken charges =   0.00000

 Dipole moment (field-independent basis, Debye):
    X=              4.1339    Y=             -0.0241    Z=              0.0173  Tot=              4.1340
 Quadrupole moment (field-independent basis, Debye-Ang):
   XX=            -20.9399   YY=            -17.6136   ZZ=            -17.9361
   XY=             -0.0995   XZ=             -0.0070   YZ=             -0.0724

 Normal termination of Gaussian 09 at Wed Aug 26 14:40:07 2020.
