 Gaussian 09, Revision D.01,
 Gaussian 09:  ES64L-G09RevD.01 24-Apr-2013

 --------------------
 #p B2PLYPD3/Def2QZVP
 --------------------

 ------------
 cyanomethane
 ------------
 Symbolic Z-matrix:
 Charge =  0 Multiplicity = 1

                         Standard orientation:
 ---------------------------------------------------------------------
 Center     Atomic      Atomic             Coordinates (Angstroms)
 Number     Number       Type             X           Y           Z
 ---------------------------------------------------------------------
      1          6           0       -1.170784    0.013142   -0.042053
      2          6           0        0.263197   -0.019109    0.013883
      3          7           0        1.421361    0.006935    0.000431
      4          1           0       -1.554015   -0.044657    0.986962
      5          1           0       -1.492589   -0.869779   -0.445510
      6          1           0       -1.457404    0.901692   -0.375443
 ---------------------------------------------------------------------

 SCF Done:  E(RB2PLYPD3) =  -132.521102711     A.U. after   11 cycles
 E2(B2PLYPD3) =    -0.1804033573D+00 E(B2PLYPD3) =    -0.13270150606827D+03

 The electronic state is 1-A.
 Alpha  occ. eigenvalues --  -14.84089 -10.66068 -10.65372  -1.03954  -0.91098
 Alpha  occ. eigenvalues --   -0.60159  -0.58530  -0.52830  -0.44666  -0.39185
 Alpha  occ. eigenvalues --   -0.38462
 Alpha virt. eigenvalues --    0.03938   0.07939   0.08845   0.10148   0.10960
 Alpha virt. eigenvalues --    0.11886   0.15164   0.15940   0.16893   0.20022
 Alpha virt. eigenvalues --    0.20287   0.25759   0.32670   0.34022   0.36773

 Mulliken charges:
               1
     1  C   -0.069695
     2  C   -0.000330
     3  N   -0.212563
     4  H    0.078409
     5  H    0.100265
     6  H    0.103915
 Sum of Mulliken charges =   0.00000

 Dipole moment (field-independent basis, Debye):
    X=             -4.1408    Y=             -0.0215    Z=              0.0628  Tot=              4.1413
 Quadrupole moment (field-independent basis, Debye-Ang):
   XX=            -21.0187   YY=            -17.3220   ZZ=            -17.9681
   XY=              0.0230   XZ=             -0.2191   YZ=             -0.0130

 Normal termination of Gaussian 09 at Wed Aug 26 21:01:42 2020.
