 Gaussian 09, Revision D.01,
 Gaussian 09:  ES64L-G09RevD.01 24-Apr-2013

 --------------------
 #p B2PLYPD3/Def2QZVP
 --------------------

 ------------
 cyanomethane
 ------------
 Symbolic Z-matrix:
 Charge =  0 Multiplicity = 1

                         Standard orientation:
 ---------------------------------------------------------------------
 Center     Atomic      Atomic             Coordinates (Angstroms)
 Number     Number       Type             X           Y           Z
 ---------------------------------------------------------------------
      1          6           0        1.174052   -0.029509   -0.003090
      2          6           0       -0.285151   -0.041026   -0.038897
      3          7           0       -1.450509    0.037061    0.025591
      4          1           0        1.440170   -0.834220   -0.536744
      5          1           0        1.661935   -0.013934    1.054060
      6          1           0        1.718049    1.011936   -0.444530
 ---------------------------------------------------------------------

 SCF Done:  E(RB2PLYPD3) =  -132.505565512     A.U. after   12 cycles
 E2(B2PLYPD3) =    -0.1831021537D+00 E(B2PLYPD3) =    -0.13268866766572D+03

 The electronic state is 1-A.
 Alpha  occ. eigenvalues --  -14.84954 -10.68521 -10.67010  -1.03730  -0.88609
 Alpha  occ. eigenvalues --   -0.59792  -0.55487  -0.49529  -0.45111  -0.39050
 Alpha  occ. eigenvalues --   -0.38248
 Alpha virt. eigenvalues --    0.02792   0.05289   0.08357   0.09918   0.10853
 Alpha virt. eigenvalues --    0.12014   0.15204   0.16271   0.17171   0.19832
 Alpha virt. eigenvalues --    0.20456   0.25431   0.30646   0.32616   0.34797

 Mulliken charges:
               1
     1  C   -0.090888
     2  C    0.006327
     3  N   -0.208368
     4  H    0.112802
     5  H    0.094338
     6  H    0.085789
 Sum of Mulliken charges =   0.00000

 Dipole moment (field-independent basis, Debye):
    X=              4.1120    Y=             -0.0715    Z=              0.0005  Tot=              4.1127
 Quadrupole moment (field-independent basis, Debye-Ang):
   XX=            -20.8382   YY=            -17.8697   ZZ=            -18.0745
   XY=              0.3816   XZ=              0.3046   YZ=              0.2114

 Normal termination of Gaussian 09 at Wed Aug 26 22:12:16 2020.
