 Gaussian 09, Revision D.01,
 Gaussian 09:  ES64L-G09RevD.01 24-Apr-2013

 --------------------
 #p B2PLYPD3/Def2QZVP
 --------------------

 ------------
 cyanomethane
 ------------
 Symbolic Z-matrix:
 Charge =  0 Multiplicity = 1

                         Standard orientation:
 ---------------------------------------------------------------------
 Center     Atomic      Atomic             Coordinates (Angstroms)
 Number     Number       Type             X           Y           Z
 ---------------------------------------------------------------------
      1          6           0       -1.185093   -0.003019    0.004879
      2          6           0        0.274490    0.012855   -0.001306
      3          7           0        1.436719   -0.008965    0.001634
      4          1           0       -1.494407    1.005722   -0.090261
      5          1           0       -1.564438   -0.430961    0.884150
      6          1           0       -1.534567   -0.571024   -0.826765
 ---------------------------------------------------------------------

 SCF Done:  E(RB2PLYPD3) =  -132.533246040     A.U. after   12 cycles
 E2(B2PLYPD3) =    -0.1807568310D+00 E(B2PLYPD3) =    -0.13271400287108D+03

 The electronic state is 1-A.
 Alpha  occ. eigenvalues --  -14.84347 -10.66423 -10.66226  -1.03767  -0.89997
 Alpha  occ. eigenvalues --   -0.59888  -0.55046  -0.54529  -0.44747  -0.38951
 Alpha  occ. eigenvalues --   -0.38876
 Alpha virt. eigenvalues --    0.03897   0.08063   0.08351   0.10176   0.11229
 Alpha virt. eigenvalues --    0.11331   0.15400   0.15915   0.16510   0.20125
 Alpha virt. eigenvalues --    0.20166   0.25284   0.32819   0.34881   0.35251

 Mulliken charges:
               1
     1  C   -0.076343
     2  C   -0.001812
     3  N   -0.211338
     4  H    0.097671
     5  H    0.096512
     6  H    0.095311
 Sum of Mulliken charges =   0.00000

 Dipole moment (field-independent basis, Debye):
    X=             -4.1487    Y=              0.0099    Z=             -0.0058  Tot=              4.1487
 Quadrupole moment (field-independent basis, Debye-Ang):
   XX=            -20.9929   YY=            -17.6812   ZZ=            -17.7572
   XY=              0.1004   XZ=             -0.0249   YZ=             -0.0145

 Normal termination of Gaussian 09 at Thu Aug 27 00:12:25 2020.
