 Gaussian 09, Revision D.01,
 Gaussian 09:  ES64L-G09RevD.01 24-Apr-2013

 --------------------
 #p B2PLYPD3/Def2QZVP
 --------------------

 ------------
 cyanomethane
 ------------
 Symbolic Z-matrix:
 Charge =  0 Multiplicity = 1

                         Standard orientation:
 ---------------------------------------------------------------------
 Center     Atomic      Atomic             Coordinates (Angstroms)
 Number     Number       Type             X           Y           Z
 ---------------------------------------------------------------------
      1          6           0        1.186955   -0.010260   -0.001953
      2          6           0       -0.283712   -0.023136    0.010247
      3          7           0       -1.435719    0.012843   -0.007293
      4          1           0        1.545020    1.002818   -0.211517
      5          1           0        1.569187   -0.633977   -0.716324
      6          1           0        1.516366   -0.258372    0.929129
 ---------------------------------------------------------------------

 SCF Done:  E(RB2PLYPD3) =  -132.529865005     A.U. after   11 cycles
 E2(B2PLYPD3) =    -0.1797977050D+00 E(B2PLYPD3) =    -0.13270966270969D+03

 The electronic state is 1-A.
 Alpha  occ. eigenvalues --  -14.84145 -10.66227 -10.65862  -1.04167  -0.90095
 Alpha  occ. eigenvalues --   -0.60081  -0.55922  -0.53766  -0.44763  -0.39391
 Alpha  occ. eigenvalues --   -0.39129
 Alpha virt. eigenvalues --    0.03881   0.08205   0.08876   0.10234   0.11132
 Alpha virt. eigenvalues --    0.11483   0.15428   0.16153   0.16681   0.20038
 Alpha virt. eigenvalues --    0.20130   0.25105   0.32866   0.34573   0.35984

 Mulliken charges:
               1
     1  C   -0.068582
     2  C   -0.002493
     3  N   -0.206084
     4  H    0.088427
     5  H    0.094305
     6  H    0.094426
 Sum of Mulliken charges =   0.00000

 Dipole moment (field-independent basis, Debye):
    X=              4.1455    Y=             -0.0157    Z=              0.0200  Tot=              4.1456
 Quadrupole moment (field-independent basis, Debye-Ang):
   XX=            -20.8364   YY=            -17.7378   ZZ=            -17.6852
   XY=              0.0763   XZ=             -0.0553   YZ=              0.0322

 Normal termination of Gaussian 09 at Wed Aug 26 15:52:54 2020.
