 Gaussian 09, Revision D.01,
 Gaussian 09:  ES64L-G09RevD.01 24-Apr-2013

 --------------------
 #p B2PLYPD3/Def2QZVP
 --------------------

 ------------
 cyanomethane
 ------------
 Symbolic Z-matrix:
 Charge =  0 Multiplicity = 1

                         Standard orientation:
 ---------------------------------------------------------------------
 Center     Atomic      Atomic             Coordinates (Angstroms)
 Number     Number       Type             X           Y           Z
 ---------------------------------------------------------------------
      1          6           0        1.169894   -0.002516    0.000132
      2          6           0       -0.274255    0.024904   -0.005184
      3          7           0       -1.432326   -0.010856    0.002160
      4          1           0        1.577927    0.979980   -0.238869
      5          1           0        1.538114   -0.734927   -0.723254
      6          1           0        1.536408   -0.303393    0.977317
 ---------------------------------------------------------------------

 SCF Done:  E(RB2PLYPD3) =  -132.535227618     A.U. after   11 cycles
 E2(B2PLYPD3) =    -0.1808323077D+00 E(B2PLYPD3) =    -0.13271605992581D+03

 The electronic state is 1-A.
 Alpha  occ. eigenvalues --  -14.84305 -10.67008 -10.66329  -1.03993  -0.89430
 Alpha  occ. eigenvalues --   -0.60057  -0.54097  -0.53752  -0.44834  -0.38944
 Alpha  occ. eigenvalues --   -0.38873
 Alpha virt. eigenvalues --    0.03756   0.07695   0.07801   0.10143   0.11407
 Alpha virt. eigenvalues --    0.11564   0.15505   0.16321   0.16396   0.20077
 Alpha virt. eigenvalues --    0.20149   0.25608   0.32826   0.34502   0.34748

 Mulliken charges:
               1
     1  C   -0.081025
     2  C    0.000174
     3  N   -0.208194
     4  H    0.096264
     5  H    0.096591
     6  H    0.096190
 Sum of Mulliken charges =   0.00000

 Dipole moment (field-independent basis, Debye):
    X=              4.1295    Y=              0.0041    Z=              0.0044  Tot=              4.1295
 Quadrupole moment (field-independent basis, Debye-Ang):
   XX=            -20.9731   YY=            -17.7197   ZZ=            -17.8061
   XY=             -0.0523   XZ=              0.0204   YZ=             -0.0031

 Normal termination of Gaussian 09 at Wed Aug 26 10:14:09 2020.
