 Gaussian 09, Revision D.01,
 Gaussian 09:  ES64L-G09RevD.01 24-Apr-2013

 --------------------
 #p B2PLYPD3/Def2QZVP
 --------------------

 ------------
 cyanomethane
 ------------
 Symbolic Z-matrix:
 Charge =  0 Multiplicity = 1

                         Standard orientation:
 ---------------------------------------------------------------------
 Center     Atomic      Atomic             Coordinates (Angstroms)
 Number     Number       Type             X           Y           Z
 ---------------------------------------------------------------------
      1          6           0        1.188813   -0.005721    0.010823
      2          6           0       -0.287351    0.014955   -0.036662
      3          7           0       -1.431857   -0.005588    0.022009
      4          1           0        1.584760   -0.165168    1.026017
      5          1           0        1.540073    0.998309   -0.377065
      6          1           0        1.489390   -0.849431   -0.647981
 ---------------------------------------------------------------------

 SCF Done:  E(RB2PLYPD3) =  -132.532196381     A.U. after   12 cycles
 E2(B2PLYPD3) =    -0.1801709246D+00 E(B2PLYPD3) =    -0.13271236730563D+03

 The electronic state is 1-A.
 Alpha  occ. eigenvalues --  -14.83906 -10.68101 -10.66005  -1.04367  -0.88350
 Alpha  occ. eigenvalues --   -0.58671  -0.53766  -0.53042  -0.44653  -0.39228
 Alpha  occ. eigenvalues --   -0.39202
 Alpha virt. eigenvalues --    0.03576   0.07633   0.08179   0.10154   0.11490
 Alpha virt. eigenvalues --    0.11551   0.15195   0.15644   0.16662   0.20025
 Alpha virt. eigenvalues --    0.20066   0.25099   0.32355   0.33975   0.34265

 Mulliken charges:
               1
     1  C   -0.105157
     2  C   -0.002612
     3  N   -0.201360
     4  H    0.103311
     5  H    0.101585
     6  H    0.104234
 Sum of Mulliken charges =   0.00000

 Dipole moment (field-independent basis, Debye):
    X=              4.0897    Y=             -0.0003    Z=             -0.0208  Tot=              4.0898
 Quadrupole moment (field-independent basis, Debye-Ang):
   XX=            -21.2640   YY=            -17.6367   ZZ=            -17.7847
   XY=             -0.0203   XZ=              0.2215   YZ=              0.0171

 Normal termination of Gaussian 09 at Wed Aug 26 13:23:04 2020.
