 Gaussian 09, Revision D.01,
 Gaussian 09:  ES64L-G09RevD.01 24-Apr-2013

 --------------------
 #p B2PLYPD3/Def2QZVP
 --------------------

 ------------
 cyanomethane
 ------------
 Symbolic Z-matrix:
 Charge =  0 Multiplicity = 1

                         Standard orientation:
 ---------------------------------------------------------------------
 Center     Atomic      Atomic             Coordinates (Angstroms)
 Number     Number       Type             X           Y           Z
 ---------------------------------------------------------------------
      1          6           0       -1.176537   -0.002595   -0.005132
      2          6           0        0.273276    0.013514    0.002794
      3          7           0        1.432278   -0.008822   -0.002389
      4          1           0       -1.517624    0.977073   -0.368373
      5          1           0       -1.520211   -0.158988    1.037161
      6          1           0       -1.568548   -0.821847   -0.638038
 ---------------------------------------------------------------------

 SCF Done:  E(RB2PLYPD3) =  -132.534068604     A.U. after   12 cycles
 E2(B2PLYPD3) =    -0.1810622476D+00 E(B2PLYPD3) =    -0.13271513085203D+03

 The electronic state is 1-A.
 Alpha  occ. eigenvalues --  -14.84242 -10.67557 -10.66292  -1.03901  -0.89105
 Alpha  occ. eigenvalues --   -0.59288  -0.54100  -0.53576  -0.44739  -0.38870
 Alpha  occ. eigenvalues --   -0.38783
 Alpha virt. eigenvalues --    0.03672   0.07534   0.07854   0.10142   0.11414
 Alpha virt. eigenvalues --    0.11530   0.15363   0.15826   0.16437   0.20105
 Alpha virt. eigenvalues --    0.20148   0.25456   0.32625   0.34097   0.34483

 Mulliken charges:
               1
     1  C   -0.095424
     2  C   -0.000486
     3  N   -0.208844
     4  H    0.102507
     5  H    0.100352
     6  H    0.101895
 Sum of Mulliken charges =   0.00000

 Dipole moment (field-independent basis, Debye):
    X=             -4.1177    Y=              0.0123    Z=              0.0115  Tot=              4.1177
 Quadrupole moment (field-independent basis, Debye-Ang):
   XX=            -21.1891   YY=            -17.6950   ZZ=            -17.7737
   XY=              0.0845   XZ=              0.0181   YZ=             -0.0031

 Normal termination of Gaussian 09 at Wed Aug 26 10:20:07 2020.
