 Gaussian 09, Revision D.01,
 Gaussian 09:  ES64L-G09RevD.01 24-Apr-2013

 --------------------
 #p B2PLYPD3/Def2QZVP
 --------------------

 ------------
 cyanomethane
 ------------
 Symbolic Z-matrix:
 Charge =  0 Multiplicity = 1

                         Standard orientation:
 ---------------------------------------------------------------------
 Center     Atomic      Atomic             Coordinates (Angstroms)
 Number     Number       Type             X           Y           Z
 ---------------------------------------------------------------------
      1          6           0        1.183433   -0.001986    0.001298
      2          6           0       -0.277722   -0.003418   -0.017009
      3          7           0       -1.438023    0.003558    0.007867
      4          1           0        1.568672    0.932388   -0.382547
      5          1           0        1.534276   -0.809121   -0.584062
      6          1           0        1.528949   -0.115752    1.005810
 ---------------------------------------------------------------------

 SCF Done:  E(RB2PLYPD3) =  -132.534624282     A.U. after   11 cycles
 E2(B2PLYPD3) =    -0.1807187852D+00 E(B2PLYPD3) =    -0.13271534306710D+03

 The electronic state is 1-A.
 Alpha  occ. eigenvalues --  -14.84345 -10.66563 -10.66416  -1.03857  -0.89665
 Alpha  occ. eigenvalues --   -0.59854  -0.54767  -0.54098  -0.44784  -0.39006
 Alpha  occ. eigenvalues --   -0.38939
 Alpha virt. eigenvalues --    0.03843   0.07934   0.08233   0.10190   0.11245
 Alpha virt. eigenvalues --    0.11391   0.15403   0.16181   0.16400   0.20097
 Alpha virt. eigenvalues --    0.20146   0.25270   0.32749   0.34816   0.35092

 Mulliken charges:
               1
     1  C   -0.076923
     2  C   -0.001542
     3  N   -0.209651
     4  H    0.095025
     5  H    0.097235
     6  H    0.095856
 Sum of Mulliken charges =   0.00000

 Dipole moment (field-independent basis, Debye):
    X=              4.1463    Y=             -0.0085    Z=             -0.0025  Tot=              4.1463
 Quadrupole moment (field-independent basis, Debye-Ang):
   XX=            -20.9604   YY=            -17.7200   ZZ=            -17.7706
   XY=              0.0389   XZ=              0.0468   YZ=              0.0191

 Normal termination of Gaussian 09 at Thu Aug 27 00:06:12 2020.
