 Gaussian 09, Revision D.01,
 Gaussian 09:  ES64L-G09RevD.01 24-Apr-2013

 --------------------
 #p B2PLYPD3/Def2QZVP
 --------------------

 ------------
 cyanomethane
 ------------
 Symbolic Z-matrix:
 Charge =  0 Multiplicity = 1

                         Standard orientation:
 ---------------------------------------------------------------------
 Center     Atomic      Atomic             Coordinates (Angstroms)
 Number     Number       Type             X           Y           Z
 ---------------------------------------------------------------------
      1          6           0        1.178283   -0.031587    0.011039
      2          6           0       -0.309153    0.040283   -0.035267
      3          7           0       -1.438664   -0.007191    0.017974
      4          1           0        1.495303   -0.824407   -0.570639
      5          1           0        1.606283   -0.103543    0.976537
      6          1           0        1.754286    0.926117   -0.386349
 ---------------------------------------------------------------------

 SCF Done:  E(RB2PLYPD3) =  -132.524106848     A.U. after   12 cycles
 E2(B2PLYPD3) =    -0.1789263545D+00 E(B2PLYPD3) =    -0.13270303320246D+03

 The electronic state is 1-A.
 Alpha  occ. eigenvalues --  -14.83879 -10.67360 -10.66047  -1.05203  -0.88518
 Alpha  occ. eigenvalues --   -0.60343  -0.54879  -0.50881  -0.44959  -0.40146
 Alpha  occ. eigenvalues --   -0.39608
 Alpha virt. eigenvalues --    0.03619   0.07246   0.08748   0.10272   0.11363
 Alpha virt. eigenvalues --    0.11933   0.15270   0.16870   0.17363   0.19842
 Alpha virt. eigenvalues --    0.20050   0.24967   0.31579   0.34339   0.35775

 Mulliken charges:
               1
     1  C   -0.071525
     2  C    0.001959
     3  N   -0.191700
     4  H    0.096422
     5  H    0.090416
     6  H    0.074428
 Sum of Mulliken charges =   0.00000

 Dipole moment (field-independent basis, Debye):
    X=              4.1052    Y=             -0.0209    Z=              0.0015  Tot=              4.1052
 Quadrupole moment (field-independent basis, Debye-Ang):
   XX=            -20.5444   YY=            -17.8478   ZZ=            -17.8871
   XY=              0.0663   XZ=              0.1906   YZ=              0.1454

 Normal termination of Gaussian 09 at Wed Aug 26 23:54:23 2020.
