 Gaussian 09, Revision D.01,
 Gaussian 09:  ES64L-G09RevD.01 24-Apr-2013

 --------------------
 #p B2PLYPD3/Def2QZVP
 --------------------

 ------------
 cyanomethane
 ------------
 Symbolic Z-matrix:
 Charge =  0 Multiplicity = 1

                         Standard orientation:
 ---------------------------------------------------------------------
 Center     Atomic      Atomic             Coordinates (Angstroms)
 Number     Number       Type             X           Y           Z
 ---------------------------------------------------------------------
      1          6           0        1.211859    0.027732   -0.000668
      2          6           0       -0.298166   -0.089385   -0.005174
      3          7           0       -1.440023    0.041747    0.001183
      4          1           0        1.494876    1.037052   -0.054982
      5          1           0        1.573854   -0.535654   -0.791904
      6          1           0        1.529272   -0.423708    0.873659
 ---------------------------------------------------------------------

 SCF Done:  E(RB2PLYPD3) =  -132.528270723     A.U. after   12 cycles
 E2(B2PLYPD3) =    -0.1796454733D+00 E(B2PLYPD3) =    -0.13270791619621D+03

 The electronic state is 1-A.
 Alpha  occ. eigenvalues --  -14.84063 -10.66174 -10.66132  -1.04205  -0.89509
 Alpha  occ. eigenvalues --   -0.58658  -0.55447  -0.54639  -0.44639  -0.39509
 Alpha  occ. eigenvalues --   -0.39421
 Alpha virt. eigenvalues --    0.03698   0.08378   0.09283   0.10194   0.11082
 Alpha virt. eigenvalues --    0.11159   0.15078   0.15559   0.16850   0.19940
 Alpha virt. eigenvalues --    0.20081   0.24945   0.32665   0.35292   0.35443

 Mulliken charges:
               1
     1  C   -0.078471
     2  C   -0.005926
     3  N   -0.204021
     4  H    0.102132
     5  H    0.092659
     6  H    0.093628
 Sum of Mulliken charges =   0.00000

 Dipole moment (field-independent basis, Debye):
    X=              4.1314    Y=             -0.0798    Z=              0.0061  Tot=              4.1322
 Quadrupole moment (field-independent basis, Debye-Ang):
   XX=            -20.9402   YY=            -17.5542   ZZ=            -17.8136
   XY=              0.1225   XZ=             -0.0029   YZ=             -0.0073

 Normal termination of Gaussian 09 at Wed Aug 26 16:35:15 2020.
