 Gaussian 09, Revision D.01,
 Gaussian 09:  ES64L-G09RevD.01 24-Apr-2013

 --------------------
 #p B2PLYPD3/Def2QZVP
 --------------------

 ------------
 cyanomethane
 ------------
 Symbolic Z-matrix:
 Charge =  0 Multiplicity = 1

                         Standard orientation:
 ---------------------------------------------------------------------
 Center     Atomic      Atomic             Coordinates (Angstroms)
 Number     Number       Type             X           Y           Z
 ---------------------------------------------------------------------
      1          6           0       -1.173657   -0.010799   -0.030778
      2          6           0        0.274096    0.028537    0.004941
      3          7           0        1.428222   -0.008312    0.005375
      4          1           0       -1.599904   -0.089430    0.951069
      5          1           0       -1.432149   -0.870365   -0.472784
      6          1           0       -1.568140    0.911554   -0.360887
 ---------------------------------------------------------------------

 SCF Done:  E(RB2PLYPD3) =  -132.525300510     A.U. after   11 cycles
 E2(B2PLYPD3) =    -0.1801223966D+00 E(B2PLYPD3) =    -0.13270542290702D+03

 The electronic state is 1-A.
 Alpha  occ. eigenvalues --  -14.84127 -10.66151 -10.65615  -1.04126  -0.90600
 Alpha  occ. eigenvalues --   -0.60498  -0.57470  -0.52559  -0.44754  -0.39335
 Alpha  occ. eigenvalues --   -0.38765
 Alpha virt. eigenvalues --    0.03931   0.07911   0.08714   0.10230   0.11045
 Alpha virt. eigenvalues --    0.11826   0.15278   0.16271   0.16889   0.19968
 Alpha virt. eigenvalues --    0.20235   0.25565   0.32961   0.34115   0.36471

 Mulliken charges:
               1
     1  C   -0.064031
     2  C    0.000274
     3  N   -0.208666
     4  H    0.076757
     5  H    0.100237
     6  H    0.095429
 Sum of Mulliken charges =   0.00000

 Dipole moment (field-independent basis, Debye):
    X=             -4.1513    Y=              0.0028    Z=              0.0604  Tot=              4.1518
 Quadrupole moment (field-independent basis, Debye-Ang):
   XX=            -20.8250   YY=            -17.3749   ZZ=            -18.0448
   XY=             -0.0340   XZ=             -0.2792   YZ=              0.0555

 Normal termination of Gaussian 09 at Wed Aug 26 23:46:20 2020.
