 Gaussian 09, Revision D.01,
 Gaussian 09:  ES64L-G09RevD.01 24-Apr-2013

 --------------------
 #p B2PLYPD3/Def2QZVP
 --------------------

 ------------
 cyanomethane
 ------------
 Symbolic Z-matrix:
 Charge =  0 Multiplicity = 1

                         Standard orientation:
 ---------------------------------------------------------------------
 Center     Atomic      Atomic             Coordinates (Angstroms)
 Number     Number       Type             X           Y           Z
 ---------------------------------------------------------------------
      1          6           0        1.180044   -0.012354    0.003717
      2          6           0       -0.283465    0.036254   -0.019315
      3          7           0       -1.422183   -0.013718    0.008506
      4          1           0        1.493903   -0.839331   -0.637163
      5          1           0        1.500337   -0.171366    1.036485
      6          1           0        1.581563    0.963319   -0.365278
 ---------------------------------------------------------------------

 SCF Done:  E(RB2PLYPD3) =  -132.535077532     A.U. after   11 cycles
 E2(B2PLYPD3) =    -0.1793837932D+00 E(B2PLYPD3) =    -0.13271446132475D+03

 The electronic state is 1-A.
 Alpha  occ. eigenvalues --  -14.83667 -10.67514 -10.65705  -1.04612  -0.88871
 Alpha  occ. eigenvalues --   -0.58701  -0.54254  -0.53591  -0.44609  -0.39372
 Alpha  occ. eigenvalues --   -0.39303
 Alpha virt. eigenvalues --    0.03699   0.08080   0.08243   0.10198   0.11593
 Alpha virt. eigenvalues --    0.11648   0.15300   0.16034   0.16281   0.19996
 Alpha virt. eigenvalues --    0.20056   0.25313   0.32640   0.34354   0.34567

 Mulliken charges:
               1
     1  C   -0.100673
     2  C   -0.005504
     3  N   -0.199077
     4  H    0.104191
     5  H    0.102746
     6  H    0.098316
 Sum of Mulliken charges =   0.00000

 Dipole moment (field-independent basis, Debye):
    X=              4.0804    Y=              0.0139    Z=             -0.0039  Tot=              4.0804
 Quadrupole moment (field-independent basis, Debye-Ang):
   XX=            -21.2365   YY=            -17.6354   ZZ=            -17.6731
   XY=             -0.0216   XZ=              0.0490   YZ=              0.0287

 Normal termination of Gaussian 09 at Wed Aug 26 13:34:19 2020.
