 Gaussian 09, Revision D.01,
 Gaussian 09:  ES64L-G09RevD.01 24-Apr-2013

 --------------------
 #p B2PLYPD3/Def2QZVP
 --------------------

 ------------
 cyanomethane
 ------------
 Symbolic Z-matrix:
 Charge =  0 Multiplicity = 1

                         Standard orientation:
 ---------------------------------------------------------------------
 Center     Atomic      Atomic             Coordinates (Angstroms)
 Number     Number       Type             X           Y           Z
 ---------------------------------------------------------------------
      1          6           0        1.186730    0.032184    0.010774
      2          6           0       -0.255101    0.003662   -0.025183
      3          7           0       -1.425472   -0.006232    0.008918
      4          1           0        1.442453    1.045351   -0.012864
      5          1           0        1.505948   -0.626830   -0.924561
      6          1           0        1.440126   -0.589973    0.961458
 ---------------------------------------------------------------------

 SCF Done:  E(RB2PLYPD3) =  -132.517532802     A.U. after   12 cycles
 E2(B2PLYPD3) =    -0.1826814475D+00 E(B2PLYPD3) =    -0.13270021424998D+03

 The electronic state is 1-A.
 Alpha  occ. eigenvalues --  -14.84230 -10.68430 -10.66331  -1.03305  -0.89276
 Alpha  occ. eigenvalues --   -0.58017  -0.55818  -0.52266  -0.44454  -0.38497
 Alpha  occ. eigenvalues --   -0.37903
 Alpha virt. eigenvalues --    0.03328   0.06767   0.08101   0.10022   0.11078
 Alpha virt. eigenvalues --    0.11766   0.14870   0.15163   0.15681   0.20151
 Alpha virt. eigenvalues --    0.20301   0.25366   0.31393   0.32200   0.34797

 Mulliken charges:
               1
     1  C   -0.126854
     2  C    0.003904
     3  N   -0.218521
     4  H    0.123090
     5  H    0.105904
     6  H    0.112477
 Sum of Mulliken charges =   0.00000

 Dipole moment (field-independent basis, Debye):
    X=              4.0745    Y=             -0.0152    Z=             -0.0041  Tot=              4.0746
 Quadrupole moment (field-independent basis, Debye-Ang):
   XX=            -21.8887   YY=            -17.4506   ZZ=            -17.8068
   XY=             -0.1029   XZ=              0.0006   YZ=             -0.0333

 Normal termination of Gaussian 09 at Wed Aug 26 23:23:37 2020.
