 Gaussian 09, Revision D.01,
 Gaussian 09:  ES64L-G09RevD.01 24-Apr-2013

 --------------------
 #p B2PLYPD3/Def2QZVP
 --------------------

 ------------
 cyanomethane
 ------------
 Symbolic Z-matrix:
 Charge =  0 Multiplicity = 1

                         Standard orientation:
 ---------------------------------------------------------------------
 Center     Atomic      Atomic             Coordinates (Angstroms)
 Number     Number       Type             X           Y           Z
 ---------------------------------------------------------------------
      1          6           0       -1.181125   -0.000297    0.010427
      2          6           0        0.282168    0.020912   -0.002071
      3          7           0        1.428653   -0.009948   -0.001300
      4          1           0       -1.515992   -0.186359    1.000984
      5          1           0       -1.536587   -0.844083   -0.661449
      6          1           0       -1.554251    0.976384   -0.380576
 ---------------------------------------------------------------------

 SCF Done:  E(RB2PLYPD3) =  -132.533536689     A.U. after   11 cycles
 E2(B2PLYPD3) =    -0.1799994518D+00 E(B2PLYPD3) =    -0.13271353614035D+03

 The electronic state is 1-A.
 Alpha  occ. eigenvalues --  -14.83901 -10.67634 -10.65963  -1.04359  -0.88851
 Alpha  occ. eigenvalues --   -0.58992  -0.54406  -0.53090  -0.44671  -0.39279
 Alpha  occ. eigenvalues --   -0.39084
 Alpha virt. eigenvalues --    0.03650   0.07711   0.08259   0.10189   0.11439
 Alpha virt. eigenvalues --    0.11664   0.15300   0.16152   0.16212   0.20024
 Alpha virt. eigenvalues --    0.20090   0.25231   0.32505   0.33786   0.34836

 Mulliken charges:
               1
     1  C   -0.098490
     2  C   -0.003419
     3  N   -0.202334
     4  H    0.104525
     5  H    0.098522
     6  H    0.101197
 Sum of Mulliken charges =   0.00000

 Dipole moment (field-independent basis, Debye):
    X=             -4.0981    Y=              0.0059    Z=              0.0140  Tot=              4.0982
 Quadrupole moment (field-independent basis, Debye-Ang):
   XX=            -21.2011   YY=            -17.6605   ZZ=            -17.7338
   XY=              0.0619   XZ=              0.0038   YZ=             -0.0394

 Normal termination of Gaussian 09 at Wed Aug 26 23:58:40 2020.
