 Gaussian 09, Revision D.01,
 Gaussian 09:  ES64L-G09RevD.01 24-Apr-2013

 --------------------
 #p B2PLYPD3/Def2QZVP
 --------------------

 ------------
 cyanomethane
 ------------
 Symbolic Z-matrix:
 Charge =  0 Multiplicity = 1

                         Standard orientation:
 ---------------------------------------------------------------------
 Center     Atomic      Atomic             Coordinates (Angstroms)
 Number     Number       Type             X           Y           Z
 ---------------------------------------------------------------------
      1          6           0        1.182286    0.000999    0.008088
      2          6           0       -0.279994   -0.026854   -0.008159
      3          7           0       -1.440954    0.019750   -0.000675
      4          1           0        1.650428    0.959519   -0.442244
      5          1           0        1.526386   -0.869066   -0.573218
      6          1           0        1.496115   -0.073576    1.020611
 ---------------------------------------------------------------------

 SCF Done:  E(RB2PLYPD3) =  -132.530217529     A.U. after   12 cycles
 E2(B2PLYPD3) =    -0.1814328731D+00 E(B2PLYPD3) =    -0.13271165040234D+03

 The electronic state is 1-A.
 Alpha  occ. eigenvalues --  -14.84440 -10.67732 -10.66534  -1.03832  -0.88855
 Alpha  occ. eigenvalues --   -0.59398  -0.54452  -0.52584  -0.44826  -0.38937
 Alpha  occ. eigenvalues --   -0.38795
 Alpha virt. eigenvalues --    0.03531   0.07066   0.08137   0.10141   0.11281
 Alpha virt. eigenvalues --    0.11496   0.15314   0.15716   0.16850   0.20080
 Alpha virt. eigenvalues --    0.20170   0.25295   0.32215   0.33892   0.34722

 Mulliken charges:
               1
     1  C   -0.091773
     2  C    0.000827
     3  N   -0.208819
     4  H    0.095896
     5  H    0.100185
     6  H    0.103684
 Sum of Mulliken charges =   0.00000

 Dipole moment (field-independent basis, Debye):
    X=              4.1280    Y=             -0.0424    Z=              0.0220  Tot=              4.1283
 Quadrupole moment (field-independent basis, Debye-Ang):
   XX=            -21.0642   YY=            -17.7814   ZZ=            -17.8183
   XY=              0.1757   XZ=             -0.0290   YZ=              0.0323

 Normal termination of Gaussian 09 at Wed Aug 26 13:38:17 2020.
