 Gaussian 09, Revision D.01,
 Gaussian 09:  ES64L-G09RevD.01 24-Apr-2013

 --------------------
 #p B2PLYPD3/Def2QZVP
 --------------------

 ------------
 cyanomethane
 ------------
 Symbolic Z-matrix:
 Charge =  0 Multiplicity = 1

                         Standard orientation:
 ---------------------------------------------------------------------
 Center     Atomic      Atomic             Coordinates (Angstroms)
 Number     Number       Type             X           Y           Z
 ---------------------------------------------------------------------
      1          6           0       -1.174446   -0.004435   -0.002786
      2          6           0        0.279324   -0.019706    0.010261
      3          7           0        1.426381    0.011360   -0.007920
      4          1           0       -1.552928    1.001753   -0.189530
      5          1           0       -1.498504   -0.299779    0.947057
      6          1           0       -1.562504   -0.636653   -0.746936
 ---------------------------------------------------------------------

 SCF Done:  E(RB2PLYPD3) =  -132.534234203     A.U. after   11 cycles
 E2(B2PLYPD3) =    -0.1795451551D+00 E(B2PLYPD3) =    -0.13271377935835D+03

 The electronic state is 1-A.
 Alpha  occ. eigenvalues --  -14.83954 -10.66219 -10.65971  -1.04389  -0.89908
 Alpha  occ. eigenvalues --   -0.60013  -0.55232  -0.53858  -0.44741  -0.39339
 Alpha  occ. eigenvalues --   -0.39176
 Alpha virt. eigenvalues --    0.03871   0.08082   0.08664   0.10197   0.11372
 Alpha virt. eigenvalues --    0.11603   0.15525   0.16088   0.16710   0.20039
 Alpha virt. eigenvalues --    0.20111   0.25440   0.33069   0.34670   0.35435

 Mulliken charges:
               1
     1  C   -0.075290
     2  C   -0.003333
     3  N   -0.203656
     4  H    0.091405
     5  H    0.095744
     6  H    0.095130
 Sum of Mulliken charges =   0.00000

 Dipole moment (field-independent basis, Debye):
    X=             -4.1220    Y=             -0.0150    Z=              0.0185  Tot=              4.1221
 Quadrupole moment (field-independent basis, Debye-Ang):
   XX=            -20.9196   YY=            -17.7253   ZZ=            -17.6544
   XY=             -0.0811   XZ=              0.0786   YZ=              0.0155

 Normal termination of Gaussian 09 at Thu Aug 27 00:12:30 2020.
