 Gaussian 09, Revision D.01,
 Gaussian 09:  ES64L-G09RevD.01 24-Apr-2013

 --------------------
 #p B2PLYPD3/Def2QZVP
 --------------------

 ------------
 cyanomethane
 ------------
 Symbolic Z-matrix:
 Charge =  0 Multiplicity = 1

                         Standard orientation:
 ---------------------------------------------------------------------
 Center     Atomic      Atomic             Coordinates (Angstroms)
 Number     Number       Type             X           Y           Z
 ---------------------------------------------------------------------
      1          6           0       -1.180626    0.003220    0.000049
      2          6           0        0.278035   -0.014201   -0.003612
      3          7           0        1.435651    0.008600    0.001705
      4          1           0       -1.539830   -0.117008    0.998865
      5          1           0       -1.530061   -0.827376   -0.594383
      6          1           0       -1.564116    0.950077   -0.395036
 ---------------------------------------------------------------------

 SCF Done:  E(RB2PLYPD3) =  -132.535157482     A.U. after   11 cycles
 E2(B2PLYPD3) =    -0.1806352644D+00 E(B2PLYPD3) =    -0.13271579274608D+03

 The electronic state is 1-A.
 Alpha  occ. eigenvalues --  -14.84262 -10.66899 -10.66328  -1.03967  -0.89423
 Alpha  occ. eigenvalues --   -0.59713  -0.54318  -0.54005  -0.44774  -0.39006
 Alpha  occ. eigenvalues --   -0.38982
 Alpha virt. eigenvalues --    0.03787   0.07835   0.08150   0.10176   0.11350
 Alpha virt. eigenvalues --    0.11429   0.15394   0.16042   0.16532   0.20088
 Alpha virt. eigenvalues --    0.20133   0.25322   0.32735   0.34729   0.34758

 Mulliken charges:
               1
     1  C   -0.082257
     2  C   -0.001592
     3  N   -0.208132
     4  H    0.096737
     5  H    0.097662
     6  H    0.097581
 Sum of Mulliken charges =   0.00000

 Dipole moment (field-independent basis, Debye):
    X=             -4.1352    Y=             -0.0192    Z=              0.0111  Tot=              4.1353
 Quadrupole moment (field-independent basis, Debye-Ang):
   XX=            -21.0109   YY=            -17.6858   ZZ=            -17.8003
   XY=             -0.0560   XZ=             -0.0392   YZ=              0.0067

 Normal termination of Gaussian 09 at Wed Aug 26 23:57:05 2020.
