 Gaussian 09, Revision D.01,
 Gaussian 09:  ES64L-G09RevD.01 24-Apr-2013

 --------------------
 #p B2PLYPD3/Def2QZVP
 --------------------

 ------------
 cyanomethane
 ------------
 Symbolic Z-matrix:
 Charge =  0 Multiplicity = 1

                         Standard orientation:
 ---------------------------------------------------------------------
 Center     Atomic      Atomic             Coordinates (Angstroms)
 Number     Number       Type             X           Y           Z
 ---------------------------------------------------------------------
      1          6           0        1.180295   -0.000111    0.007619
      2          6           0       -0.284310   -0.028281    0.003134
      3          7           0       -1.439556    0.017936   -0.009337
      4          1           0        1.639221    0.988745   -0.349793
      5          1           0        1.597110   -0.792250   -0.625637
      6          1           0        1.464654   -0.151695    0.976275
 ---------------------------------------------------------------------

 SCF Done:  E(RB2PLYPD3) =  -132.529054613     A.U. after   12 cycles
 E2(B2PLYPD3) =    -0.1807157293D+00 E(B2PLYPD3) =    -0.13270977034265D+03

 The electronic state is 1-A.
 Alpha  occ. eigenvalues --  -14.84336 -10.67113 -10.66422  -1.04095  -0.89250
 Alpha  occ. eigenvalues --   -0.59838  -0.54914  -0.52584  -0.44862  -0.39184
 Alpha  occ. eigenvalues --   -0.39005
 Alpha virt. eigenvalues --    0.03597   0.07224   0.08548   0.10190   0.11273
 Alpha virt. eigenvalues --    0.11536   0.15394   0.15881   0.17079   0.20054
 Alpha virt. eigenvalues --    0.20155   0.25272   0.32359   0.34079   0.35200

 Mulliken charges:
               1
     1  C   -0.081772
     2  C    0.000140
     3  N   -0.206163
     4  H    0.091923
     5  H    0.094104
     6  H    0.101767
 Sum of Mulliken charges =   0.00000

 Dipole moment (field-independent basis, Debye):
    X=              4.1331    Y=             -0.0427    Z=              0.0421  Tot=              4.1335
 Quadrupole moment (field-independent basis, Debye-Ang):
   XX=            -20.8799   YY=            -17.7793   ZZ=            -17.8171
   XY=              0.1150   XZ=             -0.1078   YZ=              0.0080

 Normal termination of Gaussian 09 at Wed Aug 26 14:52:50 2020.
