 Gaussian 09, Revision D.01,
 Gaussian 09:  ES64L-G09RevD.01 24-Apr-2013

 --------------------
 #p B2PLYPD3/Def2QZVP
 --------------------

 ------------
 cyanomethane
 ------------
 Symbolic Z-matrix:
 Charge =  0 Multiplicity = 1

                         Standard orientation:
 ---------------------------------------------------------------------
 Center     Atomic      Atomic             Coordinates (Angstroms)
 Number     Number       Type             X           Y           Z
 ---------------------------------------------------------------------
      1          6           0        1.170624   -0.026530    0.016203
      2          6           0       -0.293922   -0.048900   -0.020814
      3          7           0       -1.447525    0.037570    0.006968
      4          1           0        1.748500    0.940046   -0.362380
      5          1           0        1.547573   -0.698366   -0.546312
      6          1           0        1.576389   -0.052087    0.887578
 ---------------------------------------------------------------------

 SCF Done:  E(RB2PLYPD3) =  -132.496193954     A.U. after   12 cycles
 E2(B2PLYPD3) =    -0.1807190760D+00 E(B2PLYPD3) =    -0.13267691302954D+03

 The electronic state is 1-A.
 Alpha  occ. eigenvalues --  -14.84734 -10.66830 -10.65275  -1.04325  -0.90766
 Alpha  occ. eigenvalues --   -0.62542  -0.57329  -0.50629  -0.45234  -0.39732
 Alpha  occ. eigenvalues --   -0.38930
 Alpha virt. eigenvalues --    0.03183   0.07250   0.08912   0.10088   0.11013
 Alpha virt. eigenvalues --    0.11882   0.15620   0.16976   0.17675   0.19863
 Alpha virt. eigenvalues --    0.20474   0.25271   0.31675   0.33952   0.36782

 Mulliken charges:
               1
     1  C   -0.054268
     2  C    0.016095
     3  N   -0.205505
     4  H    0.064126
     5  H    0.091707
     6  H    0.087846
 Sum of Mulliken charges =   0.00000

 Dipole moment (field-independent basis, Debye):
    X=              4.1495    Y=             -0.0933    Z=              0.0263  Tot=              4.1506
 Quadrupole moment (field-independent basis, Debye-Ang):
   XX=            -20.1638   YY=            -17.9644   ZZ=            -17.9042
   XY=              0.2851   XZ=              0.0738   YZ=              0.1679

 Normal termination of Gaussian 09 at Wed Aug 26 22:34:57 2020.
