 Gaussian 09, Revision D.01,
 Gaussian 09:  ES64L-G09RevD.01 24-Apr-2013

 --------------------
 #p B2PLYPD3/Def2QZVP
 --------------------

 ------------
 cyanomethane
 ------------
 Symbolic Z-matrix:
 Charge =  0 Multiplicity = 1

                         Standard orientation:
 ---------------------------------------------------------------------
 Center     Atomic      Atomic             Coordinates (Angstroms)
 Number     Number       Type             X           Y           Z
 ---------------------------------------------------------------------
      1          6           0       -1.179402    0.018741   -0.005351
      2          6           0        0.294269    0.016161    0.023178
      3          7           0        1.437391   -0.010871   -0.014862
      4          1           0       -1.618801   -0.690165   -0.750428
      5          1           0       -1.590126    0.937489   -0.179167
      6          1           0       -1.542009   -0.380640    0.926673
 ---------------------------------------------------------------------

 SCF Done:  E(RB2PLYPD3) =  -132.530890085     A.U. after   12 cycles
 E2(B2PLYPD3) =    -0.1795139267D+00 E(B2PLYPD3) =    -0.13271040401137D+03

 The electronic state is 1-A.
 Alpha  occ. eigenvalues --  -14.84065 -10.66669 -10.66182  -1.04605  -0.89259
 Alpha  occ. eigenvalues --   -0.60474  -0.55091  -0.52313  -0.44885  -0.39706
 Alpha  occ. eigenvalues --   -0.39282
 Alpha virt. eigenvalues --    0.03732   0.07800   0.08661   0.10202   0.11231
 Alpha virt. eigenvalues --    0.11753   0.15440   0.16295   0.17328   0.19952
 Alpha virt. eigenvalues --    0.20119   0.25100   0.32751   0.34156   0.35671

 Mulliken charges:
               1
     1  C   -0.067629
     2  C    0.000155
     3  N   -0.199855
     4  H    0.084071
     5  H    0.095562
     6  H    0.087695
 Sum of Mulliken charges =   0.00000

 Dipole moment (field-independent basis, Debye):
    X=             -4.1347    Y=              0.0003    Z=              0.0386  Tot=              4.1348
 Quadrupole moment (field-independent basis, Debye-Ang):
   XX=            -20.6764   YY=            -17.7008   ZZ=            -17.8977
   XY=              0.1144   XZ=              0.1057   YZ=             -0.0675

 Normal termination of Gaussian 09 at Wed Aug 26 12:46:58 2020.
