 Gaussian 09, Revision D.01,
 Gaussian 09:  ES64L-G09RevD.01 24-Apr-2013

 --------------------
 #p B2PLYPD3/Def2QZVP
 --------------------

 ------------
 cyanomethane
 ------------
 Symbolic Z-matrix:
 Charge =  0 Multiplicity = 1

                         Standard orientation:
 ---------------------------------------------------------------------
 Center     Atomic      Atomic             Coordinates (Angstroms)
 Number     Number       Type             X           Y           Z
 ---------------------------------------------------------------------
      1          6           0       -1.174715   -0.000372    0.006435
      2          6           0        0.287008    0.015050    0.021625
      3          7           0        1.436733   -0.012641   -0.017490
      4          1           0       -1.671358   -0.571219   -0.885320
      5          1           0       -1.517845    1.055423   -0.066989
      6          1           0       -1.541683   -0.483788    0.906381
 ---------------------------------------------------------------------

 SCF Done:  E(RB2PLYPD3) =  -132.529729942     A.U. after   12 cycles
 E2(B2PLYPD3) =    -0.1807213800D+00 E(B2PLYPD3) =    -0.13271045132190D+03

 The electronic state is 1-A.
 Alpha  occ. eigenvalues --  -14.84205 -10.68112 -10.66289  -1.04332  -0.88416
 Alpha  occ. eigenvalues --   -0.59530  -0.54145  -0.51765  -0.44868  -0.39257
 Alpha  occ. eigenvalues --   -0.38989
 Alpha virt. eigenvalues --    0.03453   0.06936   0.08105   0.10156   0.11393
 Alpha virt. eigenvalues --    0.11758   0.15344   0.16008   0.17019   0.19991
 Alpha virt. eigenvalues --    0.20151   0.25325   0.32270   0.33618   0.34626

 Mulliken charges:
               1
     1  C   -0.091785
     2  C    0.000831
     3  N   -0.202142
     4  H    0.092085
     5  H    0.099693
     6  H    0.101318
 Sum of Mulliken charges =   0.00000

 Dipole moment (field-independent basis, Debye):
    X=             -4.1092    Y=              0.0209    Z=              0.0388  Tot=              4.1094
 Quadrupole moment (field-independent basis, Debye-Ang):
   XX=            -20.9736   YY=            -17.7614   ZZ=            -17.8817
   XY=              0.1527   XZ=              0.1672   YZ=             -0.0811

 Normal termination of Gaussian 09 at Wed Aug 26 10:26:46 2020.
