 Gaussian 09, Revision D.01,
 Gaussian 09:  ES64L-G09RevD.01 24-Apr-2013

 --------------------
 #p B2PLYPD3/Def2QZVP
 --------------------

 ------------
 cyanomethane
 ------------
 Symbolic Z-matrix:
 Charge =  0 Multiplicity = 1

                         Standard orientation:
 ---------------------------------------------------------------------
 Center     Atomic      Atomic             Coordinates (Angstroms)
 Number     Number       Type             X           Y           Z
 ---------------------------------------------------------------------
      1          6           0       -1.183302    0.000459    0.002368
      2          6           0        0.279696    0.004117   -0.023693
      3          7           0        1.432612   -0.000031    0.013101
      4          1           0       -1.537037   -0.368950    0.968580
      5          1           0       -1.507298   -0.664612   -0.775717
      6          1           0       -1.562318    1.006325   -0.156622
 ---------------------------------------------------------------------

 SCF Done:  E(RB2PLYPD3) =  -132.535416285     A.U. after   12 cycles
 E2(B2PLYPD3) =    -0.1803021749D+00 E(B2PLYPD3) =    -0.13271571845969D+03

 The electronic state is 1-A.
 Alpha  occ. eigenvalues --  -14.84100 -10.67048 -10.66166  -1.04105  -0.89284
 Alpha  occ. eigenvalues --   -0.59304  -0.54522  -0.53853  -0.44708  -0.39114
 Alpha  occ. eigenvalues --   -0.39048
 Alpha virt. eigenvalues --    0.03766   0.07897   0.08309   0.10188   0.11344
 Alpha virt. eigenvalues --    0.11485   0.15349   0.15949   0.16459   0.20070
 Alpha virt. eigenvalues --    0.20112   0.25255   0.32738   0.34534   0.34821

 Mulliken charges:
               1
     1  C   -0.088554
     2  C   -0.003112
     3  N   -0.206167
     4  H    0.098544
     5  H    0.100174
     6  H    0.099115
 Sum of Mulliken charges =   0.00000

 Dipole moment (field-independent basis, Debye):
    X=             -4.1215    Y=             -0.0068    Z=             -0.0170  Tot=              4.1216
 Quadrupole moment (field-independent basis, Debye-Ang):
   XX=            -21.0981   YY=            -17.6883   ZZ=            -17.7351
   XY=             -0.0220   XZ=             -0.0941   YZ=              0.0170

 Normal termination of Gaussian 09 at Wed Aug 26 23:54:58 2020.
