 Gaussian 09, Revision D.01,
 Gaussian 09:  ES64L-G09RevD.01 24-Apr-2013

 --------------------
 #p B2PLYPD3/Def2QZVP
 --------------------

 ------------
 cyanomethane
 ------------
 Symbolic Z-matrix:
 Charge =  0 Multiplicity = 1

                         Standard orientation:
 ---------------------------------------------------------------------
 Center     Atomic      Atomic             Coordinates (Angstroms)
 Number     Number       Type             X           Y           Z
 ---------------------------------------------------------------------
      1          6           0        1.167369   -0.006610    0.008183
      2          6           0       -0.272324    0.010430   -0.014210
      3          7           0       -1.432607   -0.003424    0.003901
      4          1           0        1.579244    0.989277   -0.244222
      5          1           0        1.566629   -0.715494   -0.704515
      6          1           0        1.512106   -0.272731    0.957594
 ---------------------------------------------------------------------

 SCF Done:  E(RB2PLYPD3) =  -132.533712863     A.U. after   11 cycles
 E2(B2PLYPD3) =    -0.1808513834D+00 E(B2PLYPD3) =    -0.13271456424631D+03

 The electronic state is 1-A.
 Alpha  occ. eigenvalues --  -14.84370 -10.66581 -10.66379  -1.03946  -0.89806
 Alpha  occ. eigenvalues --   -0.60490  -0.54630  -0.53655  -0.44866  -0.38940
 Alpha  occ. eigenvalues --   -0.38834
 Alpha virt. eigenvalues --    0.03820   0.07605   0.07986   0.10140   0.11440
 Alpha virt. eigenvalues --    0.11497   0.15571   0.16381   0.16462   0.20124
 Alpha virt. eigenvalues --    0.20134   0.25681   0.32813   0.34522   0.35155

 Mulliken charges:
               1
     1  C   -0.073486
     2  C    0.000871
     3  N   -0.209439
     4  H    0.091759
     5  H    0.093338
     6  H    0.096957
 Sum of Mulliken charges =   0.00000

 Dipole moment (field-independent basis, Debye):
    X=              4.1392    Y=             -0.0064    Z=              0.0065  Tot=              4.1393
 Quadrupole moment (field-independent basis, Debye-Ang):
   XX=            -20.8865   YY=            -17.7484   ZZ=            -17.7859
   XY=             -0.0203   XZ=              0.0006   YZ=             -0.0069

 Normal termination of Gaussian 09 at Wed Aug 26 12:53:38 2020.
