 Gaussian 09, Revision D.01,
 Gaussian 09:  ES64L-G09RevD.01 24-Apr-2013

 --------------------
 #p B2PLYPD3/Def2QZVP
 --------------------

 ------------
 cyanomethane
 ------------
 Symbolic Z-matrix:
 Charge =  0 Multiplicity = 1

                         Standard orientation:
 ---------------------------------------------------------------------
 Center     Atomic      Atomic             Coordinates (Angstroms)
 Number     Number       Type             X           Y           Z
 ---------------------------------------------------------------------
      1          6           0        1.193952    0.030974    0.036003
      2          6           0       -0.281978   -0.011233   -0.057838
      3          7           0       -1.435658    0.008618    0.022291
      4          1           0        1.510184   -0.785904   -0.655630
      5          1           0        1.446179   -0.274918    0.936426
      6          1           0        1.621397    0.882052   -0.305827
 ---------------------------------------------------------------------

 SCF Done:  E(RB2PLYPD3) =  -132.519756899     A.U. after   12 cycles
 E2(B2PLYPD3) =    -0.1803053342D+00 E(B2PLYPD3) =    -0.13270006223302D+03

 The electronic state is 1-A.
 Alpha  occ. eigenvalues --  -14.84219 -10.66338 -10.65774  -1.04001  -0.90317
 Alpha  occ. eigenvalues --   -0.59980  -0.57445  -0.52864  -0.44726  -0.39453
 Alpha  occ. eigenvalues --   -0.38776
 Alpha virt. eigenvalues --    0.03895   0.08232   0.08692   0.10144   0.10914
 Alpha virt. eigenvalues --    0.11626   0.15210   0.15446   0.17485   0.20072
 Alpha virt. eigenvalues --    0.20147   0.25265   0.32336   0.33830   0.36782

 Mulliken charges:
               1
     1  C   -0.076789
     2  C    0.002237
     3  N   -0.209319
     4  H    0.081720
     5  H    0.103330
     6  H    0.098821
 Sum of Mulliken charges =   0.00000

 Dipole moment (field-independent basis, Debye):
    X=              4.1370    Y=             -0.0453    Z=             -0.0421  Tot=              4.1375
 Quadrupole moment (field-independent basis, Debye-Ang):
   XX=            -20.9258   YY=            -17.6933   ZZ=            -17.7173
   XY=              0.0664   XZ=              0.0088   YZ=             -0.1471

 Normal termination of Gaussian 09 at Wed Aug 26 20:39:59 2020.
