 Gaussian 09, Revision D.01,
 Gaussian 09:  ES64L-G09RevD.01 24-Apr-2013

 --------------------
 #p B2PLYPD3/Def2QZVP
 --------------------

 ------------
 cyanomethane
 ------------
 Symbolic Z-matrix:
 Charge =  0 Multiplicity = 1

                         Standard orientation:
 ---------------------------------------------------------------------
 Center     Atomic      Atomic             Coordinates (Angstroms)
 Number     Number       Type             X           Y           Z
 ---------------------------------------------------------------------
      1          6           0        1.182375   -0.004879   -0.007195
      2          6           0       -0.284917    0.058264    0.031974
      3          7           0       -1.447317   -0.029824   -0.021770
      4          1           0        1.607884    0.985973   -0.246986
      5          1           0        1.637913   -0.774205   -0.684516
      6          1           0        1.500670   -0.323313    0.935219
 ---------------------------------------------------------------------

 SCF Done:  E(RB2PLYPD3) =  -132.528395952     A.U. after   13 cycles
 E2(B2PLYPD3) =    -0.1818491711D+00 E(B2PLYPD3) =    -0.13271024512270D+03

 The electronic state is 1-A.
 Alpha  occ. eigenvalues --  -14.84749 -10.67248 -10.66843  -1.03727  -0.89010
 Alpha  occ. eigenvalues --   -0.60228  -0.54414  -0.52413  -0.44993  -0.39001
 Alpha  occ. eigenvalues --   -0.38767
 Alpha virt. eigenvalues --    0.03478   0.06954   0.08164   0.10024   0.11042
 Alpha virt. eigenvalues --    0.11586   0.15414   0.15813   0.17311   0.20028
 Alpha virt. eigenvalues --    0.20275   0.25446   0.32429   0.34153   0.34970

 Mulliken charges:
               1
     1  C   -0.076681
     2  C    0.005297
     3  N   -0.209835
     4  H    0.095106
     5  H    0.090801
     6  H    0.095313
 Sum of Mulliken charges =   0.00000

 Dipole moment (field-independent basis, Debye):
    X=              4.1398    Y=              0.0053    Z=              0.0720  Tot=              4.1404
 Quadrupole moment (field-independent basis, Debye-Ang):
   XX=            -20.7944   YY=            -17.6986   ZZ=            -18.0484
   XY=             -0.2396   XZ=             -0.1178   YZ=             -0.0733

 Normal termination of Gaussian 09 at Wed Aug 26 22:52:41 2020.
