 Gaussian 09, Revision D.01,
 Gaussian 09:  ES64L-G09RevD.01 24-Apr-2013

 --------------------
 #p B2PLYPD3/Def2QZVP
 --------------------

 ------------
 cyanomethane
 ------------
 Symbolic Z-matrix:
 Charge =  0 Multiplicity = 1

                         Standard orientation:
 ---------------------------------------------------------------------
 Center     Atomic      Atomic             Coordinates (Angstroms)
 Number     Number       Type             X           Y           Z
 ---------------------------------------------------------------------
      1          6           0       -1.164941    0.016175   -0.022214
      2          6           0        0.269649    0.004662    0.084019
      3          7           0        1.448958   -0.009320   -0.044548
      4          1           0       -1.527358    1.021576   -0.101547
      5          1           0       -1.577141   -0.466612    0.855953
      6          1           0       -1.666455   -0.614747   -0.813399
 ---------------------------------------------------------------------

 SCF Done:  E(RB2PLYPD3) =  -132.523397061     A.U. after   13 cycles
 E2(B2PLYPD3) =    -0.1838686812D+00 E(B2PLYPD3) =    -0.13270726574176D+03

 The electronic state is 1-A.
 Alpha  occ. eigenvalues --  -14.85336 -10.67338 -10.67109  -1.03103  -0.89402
 Alpha  occ. eigenvalues --   -0.61149  -0.54923  -0.51729  -0.45180  -0.38531
 Alpha  occ. eigenvalues --   -0.38064
 Alpha virt. eigenvalues --    0.03292   0.06298   0.07433   0.09858   0.10941
 Alpha virt. eigenvalues --    0.11685   0.15528   0.15725   0.17624   0.20089
 Alpha virt. eigenvalues --    0.20495   0.26169   0.32783   0.33661   0.35067

 Mulliken charges:
               1
     1  C   -0.068805
     2  C    0.011850
     3  N   -0.217049
     4  H    0.098717
     5  H    0.086411
     6  H    0.088877
 Sum of Mulliken charges =   0.00000

 Dipole moment (field-independent basis, Debye):
    X=             -4.1553    Y=             -0.0202    Z=              0.0794  Tot=              4.1561
 Quadrupole moment (field-independent basis, Debye-Ang):
   XX=            -20.6831   YY=            -17.7377   ZZ=            -18.1878
   XY=              0.2246   XZ=              0.2175   YZ=             -0.0456

 Normal termination of Gaussian 09 at Wed Aug 26 22:28:07 2020.
