 Gaussian 09, Revision D.01,
 Gaussian 09:  ES64L-G09RevD.01 24-Apr-2013

 --------------------
 #p B2PLYPD3/Def2QZVP
 --------------------

 ------------
 cyanomethane
 ------------
 Symbolic Z-matrix:
 Charge =  0 Multiplicity = 1

                         Standard orientation:
 ---------------------------------------------------------------------
 Center     Atomic      Atomic             Coordinates (Angstroms)
 Number     Number       Type             X           Y           Z
 ---------------------------------------------------------------------
      1          6           0        1.155404   -0.014343    0.015715
      2          6           0       -0.266793    0.034029   -0.011874
      3          7           0       -1.433349   -0.015534    0.002674
      4          1           0        1.584977    0.919874   -0.470156
      5          1           0        1.573175   -0.863266   -0.583013
      6          1           0        1.543628   -0.065990    1.011411
 ---------------------------------------------------------------------

 SCF Done:  E(RB2PLYPD3) =  -132.530545391     A.U. after   11 cycles
 E2(B2PLYPD3) =    -0.1819945815D+00 E(B2PLYPD3) =    -0.13271253997246D+03

 The electronic state is 1-A.
 Alpha  occ. eigenvalues --  -14.84628 -10.67366 -10.66593  -1.03747  -0.89410
 Alpha  occ. eigenvalues --   -0.60679  -0.54233  -0.52621  -0.44980  -0.38725
 Alpha  occ. eigenvalues --   -0.38429
 Alpha virt. eigenvalues --    0.03636   0.06887   0.07339   0.10027   0.11444
 Alpha virt. eigenvalues --    0.11688   0.15623   0.16040   0.16904   0.20128
 Alpha virt. eigenvalues --    0.20192   0.26038   0.32565   0.33827   0.34922

 Mulliken charges:
               1
     1  C   -0.079155
     2  C    0.004834
     3  N   -0.211465
     4  H    0.089750
     5  H    0.095513
     6  H    0.100524
 Sum of Mulliken charges =   0.00000

 Dipole moment (field-independent basis, Debye):
    X=              4.1322    Y=              0.0206    Z=             -0.0024  Tot=              4.1322
 Quadrupole moment (field-independent basis, Debye-Ang):
   XX=            -20.9082   YY=            -17.8937   ZZ=            -17.7808
   XY=             -0.0690   XZ=             -0.0209   YZ=              0.0188

 Normal termination of Gaussian 09 at Wed Aug 26 10:54:20 2020.
