 Gaussian 09, Revision D.01,
 Gaussian 09:  ES64L-G09RevD.01 24-Apr-2013

 --------------------
 #p B2PLYPD3/Def2QZVP
 --------------------

 ------------
 cyanomethane
 ------------
 Symbolic Z-matrix:
 Charge =  0 Multiplicity = 1

                         Standard orientation:
 ---------------------------------------------------------------------
 Center     Atomic      Atomic             Coordinates (Angstroms)
 Number     Number       Type             X           Y           Z
 ---------------------------------------------------------------------
      1          6           0       -1.169447    0.008855    0.007178
      2          6           0        0.274764   -0.017861    0.003111
      3          7           0        1.433294    0.008689   -0.001916
      4          1           0       -1.561730   -0.059449    1.003946
      5          1           0       -1.547858   -0.867735   -0.575048
      6          1           0       -1.555377    0.920402   -0.477222
 ---------------------------------------------------------------------

 SCF Done:  E(RB2PLYPD3) =  -132.534270179     A.U. after   11 cycles
 E2(B2PLYPD3) =    -0.1809674466D+00 E(B2PLYPD3) =    -0.13271523762513D+03

 The electronic state is 1-A.
 Alpha  occ. eigenvalues --  -14.84326 -10.67251 -10.66358  -1.03991  -0.89263
 Alpha  occ. eigenvalues --   -0.60041  -0.54165  -0.53269  -0.44847  -0.38974
 Alpha  occ. eigenvalues --   -0.38799
 Alpha virt. eigenvalues --    0.03710   0.07491   0.07786   0.10129   0.11425
 Alpha virt. eigenvalues --    0.11590   0.15487   0.16093   0.16649   0.20106
 Alpha virt. eigenvalues --    0.20125   0.25599   0.32714   0.34092   0.34863

 Mulliken charges:
               1
     1  C   -0.083479
     2  C    0.000814
     3  N   -0.208003
     4  H    0.098821
     5  H    0.094062
     6  H    0.097785
 Sum of Mulliken charges =   0.00000

 Dipole moment (field-independent basis, Debye):
    X=             -4.1274    Y=             -0.0147    Z=              0.0043  Tot=              4.1274
 Quadrupole moment (field-independent basis, Debye-Ang):
   XX=            -20.9886   YY=            -17.7816   ZZ=            -17.7716
   XY=             -0.0441   XZ=              0.0005   YZ=             -0.0226

 Normal termination of Gaussian 09 at Wed Aug 26 09:49:32 2020.
