 Gaussian 09, Revision D.01,
 Gaussian 09:  ES64L-G09RevD.01 24-Apr-2013

 --------------------
 #p B2PLYPD3/Def2QZVP
 --------------------

 ------------
 cyanomethane
 ------------
 Symbolic Z-matrix:
 Charge =  0 Multiplicity = 1

                         Standard orientation:
 ---------------------------------------------------------------------
 Center     Atomic      Atomic             Coordinates (Angstroms)
 Number     Number       Type             X           Y           Z
 ---------------------------------------------------------------------
      1          6           0       -1.194079    0.011212   -0.002400
      2          6           0        0.292746   -0.025830    0.031312
      3          7           0        1.431505    0.011489   -0.019454
      4          1           0       -1.576401   -0.757054   -0.739513
      5          1           0       -1.535820    1.016697   -0.296334
      6          1           0       -1.500311   -0.252357    0.998551
 ---------------------------------------------------------------------

 SCF Done:  E(RB2PLYPD3) =  -132.533160566     A.U. after   12 cycles
 E2(B2PLYPD3) =    -0.1795238748D+00 E(B2PLYPD3) =    -0.13271268444077D+03

 The electronic state is 1-A.
 Alpha  occ. eigenvalues --  -14.83737 -10.67855 -10.65840  -1.04564  -0.88406
 Alpha  occ. eigenvalues --   -0.58348  -0.54293  -0.53081  -0.44604  -0.39481
 Alpha  occ. eigenvalues --   -0.39380
 Alpha virt. eigenvalues --    0.03601   0.07853   0.08613   0.10213   0.11385
 Alpha virt. eigenvalues --    0.11590   0.15142   0.15681   0.16687   0.19972
 Alpha virt. eigenvalues --    0.20050   0.24909   0.32439   0.34104   0.34638

 Mulliken charges:
               1
     1  C   -0.102428
     2  C   -0.006289
     3  N   -0.198252
     4  H    0.099066
     5  H    0.104544
     6  H    0.103359
 Sum of Mulliken charges =   0.00000

 Dipole moment (field-independent basis, Debye):
    X=             -4.0940    Y=             -0.0177    Z=              0.0372  Tot=              4.0942
 Quadrupole moment (field-independent basis, Debye-Ang):
   XX=            -21.2216   YY=            -17.6692   ZZ=            -17.7021
   XY=             -0.0446   XZ=              0.1512   YZ=             -0.0337

 Normal termination of Gaussian 09 at Wed Aug 26 14:56:58 2020.
