 Gaussian 09, Revision D.01,
 Gaussian 09:  ES64L-G09RevD.01 24-Apr-2013

 --------------------
 #p B2PLYPD3/Def2QZVP
 --------------------

 ------------
 cyanomethane
 ------------
 Symbolic Z-matrix:
 Charge =  0 Multiplicity = 1

                         Standard orientation:
 ---------------------------------------------------------------------
 Center     Atomic      Atomic             Coordinates (Angstroms)
 Number     Number       Type             X           Y           Z
 ---------------------------------------------------------------------
      1          6           0       -1.197146   -0.002778    0.023702
      2          6           0        0.262211   -0.050790   -0.007486
      3          7           0        1.450350    0.028528   -0.011782
      4          1           0       -1.333830   -0.436559    0.871469
      5          1           0       -1.657407   -0.512722   -0.839878
      6          1           0       -1.551609    1.070993   -0.046415
 ---------------------------------------------------------------------

 SCF Done:  E(RB2PLYPD3) =  -132.510297787     A.U. after   13 cycles
 E2(B2PLYPD3) =    -0.1837497214D+00 E(B2PLYPD3) =    -0.13269404750814D+03

 The electronic state is 1-A.
 Alpha  occ. eigenvalues --  -14.85110 -10.67236 -10.66602  -1.02716  -0.90432
 Alpha  occ. eigenvalues --   -0.59344  -0.57306  -0.52666  -0.44764  -0.38319
 Alpha  occ. eigenvalues --   -0.38031
 Alpha virt. eigenvalues --    0.03525   0.06604   0.08651   0.10088   0.10722
 Alpha virt. eigenvalues --    0.11260   0.14920   0.15502   0.16499   0.20201
 Alpha virt. eigenvalues --    0.20325   0.25329   0.32018   0.33564   0.35722

 Mulliken charges:
               1
     1  C   -0.098432
     2  C    0.002075
     3  N   -0.223662
     4  H    0.121177
     5  H    0.097659
     6  H    0.101182
 Sum of Mulliken charges =   0.00000

 Dipole moment (field-independent basis, Debye):
    X=             -4.1651    Y=             -0.0288    Z=              0.0046  Tot=              4.1652
 Quadrupole moment (field-independent basis, Debye-Ang):
   XX=            -21.1499   YY=            -17.8041   ZZ=            -17.7948
   XY=             -0.1840   XZ=              0.3269   YZ=             -0.1174

 Normal termination of Gaussian 09 at Wed Aug 26 21:57:04 2020.
