 Gaussian 09, Revision D.01,
 Gaussian 09:  ES64L-G09RevD.01 24-Apr-2013

 --------------------
 #p B2PLYPD3/Def2QZVP
 --------------------

 ------------
 cyanomethane
 ------------
 Symbolic Z-matrix:
 Charge =  0 Multiplicity = 1

                         Standard orientation:
 ---------------------------------------------------------------------
 Center     Atomic      Atomic             Coordinates (Angstroms)
 Number     Number       Type             X           Y           Z
 ---------------------------------------------------------------------
      1          6           0        1.214383    0.004908    0.020118
      2          6           0       -0.274267   -0.068513   -0.044166
      3          7           0       -1.447074    0.037268    0.019204
      4          1           0        1.482866   -0.800089   -0.517544
      5          1           0        1.469022   -0.002203    0.999360
      6          1           0        1.536941    0.923042   -0.471958
 ---------------------------------------------------------------------

 SCF Done:  E(RB2PLYPD3) =  -132.519445176     A.U. after   12 cycles
 E2(B2PLYPD3) =    -0.1822905481D+00 E(B2PLYPD3) =    -0.13270173572451D+03

 The electronic state is 1-A.
 Alpha  occ. eigenvalues --  -14.84785 -10.66861 -10.65948  -1.03028  -0.90297
 Alpha  occ. eigenvalues --   -0.58808  -0.56947  -0.54458  -0.44632  -0.38691
 Alpha  occ. eigenvalues --   -0.38504
 Alpha virt. eigenvalues --    0.03653   0.07824   0.08766   0.10042   0.10790
 Alpha virt. eigenvalues --    0.11054   0.15132   0.15200   0.16455   0.20092
 Alpha virt. eigenvalues --    0.20261   0.25019   0.32480   0.34546   0.35945

 Mulliken charges:
               1
     1  C   -0.088402
     2  C   -0.001251
     3  N   -0.218919
     4  H    0.104369
     5  H    0.106537
     6  H    0.097666
 Sum of Mulliken charges =   0.00000

 Dipole moment (field-independent basis, Debye):
    X=              4.1438    Y=             -0.0448    Z=             -0.0270  Tot=              4.1442
 Quadrupole moment (field-independent basis, Debye-Ang):
   XX=            -21.1947   YY=            -17.7427   ZZ=            -17.6563
   XY=              0.2183   XZ=              0.0421   YZ=              0.0328

 Normal termination of Gaussian 09 at Wed Aug 26 22:51:15 2020.
