 Gaussian 09, Revision D.01,
 Gaussian 09:  ES64L-G09RevD.01 24-Apr-2013

 --------------------
 #p B2PLYPD3/Def2QZVP
 --------------------

 ------------
 cyanomethane
 ------------
 Symbolic Z-matrix:
 Charge =  0 Multiplicity = 1

                         Standard orientation:
 ---------------------------------------------------------------------
 Center     Atomic      Atomic             Coordinates (Angstroms)
 Number     Number       Type             X           Y           Z
 ---------------------------------------------------------------------
      1          6           0        1.187128   -0.024662   -0.002155
      2          6           0       -0.283611   -0.006394    0.014996
      3          7           0       -1.437014    0.008323   -0.004607
      4          1           0        1.578080    1.043067   -0.049042
      5          1           0        1.491964   -0.488640   -0.858755
      6          1           0        1.567950   -0.426353    0.863001
 ---------------------------------------------------------------------

 SCF Done:  E(RB2PLYPD3) =  -132.528553537     A.U. after   11 cycles
 E2(B2PLYPD3) =    -0.1801063026D+00 E(B2PLYPD3) =    -0.13270865983982D+03

 The electronic state is 1-A.
 Alpha  occ. eigenvalues --  -14.84172 -10.66412 -10.66261  -1.04126  -0.89756
 Alpha  occ. eigenvalues --   -0.59855  -0.56391  -0.52673  -0.44760  -0.39410
 Alpha  occ. eigenvalues --   -0.38957
 Alpha virt. eigenvalues --    0.03779   0.07857   0.08783   0.10232   0.11052
 Alpha virt. eigenvalues --    0.11625   0.15350   0.16207   0.16569   0.20009
 Alpha virt. eigenvalues --    0.20154   0.25072   0.32421   0.33962   0.36155

 Mulliken charges:
               1
     1  C   -0.075926
     2  C   -0.002253
     3  N   -0.206266
     4  H    0.085419
     5  H    0.100890
     6  H    0.098136
 Sum of Mulliken charges =   0.00000

 Dipole moment (field-independent basis, Debye):
    X=              4.1395    Y=             -0.0108    Z=              0.0039  Tot=              4.1395
 Quadrupole moment (field-independent basis, Debye-Ang):
   XX=            -20.9190   YY=            -17.8363   ZZ=            -17.6284
   XY=              0.1029   XZ=              0.0233   YZ=              0.0197

 Normal termination of Gaussian 09 at Wed Aug 26 10:36:13 2020.
