 Gaussian 09, Revision D.01,
 Gaussian 09:  ES64L-G09RevD.01 24-Apr-2013

 --------------------
 #p B2PLYPD3/Def2QZVP
 --------------------

 ------------
 cyanomethane
 ------------
 Symbolic Z-matrix:
 Charge =  0 Multiplicity = 1

                         Standard orientation:
 ---------------------------------------------------------------------
 Center     Atomic      Atomic             Coordinates (Angstroms)
 Number     Number       Type             X           Y           Z
 ---------------------------------------------------------------------
      1          6           0        1.174444   -0.032927   -0.016150
      2          6           0       -0.294949   -0.003312    0.039930
      3          7           0       -1.443707    0.014845   -0.009132
      4          1           0        1.725062    1.061978   -0.090583
      5          1           0        1.415788   -0.533620   -0.838969
      6          1           0        1.688128   -0.414838    0.850794
 ---------------------------------------------------------------------

 SCF Done:  E(RB2PLYPD3) =  -132.515642078     A.U. after   12 cycles
 E2(B2PLYPD3) =    -0.1805972537D+00 E(B2PLYPD3) =    -0.13269623933145D+03

 The electronic state is 1-A.
 Alpha  occ. eigenvalues --  -14.84369 -10.67410 -10.66508  -1.04495  -0.89045
 Alpha  occ. eigenvalues --   -0.60513  -0.55868  -0.50299  -0.45023  -0.39661
 Alpha  occ. eigenvalues --   -0.38942
 Alpha virt. eigenvalues --    0.03266   0.06749   0.08449   0.10329   0.11197
 Alpha virt. eigenvalues --    0.11905   0.15262   0.16717   0.17153   0.19887
 Alpha virt. eigenvalues --    0.20213   0.25188   0.31053   0.33371   0.36155

 Mulliken charges:
               1
     1  C   -0.078412
     2  C    0.005623
     3  N   -0.201785
     4  H    0.077058
     5  H    0.106541
     6  H    0.090975
 Sum of Mulliken charges =   0.00000

 Dipole moment (field-independent basis, Debye):
    X=              4.1251    Y=             -0.0700    Z=              0.0190  Tot=              4.1258
 Quadrupole moment (field-independent basis, Debye-Ang):
   XX=            -20.6037   YY=            -17.9956   ZZ=            -17.8356
   XY=              0.1604   XZ=              0.1406   YZ=              0.1215

 Normal termination of Gaussian 09 at Wed Aug 26 21:12:17 2020.
