 Gaussian 09, Revision D.01,
 Gaussian 09:  ES64L-G09RevD.01 24-Apr-2013

 --------------------
 #p B2PLYPD3/Def2QZVP
 --------------------

 ------------
 cyanomethane
 ------------
 Symbolic Z-matrix:
 Charge =  0 Multiplicity = 1

                         Standard orientation:
 ---------------------------------------------------------------------
 Center     Atomic      Atomic             Coordinates (Angstroms)
 Number     Number       Type             X           Y           Z
 ---------------------------------------------------------------------
      1          6           0       -1.175796   -0.009958   -0.006377
      2          6           0        0.265124    0.016370    0.028627
      3          7           0        1.435061   -0.009811   -0.013800
      4          1           0       -1.496454    0.916940   -0.471750
      5          1           0       -1.534157   -0.042865    0.992979
      6          1           0       -1.550782   -0.843872   -0.558130
 ---------------------------------------------------------------------

 SCF Done:  E(RB2PLYPD3) =  -132.532629282     A.U. after   12 cycles
 E2(B2PLYPD3) =    -0.1817003082D+00 E(B2PLYPD3) =    -0.13271432958987D+03

 The electronic state is 1-A.
 Alpha  occ. eigenvalues --  -14.84559 -10.66597 -10.66491  -1.03477  -0.90013
 Alpha  occ. eigenvalues --   -0.60019  -0.54812  -0.54426  -0.44795  -0.38644
 Alpha  occ. eigenvalues --   -0.38535
 Alpha virt. eigenvalues --    0.03809   0.07601   0.08008   0.10093   0.11256
 Alpha virt. eigenvalues --    0.11358   0.15486   0.15711   0.16546   0.20176
 Alpha virt. eigenvalues --    0.20210   0.25673   0.32851   0.34495   0.35053

 Mulliken charges:
               1
     1  C   -0.080674
     2  C    0.000850
     3  N   -0.215351
     4  H    0.097807
     5  H    0.097580
     6  H    0.099788
 Sum of Mulliken charges =   0.00000

 Dipole moment (field-independent basis, Debye):
    X=             -4.1456    Y=              0.0180    Z=              0.0212  Tot=              4.1457
 Quadrupole moment (field-independent basis, Debye-Ang):
   XX=            -21.0643   YY=            -17.7244   ZZ=            -17.7547
   XY=              0.0783   XZ=              0.0532   YZ=              0.0110

 Normal termination of Gaussian 09 at Wed Aug 26 15:31:13 2020.
