 Gaussian 09, Revision D.01,
 Gaussian 09:  ES64L-G09RevD.01 24-Apr-2013

 --------------------
 #p B2PLYPD3/Def2QZVP
 --------------------

 ------------
 cyanomethane
 ------------
 Symbolic Z-matrix:
 Charge =  0 Multiplicity = 1

                         Standard orientation:
 ---------------------------------------------------------------------
 Center     Atomic      Atomic             Coordinates (Angstroms)
 Number     Number       Type             X           Y           Z
 ---------------------------------------------------------------------
      1          6           0       -1.185411    0.001202    0.005211
      2          6           0        0.285663    0.000463   -0.024641
      3          7           0        1.433908    0.000898    0.012102
      4          1           0       -1.539186   -0.142506    0.986462
      5          1           0       -1.535523   -0.808909   -0.592422
      6          1           0       -1.564158    0.935138   -0.362174
 ---------------------------------------------------------------------

 SCF Done:  E(RB2PLYPD3) =  -132.535058373     A.U. after   11 cycles
 E2(B2PLYPD3) =    -0.1796555283D+00 E(B2PLYPD3) =    -0.13271471390125D+03

 The electronic state is 1-A.
 Alpha  occ. eigenvalues --  -14.84029 -10.66453 -10.66106  -1.04309  -0.89559
 Alpha  occ. eigenvalues --   -0.59737  -0.54556  -0.54259  -0.44739  -0.39337
 Alpha  occ. eigenvalues --   -0.39293
 Alpha virt. eigenvalues --    0.03874   0.08300   0.08478   0.10219   0.11328
 Alpha virt. eigenvalues --    0.11460   0.15392   0.16218   0.16571   0.20033
 Alpha virt. eigenvalues --    0.20087   0.25124   0.32829   0.35033   0.35139

 Mulliken charges:
               1
     1  C   -0.076020
     2  C   -0.003813
     3  N   -0.203675
     4  H    0.094318
     5  H    0.094425
     6  H    0.094766
 Sum of Mulliken charges =   0.00000

 Dipole moment (field-independent basis, Debye):
    X=             -4.1320    Y=             -0.0097    Z=             -0.0049  Tot=              4.1320
 Quadrupole moment (field-independent basis, Debye-Ang):
   XX=            -20.9188   YY=            -17.6536   ZZ=            -17.7724
   XY=             -0.0069   XZ=             -0.0936   YZ=             -0.0001

 Normal termination of Gaussian 09 at Wed Aug 26 10:40:02 2020.
