 Gaussian 09, Revision D.01,
 Gaussian 09:  ES64L-G09RevD.01 24-Apr-2013

 --------------------
 #p B2PLYPD3/Def2QZVP
 --------------------

 ------------
 cyanomethane
 ------------
 Symbolic Z-matrix:
 Charge =  0 Multiplicity = 1

                         Standard orientation:
 ---------------------------------------------------------------------
 Center     Atomic      Atomic             Coordinates (Angstroms)
 Number     Number       Type             X           Y           Z
 ---------------------------------------------------------------------
      1          6           0       -1.173010   -0.001835   -0.045742
      2          6           0        0.280576    0.012570   -0.036380
      3          7           0        1.426757   -0.001253    0.031015
      4          1           0       -1.648005   -0.074445    0.981733
      5          1           0       -1.425650   -0.861677   -0.400255
      6          1           0       -1.559040    0.880479   -0.305848
 ---------------------------------------------------------------------

 SCF Done:  E(RB2PLYPD3) =  -132.506740582     A.U. after   11 cycles
 E2(B2PLYPD3) =    -0.1798138612D+00 E(B2PLYPD3) =    -0.13268655444338D+03

 The electronic state is 1-A.
 Alpha  occ. eigenvalues --  -14.84034 -10.66045 -10.65272  -1.04437  -0.90994
 Alpha  occ. eigenvalues --   -0.60995  -0.59413  -0.50798  -0.44804  -0.39744
 Alpha  occ. eigenvalues --   -0.38656
 Alpha virt. eigenvalues --    0.03625   0.07615   0.09396   0.10244   0.10763
 Alpha virt. eigenvalues --    0.12102   0.15425   0.16564   0.17323   0.19854
 Alpha virt. eigenvalues --    0.20257   0.25384   0.32185   0.33832   0.37326

 Mulliken charges:
               1
     1  C   -0.061188
     2  C    0.002973
     3  N   -0.204331
     4  H    0.064069
     5  H    0.101520
     6  H    0.096957
 Sum of Mulliken charges =   0.00000

 Dipole moment (field-independent basis, Debye):
    X=             -4.1444    Y=             -0.0029    Z=              0.0281  Tot=              4.1445
 Quadrupole moment (field-independent basis, Debye-Ang):
   XX=            -20.6643   YY=            -17.3065   ZZ=            -18.1708
   XY=             -0.0722   XZ=             -0.4855   YZ=              0.0577

 Normal termination of Gaussian 09 at Wed Aug 26 23:26:12 2020.
