 Gaussian 09, Revision D.01,
 Gaussian 09:  ES64L-G09RevD.01 24-Apr-2013

 --------------------
 #p B2PLYPD3/Def2QZVP
 --------------------

 ------------
 cyanomethane
 ------------
 Symbolic Z-matrix:
 Charge =  0 Multiplicity = 1

                         Standard orientation:
 ---------------------------------------------------------------------
 Center     Atomic      Atomic             Coordinates (Angstroms)
 Number     Number       Type             X           Y           Z
 ---------------------------------------------------------------------
      1          6           0       -1.182555    0.005534    0.004830
      2          6           0        0.280142    0.009122   -0.003197
      3          7           0        1.433689   -0.004460    0.001973
      4          1           0       -1.550355   -0.091138    1.016558
      5          1           0       -1.524694   -0.897137   -0.580579
      6          1           0       -1.546294    0.931558   -0.459591
 ---------------------------------------------------------------------

 SCF Done:  E(RB2PLYPD3) =  -132.534351400     A.U. after   11 cycles
 E2(B2PLYPD3) =    -0.1805435543D+00 E(B2PLYPD3) =    -0.13271489495440D+03

 The electronic state is 1-A.
 Alpha  occ. eigenvalues --  -14.84110 -10.67599 -10.66193  -1.04098  -0.88896
 Alpha  occ. eigenvalues --   -0.59169  -0.54243  -0.53288  -0.44713  -0.39115
 Alpha  occ. eigenvalues --   -0.38948
 Alpha virt. eigenvalues --    0.03673   0.07748   0.08004   0.10184   0.11367
 Alpha virt. eigenvalues --    0.11572   0.15284   0.16053   0.16320   0.20058
 Alpha virt. eigenvalues --    0.20118   0.25220   0.32517   0.33927   0.34772

 Mulliken charges:
               1
     1  C   -0.095248
     2  C   -0.002019
     3  N   -0.205744
     4  H    0.101609
     5  H    0.098804
     6  H    0.102598
 Sum of Mulliken charges =   0.00000

 Dipole moment (field-independent basis, Debye):
    X=             -4.1160    Y=              0.0007    Z=              0.0082  Tot=              4.1160
 Quadrupole moment (field-independent basis, Debye-Ang):
   XX=            -21.1647   YY=            -17.6777   ZZ=            -17.7805
   XY=              0.0248   XZ=             -0.0508   YZ=             -0.0345

 Normal termination of Gaussian 09 at Wed Aug 26 23:57:04 2020.
