 Gaussian 09, Revision D.01,
 Gaussian 09:  ES64L-G09RevD.01 24-Apr-2013

 --------------------
 #p B2PLYPD3/Def2QZVP
 --------------------

 ------------
 cyanomethane
 ------------
 Symbolic Z-matrix:
 Charge =  0 Multiplicity = 1

                         Standard orientation:
 ---------------------------------------------------------------------
 Center     Atomic      Atomic             Coordinates (Angstroms)
 Number     Number       Type             X           Y           Z
 ---------------------------------------------------------------------
      1          6           0        1.169900    0.036125   -0.011899
      2          6           0       -0.306058   -0.068004    0.033322
      3          7           0       -1.432874    0.031828   -0.021395
      4          1           0        1.633865    0.979401   -0.347586
      5          1           0        1.661760   -0.825178   -0.672276
      6          1           0        1.551443   -0.185748    1.041087
 ---------------------------------------------------------------------

 SCF Done:  E(RB2PLYPD3) =  -132.522959433     A.U. after   12 cycles
 E2(B2PLYPD3) =    -0.1798340532D+00 E(B2PLYPD3) =    -0.13270279348610D+03

 The electronic state is 1-A.
 Alpha  occ. eigenvalues --  -14.83921 -10.68864 -10.66031  -1.05208  -0.87338
 Alpha  occ. eigenvalues --   -0.59725  -0.52559  -0.51097  -0.44997  -0.39802
 Alpha  occ. eigenvalues --   -0.39467
 Alpha virt. eigenvalues --    0.03315   0.06922   0.07704   0.09989   0.11702
 Alpha virt. eigenvalues --    0.11915   0.15410   0.15854   0.17892   0.19914
 Alpha virt. eigenvalues --    0.20170   0.25618   0.31903   0.33175   0.34450

 Mulliken charges:
               1
     1  C   -0.094681
     2  C    0.004998
     3  N   -0.189798
     4  H    0.103327
     5  H    0.086042
     6  H    0.090111
 Sum of Mulliken charges =   0.00000

 Dipole moment (field-independent basis, Debye):
    X=              4.0537    Y=             -0.0410    Z=              0.0562  Tot=              4.0543
 Quadrupole moment (field-independent basis, Debye-Ang):
   XX=            -20.8086   YY=            -17.8242   ZZ=            -17.9389
   XY=              0.1962   XZ=             -0.1599   YZ=             -0.0628

 Normal termination of Gaussian 09 at Wed Aug 26 23:43:04 2020.
