 Gaussian 09, Revision D.01,
 Gaussian 09:  ES64L-G09RevD.01 24-Apr-2013

 --------------------
 #p B2PLYPD3/Def2QZVP
 --------------------

 ------------
 cyanomethane
 ------------
 Symbolic Z-matrix:
 Charge =  0 Multiplicity = 1

                         Standard orientation:
 ---------------------------------------------------------------------
 Center     Atomic      Atomic             Coordinates (Angstroms)
 Number     Number       Type             X           Y           Z
 ---------------------------------------------------------------------
      1          6           0       -1.169780   -0.005182   -0.013466
      2          6           0        0.282699    0.018087    0.005211
      3          7           0        1.429754   -0.006145   -0.000004
      4          1           0       -1.572431   -0.184474    0.993166
      5          1           0       -1.520777   -0.788931   -0.618237
      6          1           0       -1.592584    0.938988   -0.325369
 ---------------------------------------------------------------------

 SCF Done:  E(RB2PLYPD3) =  -132.534942417     A.U. after   11 cycles
 E2(B2PLYPD3) =    -0.1797255480D+00 E(B2PLYPD3) =    -0.13271466796525D+03

 The electronic state is 1-A.
 Alpha  occ. eigenvalues --  -14.84040 -10.66620 -10.66077  -1.04457  -0.89521
 Alpha  occ. eigenvalues --   -0.60332  -0.54806  -0.53139  -0.44833  -0.39399
 Alpha  occ. eigenvalues --   -0.39156
 Alpha virt. eigenvalues --    0.03828   0.07916   0.08254   0.10192   0.11421
 Alpha virt. eigenvalues --    0.11700   0.15521   0.16397   0.16793   0.20014
 Alpha virt. eigenvalues --    0.20100   0.25477   0.32918   0.34419   0.35430

 Mulliken charges:
               1
     1  C   -0.072284
     2  C   -0.001162
     3  N   -0.202486
     4  H    0.087332
     5  H    0.096317
     6  H    0.092283
 Sum of Mulliken charges =   0.00000

 Dipole moment (field-independent basis, Debye):
    X=             -4.1264    Y=              0.0004    Z=              0.0123  Tot=              4.1264
 Quadrupole moment (field-independent basis, Debye-Ang):
   XX=            -20.8170   YY=            -17.6722   ZZ=            -17.8332
   XY=              0.0063   XZ=             -0.0567   YZ=              0.0396

 Normal termination of Gaussian 09 at Thu Aug 27 00:01:54 2020.
