 Gaussian 09, Revision D.01,
 Gaussian 09:  ES64L-G09RevD.01 24-Apr-2013

 --------------------
 #p B2PLYPD3/Def2QZVP
 --------------------

 ------------
 cyanomethane
 ------------
 Symbolic Z-matrix:
 Charge =  0 Multiplicity = 1

                         Standard orientation:
 ---------------------------------------------------------------------
 Center     Atomic      Atomic             Coordinates (Angstroms)
 Number     Number       Type             X           Y           Z
 ---------------------------------------------------------------------
      1          6           0        1.199999    0.006678    0.016226
      2          6           0       -0.264630   -0.017234   -0.037142
      3          7           0       -1.444719    0.005595    0.004016
      4          1           0        1.551357    0.945330   -0.385264
      5          1           0        1.639639   -0.845482   -0.514518
      6          1           0        1.309822   -0.075676    0.997171
 ---------------------------------------------------------------------

 SCF Done:  E(RB2PLYPD3) =  -132.521061300     A.U. after   13 cycles
 E2(B2PLYPD3) =    -0.1825445533D+00 E(B2PLYPD3) =    -0.13270360585345D+03

 The electronic state is 1-A.
 Alpha  occ. eigenvalues --  -14.84743 -10.66922 -10.66349  -1.03022  -0.90433
 Alpha  occ. eigenvalues --   -0.59049  -0.56433  -0.54271  -0.44646  -0.38442
 Alpha  occ. eigenvalues --   -0.38380
 Alpha virt. eigenvalues --    0.03854   0.07405   0.08542   0.10249   0.10990
 Alpha virt. eigenvalues --    0.11146   0.14904   0.15381   0.16492   0.20211
 Alpha virt. eigenvalues --    0.20267   0.25184   0.32028   0.34770   0.35478

 Mulliken charges:
               1
     1  C   -0.095137
     2  C   -0.001140
     3  N   -0.221202
     4  H    0.103370
     5  H    0.098638
     6  H    0.115472
 Sum of Mulliken charges =   0.00000

 Dipole moment (field-independent basis, Debye):
    X=              4.1667    Y=             -0.0065    Z=              0.0250  Tot=              4.1667
 Quadrupole moment (field-independent basis, Debye-Ang):
   XX=            -21.1926   YY=            -17.6754   ZZ=            -17.7990
   XY=             -0.0223   XZ=             -0.1697   YZ=             -0.0362

 Normal termination of Gaussian 09 at Wed Aug 26 23:07:02 2020.
