 Gaussian 09, Revision D.01,
 Gaussian 09:  ES64L-G09RevD.01 24-Apr-2013

 --------------------
 #p B2PLYPD3/Def2QZVP
 --------------------

 ------------
 cyanomethane
 ------------
 Symbolic Z-matrix:
 Charge =  0 Multiplicity = 1

                         Standard orientation:
 ---------------------------------------------------------------------
 Center     Atomic      Atomic             Coordinates (Angstroms)
 Number     Number       Type             X           Y           Z
 ---------------------------------------------------------------------
      1          6           0        1.167098   -0.005692   -0.006490
      2          6           0       -0.276312    0.012631    0.014513
      3          7           0       -1.431141   -0.007962   -0.008872
      4          1           0        1.530620    1.002785   -0.003974
      5          1           0        1.595452   -0.500762   -0.850503
      6          1           0        1.547194   -0.487922    0.868439
 ---------------------------------------------------------------------

 SCF Done:  E(RB2PLYPD3) =  -132.534589496     A.U. after   12 cycles
 E2(B2PLYPD3) =    -0.1803325553D+00 E(B2PLYPD3) =    -0.13271492205166D+03

 The electronic state is 1-A.
 Alpha  occ. eigenvalues --  -14.84252 -10.66350 -10.66261  -1.04162  -0.89859
 Alpha  occ. eigenvalues --   -0.60683  -0.54241  -0.54085  -0.44872  -0.39088
 Alpha  occ. eigenvalues --   -0.39030
 Alpha virt. eigenvalues --    0.03856   0.07811   0.08158   0.10135   0.11489
 Alpha virt. eigenvalues --    0.11513   0.15600   0.16126   0.16971   0.20094
 Alpha virt. eigenvalues --    0.20137   0.25645   0.33050   0.34813   0.35125

 Mulliken charges:
               1
     1  C   -0.068319
     2  C    0.000723
     3  N   -0.206899
     4  H    0.091232
     5  H    0.092035
     6  H    0.091227
 Sum of Mulliken charges =   0.00000

 Dipole moment (field-independent basis, Debye):
    X=              4.1386    Y=              0.0152    Z=              0.0190  Tot=              4.1387
 Quadrupole moment (field-independent basis, Debye-Ang):
   XX=            -20.7976   YY=            -17.7541   ZZ=            -17.7728
   XY=             -0.0679   XZ=             -0.0665   YZ=              0.0000

 Normal termination of Gaussian 09 at Wed Aug 26 10:22:25 2020.
