 Gaussian 09, Revision D.01,
 Gaussian 09:  ES64L-G09RevD.01 24-Apr-2013

 --------------------
 #p B2PLYPD3/Def2QZVP
 --------------------

 ------------
 cyanomethane
 ------------
 Symbolic Z-matrix:
 Charge =  0 Multiplicity = 1

                         Standard orientation:
 ---------------------------------------------------------------------
 Center     Atomic      Atomic             Coordinates (Angstroms)
 Number     Number       Type             X           Y           Z
 ---------------------------------------------------------------------
      1          6           0       -1.188225    0.003216   -0.033741
      2          6           0        0.265803   -0.049977    0.045502
      3          7           0        1.443576    0.024340   -0.020594
      4          1           0       -1.520327   -0.068832    0.974874
      5          1           0       -1.539045   -0.808017   -0.542884
      6          1           0       -1.511131    0.987035   -0.358400
 ---------------------------------------------------------------------

 SCF Done:  E(RB2PLYPD3) =  -132.525375614     A.U. after   12 cycles
 E2(B2PLYPD3) =    -0.1827046354D+00 E(B2PLYPD3) =    -0.13270808024961D+03

 The electronic state is 1-A.
 Alpha  occ. eigenvalues --  -14.84893 -10.66955 -10.66231  -1.03037  -0.90198
 Alpha  occ. eigenvalues --   -0.59847  -0.56452  -0.53530  -0.44813  -0.38628
 Alpha  occ. eigenvalues --   -0.38182
 Alpha virt. eigenvalues --    0.03660   0.07469   0.08174   0.10075   0.10798
 Alpha virt. eigenvalues --    0.11366   0.14959   0.15580   0.17054   0.20163
 Alpha virt. eigenvalues --    0.20273   0.25655   0.32735   0.33926   0.35796

 Mulliken charges:
               1
     1  C   -0.077312
     2  C    0.004184
     3  N   -0.220222
     4  H    0.089211
     5  H    0.102408
     6  H    0.101732
 Sum of Mulliken charges =   0.00000

 Dipole moment (field-independent basis, Debye):
    X=             -4.1627    Y=             -0.0254    Z=              0.0818  Tot=              4.1636
 Quadrupole moment (field-independent basis, Debye-Ang):
   XX=            -21.0422   YY=            -17.5457   ZZ=            -17.9912
   XY=             -0.0983   XZ=             -0.0328   YZ=              0.0775

 Normal termination of Gaussian 09 at Wed Aug 26 22:42:14 2020.
