 Gaussian 09, Revision D.01,
 Gaussian 09:  ES64L-G09RevD.01 24-Apr-2013

 --------------------
 #p B2PLYPD3/Def2QZVP
 --------------------

 ------------
 cyanomethane
 ------------
 Symbolic Z-matrix:
 Charge =  0 Multiplicity = 1

                         Standard orientation:
 ---------------------------------------------------------------------
 Center     Atomic      Atomic             Coordinates (Angstroms)
 Number     Number       Type             X           Y           Z
 ---------------------------------------------------------------------
      1          6           0        1.173496    0.008045   -0.000348
      2          6           0       -0.273142    0.001103   -0.020480
      3          7           0       -1.435945   -0.004923    0.008824
      4          1           0        1.503452    1.035616    0.018236
      5          1           0        1.596520   -0.531100   -0.840574
      6          1           0        1.549516   -0.524944    0.885538
 ---------------------------------------------------------------------

 SCF Done:  E(RB2PLYPD3) =  -132.534047002     A.U. after   11 cycles
 E2(B2PLYPD3) =    -0.1812244867D+00 E(B2PLYPD3) =    -0.13271527148885D+03

 The electronic state is 1-A.
 Alpha  occ. eigenvalues --  -14.84426 -10.67003 -10.66473  -1.03801  -0.89472
 Alpha  occ. eigenvalues --   -0.60075  -0.54767  -0.53193  -0.44836  -0.38899
 Alpha  occ. eigenvalues --   -0.38708
 Alpha virt. eigenvalues --    0.03749   0.07513   0.07897   0.10152   0.11258
 Alpha virt. eigenvalues --    0.11579   0.15413   0.16282   0.16390   0.20080
 Alpha virt. eigenvalues --    0.20190   0.25543   0.32750   0.34281   0.34955

 Mulliken charges:
               1
     1  C   -0.080347
     2  C    0.000679
     3  N   -0.210538
     4  H    0.101158
     5  H    0.094838
     6  H    0.094209
 Sum of Mulliken charges =   0.00000

 Dipole moment (field-independent basis, Debye):
    X=              4.1411    Y=             -0.0108    Z=             -0.0054  Tot=              4.1411
 Quadrupole moment (field-independent basis, Debye-Ang):
   XX=            -20.9806   YY=            -17.6447   ZZ=            -17.9101
   XY=             -0.1367   XZ=              0.0319   YZ=              0.0143

 Normal termination of Gaussian 09 at Wed Aug 26 13:09:49 2020.
