 Gaussian 09, Revision D.01,
 Gaussian 09:  ES64L-G09RevD.01 24-Apr-2013

 --------------------
 #p B2PLYPD3/Def2QZVP
 --------------------

 ------------
 cyanomethane
 ------------
 Symbolic Z-matrix:
 Charge =  0 Multiplicity = 1

                         Standard orientation:
 ---------------------------------------------------------------------
 Center     Atomic      Atomic             Coordinates (Angstroms)
 Number     Number       Type             X           Y           Z
 ---------------------------------------------------------------------
      1          6           0       -1.181907    0.015844    0.006879
      2          6           0        0.278379   -0.005505    0.034073
      3          7           0        1.440283    0.005493   -0.021011
      4          1           0       -1.505125   -0.382537    0.952566
      5          1           0       -1.541348   -0.743683   -0.816044
      6          1           0       -1.614339    1.025726   -0.235158
 ---------------------------------------------------------------------

 SCF Done:  E(RB2PLYPD3) =  -132.527681874     A.U. after   12 cycles
 E2(B2PLYPD3) =    -0.1818307692D+00 E(B2PLYPD3) =    -0.13270951264357D+03

 The electronic state is 1-A.
 Alpha  occ. eigenvalues --  -14.84451 -10.68279 -10.66552  -1.03764  -0.88528
 Alpha  occ. eigenvalues --   -0.59106  -0.54441  -0.52003  -0.44808  -0.38940
 Alpha  occ. eigenvalues --   -0.38553
 Alpha virt. eigenvalues --    0.03397   0.06825   0.07956   0.10107   0.11179
 Alpha virt. eigenvalues --    0.11670   0.15257   0.15558   0.16844   0.20052
 Alpha virt. eigenvalues --    0.20195   0.25318   0.32065   0.33074   0.34811

 Mulliken charges:
               1
     1  C   -0.100861
     2  C    0.002756
     3  N   -0.209284
     4  H    0.105514
     5  H    0.095812
     6  H    0.106064
 Sum of Mulliken charges =   0.00000

 Dipole moment (field-independent basis, Debye):
    X=             -4.1186    Y=             -0.0239    Z=              0.0379  Tot=              4.1189
 Quadrupole moment (field-independent basis, Debye-Ang):
   XX=            -21.1872   YY=            -17.7258   ZZ=            -17.8775
   XY=             -0.0559   XZ=              0.1426   YZ=             -0.0934

 Normal termination of Gaussian 09 at Wed Aug 26 14:30:28 2020.
