 Gaussian 09, Revision D.01,
 Gaussian 09:  ES64L-G09RevD.01 24-Apr-2013

 --------------------
 #p B2PLYPD3/Def2QZVP
 --------------------

 ------------
 cyanomethane
 ------------
 Symbolic Z-matrix:
 Charge =  0 Multiplicity = 1

                         Standard orientation:
 ---------------------------------------------------------------------
 Center     Atomic      Atomic             Coordinates (Angstroms)
 Number     Number       Type             X           Y           Z
 ---------------------------------------------------------------------
      1          6           0       -1.174917    0.011595   -0.000608
      2          6           0        0.274656    0.017137   -0.007413
      3          7           0        1.430280   -0.013628    0.004403
      4          1           0       -1.490568    1.008143   -0.122938
      5          1           0       -1.560276   -0.427463    0.944319
      6          1           0       -1.559548   -0.657679   -0.804078
 ---------------------------------------------------------------------

 SCF Done:  E(RB2PLYPD3) =  -132.533174980     A.U. after   11 cycles
 E2(B2PLYPD3) =    -0.1806605938D+00 E(B2PLYPD3) =    -0.13271383557372D+03

 The electronic state is 1-A.
 Alpha  occ. eigenvalues --  -14.84171 -10.67149 -10.66200  -1.04042  -0.89388
 Alpha  occ. eigenvalues --   -0.59518  -0.55283  -0.52849  -0.44748  -0.39080
 Alpha  occ. eigenvalues --   -0.38791
 Alpha virt. eigenvalues --    0.03708   0.07434   0.08305   0.10158   0.11246
 Alpha virt. eigenvalues --    0.11703   0.15390   0.16139   0.16337   0.20035
 Alpha virt. eigenvalues --    0.20181   0.25468   0.32737   0.33914   0.35105

 Mulliken charges:
               1
     1  C   -0.088370
     2  C   -0.001727
     3  N   -0.207432
     4  H    0.104863
     5  H    0.096230
     6  H    0.096436
 Sum of Mulliken charges =   0.00000

 Dipole moment (field-independent basis, Debye):
    X=             -4.1185    Y=              0.0064    Z=             -0.0013  Tot=              4.1185
 Quadrupole moment (field-independent basis, Debye-Ang):
   XX=            -21.1012   YY=            -17.6008   ZZ=            -17.8512
   XY=              0.1713   XZ=             -0.0451   YZ=             -0.0170

 Normal termination of Gaussian 09 at Thu Aug 27 00:11:42 2020.
