 Gaussian 09, Revision D.01,
 Gaussian 09:  ES64L-G09RevD.01 24-Apr-2013

 --------------------
 #p B2PLYPD3/Def2QZVP
 --------------------

 ------------
 cyanomethane
 ------------
 Symbolic Z-matrix:
 Charge =  0 Multiplicity = 1

                         Standard orientation:
 ---------------------------------------------------------------------
 Center     Atomic      Atomic             Coordinates (Angstroms)
 Number     Number       Type             X           Y           Z
 ---------------------------------------------------------------------
      1          6           0        1.170913   -0.001009    0.008496
      2          6           0       -0.280026   -0.016241   -0.009680
      3          7           0       -1.432682    0.009603    0.003801
      4          1           0        1.574546    1.015556   -0.180160
      5          1           0        1.556747   -0.642840   -0.769779
      6          1           0        1.552162   -0.336432    0.930436
 ---------------------------------------------------------------------

 SCF Done:  E(RB2PLYPD3) =  -132.534685580     A.U. after   11 cycles
 E2(B2PLYPD3) =    -0.1802566726D+00 E(B2PLYPD3) =    -0.13271494225257D+03

 The electronic state is 1-A.
 Alpha  occ. eigenvalues --  -14.84202 -10.66756 -10.66240  -1.04230  -0.89482
 Alpha  occ. eigenvalues --   -0.60314  -0.54413  -0.53423  -0.44854  -0.39192
 Alpha  occ. eigenvalues --   -0.39056
 Alpha virt. eigenvalues --    0.03780   0.07723   0.08174   0.10165   0.11432
 Alpha virt. eigenvalues --    0.11574   0.15520   0.16290   0.16744   0.20063
 Alpha virt. eigenvalues --    0.20107   0.25497   0.32867   0.34432   0.35148

 Mulliken charges:
               1
     1  C   -0.074328
     2  C   -0.000261
     3  N   -0.205227
     4  H    0.091835
     5  H    0.092380
     6  H    0.095601
 Sum of Mulliken charges =   0.00000

 Dipole moment (field-independent basis, Debye):
    X=              4.1308    Y=             -0.0239    Z=             -0.0036  Tot=              4.1309
 Quadrupole moment (field-independent basis, Debye-Ang):
   XX=            -20.8552   YY=            -17.7618   ZZ=            -17.7730
   XY=              0.0487   XZ=              0.0172   YZ=             -0.0112

 Normal termination of Gaussian 09 at Thu Aug 27 00:03:51 2020.
