 Gaussian 09, Revision D.01,
 Gaussian 09:  ES64L-G09RevD.01 24-Apr-2013

 --------------------
 #p B2PLYPD3/Def2QZVP
 --------------------

 ------------
 cyanomethane
 ------------
 Symbolic Z-matrix:
 Charge =  0 Multiplicity = 1

                         Standard orientation:
 ---------------------------------------------------------------------
 Center     Atomic      Atomic             Coordinates (Angstroms)
 Number     Number       Type             X           Y           Z
 ---------------------------------------------------------------------
      1          6           0        1.179452    0.018478   -0.001477
      2          6           0       -0.290748   -0.022561    0.006247
      3          7           0       -1.438497    0.009272   -0.004912
      4          1           0        1.574954    0.995172   -0.168817
      5          1           0        1.603373   -0.668591   -0.773849
      6          1           0        1.558930   -0.366984    0.948428
 ---------------------------------------------------------------------

 SCF Done:  E(RB2PLYPD3) =  -132.534438217     A.U. after   12 cycles
 E2(B2PLYPD3) =    -0.1800473615D+00 E(B2PLYPD3) =    -0.13271448557840D+03

 The electronic state is 1-A.
 Alpha  occ. eigenvalues --  -14.84146 -10.67304 -10.66256  -1.04413  -0.88817
 Alpha  occ. eigenvalues --   -0.59984  -0.54171  -0.52701  -0.44864  -0.39445
 Alpha  occ. eigenvalues --   -0.39199
 Alpha virt. eigenvalues --    0.03721   0.07775   0.08069   0.10180   0.11398
 Alpha virt. eigenvalues --    0.11620   0.15373   0.16198   0.17070   0.20019
 Alpha virt. eigenvalues --    0.20070   0.25184   0.32583   0.34174   0.35183

 Mulliken charges:
               1
     1  C   -0.077790
     2  C   -0.000289
     3  N   -0.201779
     4  H    0.098391
     5  H    0.089525
     6  H    0.091941
 Sum of Mulliken charges =   0.00000

 Dipole moment (field-independent basis, Debye):
    X=              4.1293    Y=             -0.0228    Z=              0.0167  Tot=              4.1294
 Quadrupole moment (field-independent basis, Debye-Ang):
   XX=            -20.8296   YY=            -17.7300   ZZ=            -17.8782
   XY=              0.0134   XZ=             -0.0366   YZ=             -0.0343

 Normal termination of Gaussian 09 at Wed Aug 26 12:21:52 2020.
