 Gaussian 09, Revision D.01,
 Gaussian 09:  ES64L-G09RevD.01 24-Apr-2013

 --------------------
 #p B2PLYPD3/Def2QZVP
 --------------------

 ------------
 cyanomethane
 ------------
 Symbolic Z-matrix:
 Charge =  0 Multiplicity = 1

                         Standard orientation:
 ---------------------------------------------------------------------
 Center     Atomic      Atomic             Coordinates (Angstroms)
 Number     Number       Type             X           Y           Z
 ---------------------------------------------------------------------
      1          6           0        1.178559    0.007723   -0.027513
      2          6           0       -0.287021   -0.053231   -0.001822
      3          7           0       -1.416093    0.017656    0.010185
      4          1           0        1.614238    0.076884    0.951562
      5          1           0        1.365258    0.961844   -0.446649
      6          1           0        1.583927   -0.889269   -0.400195
 ---------------------------------------------------------------------

 SCF Done:  E(RB2PLYPD3) =  -132.527902447     A.U. after   12 cycles
 E2(B2PLYPD3) =    -0.1784393336D+00 E(B2PLYPD3) =    -0.13270634178085D+03

 The electronic state is 1-A.
 Alpha  occ. eigenvalues --  -14.83394 -10.66317 -10.65447  -1.04976  -0.89784
 Alpha  occ. eigenvalues --   -0.59767  -0.56772  -0.52058  -0.44565  -0.39876
 Alpha  occ. eigenvalues --   -0.39295
 Alpha virt. eigenvalues --    0.03845   0.08201   0.08978   0.10336   0.11376
 Alpha virt. eigenvalues --    0.12064   0.15066   0.16431   0.16725   0.19824
 Alpha virt. eigenvalues --    0.20136   0.25339   0.33072   0.33713   0.36218

 Mulliken charges:
               1
     1  C   -0.078397
     2  C   -0.006715
     3  N   -0.195933
     4  H    0.080085
     5  H    0.102933
     6  H    0.098028
 Sum of Mulliken charges =   0.00000

 Dipole moment (field-independent basis, Debye):
    X=              4.1012    Y=             -0.0142    Z=              0.0611  Tot=              4.1017
 Quadrupole moment (field-independent basis, Debye-Ang):
   XX=            -20.9737   YY=            -17.2265   ZZ=            -18.0545
   XY=             -0.0478   XZ=              0.3556   YZ=             -0.0082

 Normal termination of Gaussian 09 at Wed Aug 26 22:39:31 2020.
