 Gaussian 09, Revision D.01,
 Gaussian 09:  ES64L-G09RevD.01 24-Apr-2013

 --------------------
 #p B2PLYPD3/Def2QZVP
 --------------------

 ------------
 cyanomethane
 ------------
 Symbolic Z-matrix:
 Charge =  0 Multiplicity = 1

                         Standard orientation:
 ---------------------------------------------------------------------
 Center     Atomic      Atomic             Coordinates (Angstroms)
 Number     Number       Type             X           Y           Z
 ---------------------------------------------------------------------
      1          6           0       -1.175175    0.006221   -0.001579
      2          6           0        0.277470    0.013186    0.011528
      3          7           0        1.429791   -0.008211   -0.008339
      4          1           0       -1.572144   -0.667032   -0.792623
      5          1           0       -1.537507    0.997246   -0.160181
      6          1           0       -1.512661   -0.389180    0.951482
 ---------------------------------------------------------------------

 SCF Done:  E(RB2PLYPD3) =  -132.534992310     A.U. after   12 cycles
 E2(B2PLYPD3) =    -0.1802873273D+00 E(B2PLYPD3) =    -0.13271527963749D+03

 The electronic state is 1-A.
 Alpha  occ. eigenvalues --  -14.84093 -10.67032 -10.66130  -1.04179  -0.89367
 Alpha  occ. eigenvalues --   -0.59618  -0.54763  -0.53358  -0.44750  -0.39150
 Alpha  occ. eigenvalues --   -0.38969
 Alpha virt. eigenvalues --    0.03750   0.07707   0.08267   0.10173   0.11367
 Alpha virt. eigenvalues --    0.11623   0.15438   0.16027   0.16550   0.20056
 Alpha virt. eigenvalues --    0.20130   0.25434   0.32817   0.34241   0.34994

 Mulliken charges:
               1
     1  C   -0.086136
     2  C   -0.002189
     3  N   -0.205628
     4  H    0.095382
     5  H    0.100658
     6  H    0.097913
 Sum of Mulliken charges =   0.00000

 Dipole moment (field-independent basis, Debye):
    X=             -4.1186    Y=              0.0054    Z=              0.0189  Tot=              4.1186
 Quadrupole moment (field-independent basis, Debye-Ang):
   XX=            -21.0505   YY=            -17.6716   ZZ=            -17.7723
   XY=              0.0748   XZ=              0.0749   YZ=             -0.0341

 Normal termination of Gaussian 09 at Wed Aug 26 23:57:11 2020.
