 Gaussian 09, Revision D.01,
 Gaussian 09:  ES64L-G09RevD.01 24-Apr-2013

 --------------------
 #p B2PLYPD3/Def2QZVP
 --------------------

 ------------
 cyanomethane
 ------------
 Symbolic Z-matrix:
 Charge =  0 Multiplicity = 1

                         Standard orientation:
 ---------------------------------------------------------------------
 Center     Atomic      Atomic             Coordinates (Angstroms)
 Number     Number       Type             X           Y           Z
 ---------------------------------------------------------------------
      1          6           0       -1.177634    0.019043   -0.001343
      2          6           0        0.267344   -0.033120    0.011835
      3          7           0        1.431968    0.011799   -0.007120
      4          1           0       -1.510383   -0.103102    1.008199
      5          1           0       -1.566833   -0.847964   -0.599858
      6          1           0       -1.484817    0.952935   -0.421453
 ---------------------------------------------------------------------

 SCF Done:  E(RB2PLYPD3) =  -132.532647352     A.U. after   12 cycles
 E2(B2PLYPD3) =    -0.1814120224D+00 E(B2PLYPD3) =    -0.13271405937466D+03

 The electronic state is 1-A.
 Alpha  occ. eigenvalues --  -14.84374 -10.67016 -10.66402  -1.03649  -0.89637
 Alpha  occ. eigenvalues --   -0.59383  -0.55199  -0.53616  -0.44725  -0.38767
 Alpha  occ. eigenvalues --   -0.38580
 Alpha virt. eigenvalues --    0.03739   0.07548   0.08030   0.10119   0.11286
 Alpha virt. eigenvalues --    0.11447   0.15382   0.15727   0.16316   0.20128
 Alpha virt. eigenvalues --    0.20188   0.25601   0.32565   0.34147   0.35011

 Mulliken charges:
               1
     1  C   -0.091329
     2  C   -0.000219
     3  N   -0.213025
     4  H    0.101221
     5  H    0.096824
     6  H    0.106529
 Sum of Mulliken charges =   0.00000

 Dipole moment (field-independent basis, Debye):
    X=             -4.1244    Y=             -0.0161    Z=              0.0235  Tot=              4.1245
 Quadrupole moment (field-independent basis, Debye-Ang):
   XX=            -21.2035   YY=            -17.6566   ZZ=            -17.7730
   XY=              0.0090   XZ=              0.0221   YZ=             -0.0535

 Normal termination of Gaussian 09 at Wed Aug 26 14:34:07 2020.
