 Gaussian 09, Revision D.01,
 Gaussian 09:  ES64L-G09RevD.01 24-Apr-2013

 --------------------
 #p B2PLYPD3/Def2QZVP
 --------------------

 ------------
 cyanomethane
 ------------
 Symbolic Z-matrix:
 Charge =  0 Multiplicity = 1

                         Standard orientation:
 ---------------------------------------------------------------------
 Center     Atomic      Atomic             Coordinates (Angstroms)
 Number     Number       Type             X           Y           Z
 ---------------------------------------------------------------------
      1          6           0        1.157247   -0.012737    0.010127
      2          6           0       -0.276453   -0.028521    0.002591
      3          7           0       -1.427727    0.024061   -0.006089
      4          1           0        1.683024    0.970153   -0.409283
      5          1           0        1.517201   -0.806319   -0.597455
      6          1           0        1.509098   -0.084712    0.973048
 ---------------------------------------------------------------------

 SCF Done:  E(RB2PLYPD3) =  -132.525241019     A.U. after   12 cycles
 E2(B2PLYPD3) =    -0.1805521155D+00 E(B2PLYPD3) =    -0.13270579313416D+03

 The electronic state is 1-A.
 Alpha  occ. eigenvalues --  -14.84244 -10.66880 -10.66203  -1.04353  -0.89696
 Alpha  occ. eigenvalues --   -0.60650  -0.55584  -0.51724  -0.44938  -0.39268
 Alpha  occ. eigenvalues --   -0.38791
 Alpha virt. eigenvalues --    0.03428   0.06918   0.08505   0.10118   0.11345
 Alpha virt. eigenvalues --    0.11894   0.15634   0.16132   0.17140   0.19998
 Alpha virt. eigenvalues --    0.20223   0.25818   0.32157   0.33952   0.35522

 Mulliken charges:
               1
     1  C   -0.075952
     2  C    0.001567
     3  N   -0.204252
     4  H    0.083648
     5  H    0.096675
     6  H    0.098313
 Sum of Mulliken charges =   0.00000

 Dipole moment (field-independent basis, Debye):
    X=              4.1114    Y=             -0.0648    Z=              0.0356  Tot=              4.1120
 Quadrupole moment (field-independent basis, Debye-Ang):
   XX=            -20.7962   YY=            -17.8194   ZZ=            -17.7778
   XY=              0.2085   XZ=             -0.0381   YZ=              0.0940

 Normal termination of Gaussian 09 at Wed Aug 26 12:08:58 2020.
