 Gaussian 09, Revision D.01,
 Gaussian 09:  ES64L-G09RevD.01 24-Apr-2013

 --------------------
 #p B2PLYPD3/Def2QZVP
 --------------------

 ------------
 cyanomethane
 ------------
 Symbolic Z-matrix:
 Charge =  0 Multiplicity = 1

                         Standard orientation:
 ---------------------------------------------------------------------
 Center     Atomic      Atomic             Coordinates (Angstroms)
 Number     Number       Type             X           Y           Z
 ---------------------------------------------------------------------
      1          6           0        1.169094    0.015533   -0.001477
      2          6           0       -0.275071   -0.008095   -0.009341
      3          7           0       -1.432805    0.000969    0.003009
      4          1           0        1.536136    1.003360   -0.063760
      5          1           0        1.590424   -0.595796   -0.826061
      6          1           0        1.538935   -0.458971    0.933666
 ---------------------------------------------------------------------

 SCF Done:  E(RB2PLYPD3) =  -132.533895301     A.U. after   11 cycles
 E2(B2PLYPD3) =    -0.1808131039D+00 E(B2PLYPD3) =    -0.13271470840502D+03

 The electronic state is 1-A.
 Alpha  occ. eigenvalues --  -14.84298 -10.67077 -10.66329  -1.04034  -0.89394
 Alpha  occ. eigenvalues --   -0.60146  -0.54678  -0.52977  -0.44846  -0.39058
 Alpha  occ. eigenvalues --   -0.38789
 Alpha virt. eigenvalues --    0.03741   0.07492   0.07926   0.10144   0.11365
 Alpha virt. eigenvalues --    0.11657   0.15494   0.16184   0.16632   0.20075
 Alpha virt. eigenvalues --    0.20148   0.25589   0.32736   0.33994   0.35154

 Mulliken charges:
               1
     1  C   -0.080525
     2  C    0.000458
     3  N   -0.207709
     4  H    0.100847
     5  H    0.093270
     6  H    0.093660
 Sum of Mulliken charges =   0.00000

 Dipole moment (field-independent basis, Debye):
    X=              4.1303    Y=             -0.0066    Z=              0.0026  Tot=              4.1303
 Quadrupole moment (field-independent basis, Debye-Ang):
   XX=            -20.9548   YY=            -17.7016   ZZ=            -17.8449
   XY=             -0.0407   XZ=             -0.0015   YZ=             -0.0069

 Normal termination of Gaussian 09 at Thu Aug 27 00:06:29 2020.
