 Gaussian 09, Revision D.01,
 Gaussian 09:  ES64L-G09RevD.01 24-Apr-2013

 --------------------
 #p B2PLYPD3/Def2QZVP
 --------------------

 ------------
 cyanomethane
 ------------
 Symbolic Z-matrix:
 Charge =  0 Multiplicity = 1

                         Standard orientation:
 ---------------------------------------------------------------------
 Center     Atomic      Atomic             Coordinates (Angstroms)
 Number     Number       Type             X           Y           Z
 ---------------------------------------------------------------------
      1          6           0        1.188526   -0.010335   -0.018169
      2          6           0       -0.298675   -0.043844    0.033325
      3          7           0       -1.442604    0.028002   -0.027152
      4          1           0        1.710365    0.943317   -0.497271
      5          1           0        1.620992   -0.895059   -0.444587
      6          1           0        1.427764    0.080803    1.040986
 ---------------------------------------------------------------------

 SCF Done:  E(RB2PLYPD3) =  -132.523505133     A.U. after   12 cycles
 E2(B2PLYPD3) =    -0.1806930014D+00 E(B2PLYPD3) =    -0.13270419813435D+03

 The electronic state is 1-A.
 Alpha  occ. eigenvalues --  -14.84200 -10.68180 -10.66383  -1.04452  -0.88172
 Alpha  occ. eigenvalues --   -0.59342  -0.54291  -0.51259  -0.44873  -0.39561
 Alpha  occ. eigenvalues --   -0.39027
 Alpha virt. eigenvalues --    0.03203   0.06965   0.08599   0.10131   0.11201
 Alpha virt. eigenvalues --    0.11709   0.15175   0.15395   0.17960   0.19975
 Alpha virt. eigenvalues --    0.20356   0.25083   0.31789   0.33357   0.35019

 Mulliken charges:
               1
     1  C   -0.095376
     2  C    0.003258
     3  N   -0.200007
     4  H    0.092124
     5  H    0.102957
     6  H    0.097044
 Sum of Mulliken charges =   0.00000

 Dipole moment (field-independent basis, Debye):
    X=              4.1134    Y=             -0.0463    Z=              0.0994  Tot=              4.1148
 Quadrupole moment (field-independent basis, Debye-Ang):
   XX=            -20.8782   YY=            -17.7547   ZZ=            -17.9601
   XY=              0.2187   XZ=             -0.2188   YZ=              0.1177

 Normal termination of Gaussian 09 at Wed Aug 26 22:33:26 2020.
