 Gaussian 09, Revision D.01,
 Gaussian 09:  ES64L-G09RevD.01 24-Apr-2013

 --------------------
 #p B2PLYPD3/Def2QZVP
 --------------------

 ------------
 cyanomethane
 ------------
 Symbolic Z-matrix:
 Charge =  0 Multiplicity = 1

                         Standard orientation:
 ---------------------------------------------------------------------
 Center     Atomic      Atomic             Coordinates (Angstroms)
 Number     Number       Type             X           Y           Z
 ---------------------------------------------------------------------
      1          6           0        1.181721    0.003745   -0.000838
      2          6           0       -0.283879   -0.020763    0.005100
      3          7           0       -1.436236    0.013699   -0.005545
      4          1           0        1.610843    0.951700   -0.397133
      5          1           0        1.545584   -0.830031   -0.596876
      6          1           0        1.510171   -0.115451    1.007250
 ---------------------------------------------------------------------

 SCF Done:  E(RB2PLYPD3) =  -132.534513694     A.U. after   12 cycles
 E2(B2PLYPD3) =    -0.1803607960D+00 E(B2PLYPD3) =    -0.13271487448957D+03

 The electronic state is 1-A.
 Alpha  occ. eigenvalues --  -14.84174 -10.67192 -10.66259  -1.04174  -0.89089
 Alpha  occ. eigenvalues --   -0.59582  -0.54248  -0.53418  -0.44787  -0.39153
 Alpha  occ. eigenvalues --   -0.39131
 Alpha virt. eigenvalues --    0.03713   0.07640   0.08333   0.10183   0.11394
 Alpha virt. eigenvalues --    0.11482   0.15369   0.15896   0.16870   0.20066
 Alpha virt. eigenvalues --    0.20104   0.25233   0.32638   0.34560   0.34737

 Mulliken charges:
               1
     1  C   -0.084524
     2  C   -0.001705
     3  N   -0.204989
     4  H    0.096055
     5  H    0.097140
     6  H    0.098022
 Sum of Mulliken charges =   0.00000

 Dipole moment (field-independent basis, Debye):
    X=              4.1279    Y=             -0.0292    Z=              0.0246  Tot=              4.1281
 Quadrupole moment (field-independent basis, Debye-Ang):
   XX=            -20.9776   YY=            -17.7303   ZZ=            -17.7886
   XY=              0.1096   XZ=             -0.0434   YZ=              0.0132

 Normal termination of Gaussian 09 at Thu Aug 27 00:09:35 2020.
