 Gaussian 09, Revision D.01,
 Gaussian 09:  ES64L-G09RevD.01 24-Apr-2013

 --------------------
 #p B2PLYPD3/Def2QZVP
 --------------------

 ------------
 cyanomethane
 ------------
 Symbolic Z-matrix:
 Charge =  0 Multiplicity = 1

                         Standard orientation:
 ---------------------------------------------------------------------
 Center     Atomic      Atomic             Coordinates (Angstroms)
 Number     Number       Type             X           Y           Z
 ---------------------------------------------------------------------
      1          6           0       -1.177049   -0.000355   -0.012482
      2          6           0        0.278988    0.010153   -0.002003
      3          7           0        1.439979   -0.006530    0.000890
      4          1           0       -1.549149    1.037467   -0.058072
      5          1           0       -1.551778   -0.449862    0.952961
      6          1           0       -1.590558   -0.600684   -0.814213
 ---------------------------------------------------------------------

 SCF Done:  E(RB2PLYPD3) =  -132.533389911     A.U. after   12 cycles
 E2(B2PLYPD3) =    -0.1812836758D+00 E(B2PLYPD3) =    -0.13271467358719D+03

 The electronic state is 1-A.
 Alpha  occ. eigenvalues --  -14.84428 -10.67618 -10.66518  -1.03882  -0.88892
 Alpha  occ. eigenvalues --   -0.59840  -0.54119  -0.52804  -0.44859  -0.38996
 Alpha  occ. eigenvalues --   -0.38757
 Alpha virt. eigenvalues --    0.03653   0.07410   0.07690   0.10144   0.11307
 Alpha virt. eigenvalues --    0.11588   0.15366   0.16060   0.16705   0.20076
 Alpha virt. eigenvalues --    0.20155   0.25363   0.32498   0.33804   0.34896

 Mulliken charges:
               1
     1  C   -0.086184
     2  C    0.001432
     3  N   -0.208458
     4  H    0.099074
     5  H    0.093905
     6  H    0.100230
 Sum of Mulliken charges =   0.00000

 Dipole moment (field-independent basis, Debye):
    X=             -4.1355    Y=              0.0017    Z=              0.0075  Tot=              4.1355
 Quadrupole moment (field-independent basis, Debye-Ang):
   XX=            -20.9986   YY=            -17.7441   ZZ=            -17.8755
   XY=              0.0772   XZ=             -0.0059   YZ=              0.0441

 Normal termination of Gaussian 09 at Wed Aug 26 09:32:32 2020.
