 Gaussian 09, Revision D.01,
 Gaussian 09:  ES64L-G09RevD.01 24-Apr-2013

 --------------------
 #p B2PLYPD3/Def2QZVP
 --------------------

 ------------
 cyanomethane
 ------------
 Symbolic Z-matrix:
 Charge =  0 Multiplicity = 1

                         Standard orientation:
 ---------------------------------------------------------------------
 Center     Atomic      Atomic             Coordinates (Angstroms)
 Number     Number       Type             X           Y           Z
 ---------------------------------------------------------------------
      1          6           0        1.188618    0.026757   -0.007179
      2          6           0       -0.289439   -0.039183    0.006947
      3          7           0       -1.439403    0.019607   -0.005957
      4          1           0        1.593889    1.000370   -0.281177
      5          1           0        1.571843   -0.796216   -0.701609
      6          1           0        1.515014   -0.266842    1.025880
 ---------------------------------------------------------------------

 SCF Done:  E(RB2PLYPD3) =  -132.530986875     A.U. after   12 cycles
 E2(B2PLYPD3) =    -0.1807301752D+00 E(B2PLYPD3) =    -0.13271171704999D+03

 The electronic state is 1-A.
 Alpha  occ. eigenvalues --  -14.84155 -10.68233 -10.66293  -1.04204  -0.88195
 Alpha  occ. eigenvalues --   -0.59041  -0.53817  -0.52431  -0.44762  -0.39292
 Alpha  occ. eigenvalues --   -0.38973
 Alpha virt. eigenvalues --    0.03540   0.07531   0.07862   0.10103   0.11363
 Alpha virt. eigenvalues --    0.11603   0.15197   0.15523   0.17119   0.20035
 Alpha virt. eigenvalues --    0.20100   0.25129   0.32213   0.33407   0.34792

 Mulliken charges:
               1
     1  C   -0.099343
     2  C    0.000647
     3  N   -0.203466
     4  H    0.107351
     5  H    0.096678
     6  H    0.098133
 Sum of Mulliken charges =   0.00000

 Dipole moment (field-independent basis, Debye):
    X=              4.1102    Y=             -0.0374    Z=              0.0253  Tot=              4.1104
 Quadrupole moment (field-independent basis, Debye-Ang):
   XX=            -21.1331   YY=            -17.6746   ZZ=            -17.8887
   XY=              0.1102   XZ=             -0.0455   YZ=             -0.0420

 Normal termination of Gaussian 09 at Wed Aug 26 13:33:01 2020.
