 Gaussian 09, Revision D.01,
 Gaussian 09:  ES64L-G09RevD.01 24-Apr-2013

 --------------------
 #p B2PLYPD3/Def2QZVP
 --------------------

 ------------
 cyanomethane
 ------------
 Symbolic Z-matrix:
 Charge =  0 Multiplicity = 1

                         Standard orientation:
 ---------------------------------------------------------------------
 Center     Atomic      Atomic             Coordinates (Angstroms)
 Number     Number       Type             X           Y           Z
 ---------------------------------------------------------------------
      1          6           0       -1.184096   -0.013191    0.014894
      2          6           0        0.265813    0.000258    0.027986
      3          7           0        1.431851    0.001394   -0.027379
      4          1           0       -1.347015   -0.254904    0.916680
      5          1           0       -1.617094   -0.713937   -0.715978
      6          1           0       -1.549143    1.036679   -0.266326
 ---------------------------------------------------------------------

 SCF Done:  E(RB2PLYPD3) =  -132.511512609     A.U. after   12 cycles
 E2(B2PLYPD3) =    -0.1815551311D+00 E(B2PLYPD3) =    -0.13269306774008D+03

 The electronic state is 1-A.
 Alpha  occ. eigenvalues --  -14.84413 -10.66459 -10.66320  -1.03623  -0.90679
 Alpha  occ. eigenvalues --   -0.59216  -0.57303  -0.52834  -0.44693  -0.38821
 Alpha  occ. eigenvalues --   -0.38506
 Alpha virt. eigenvalues --    0.03635   0.06944   0.09248   0.10134   0.10954
 Alpha virt. eigenvalues --    0.11541   0.15108   0.15468   0.16791   0.20130
 Alpha virt. eigenvalues --    0.20261   0.25440   0.32222   0.33716   0.35611

 Mulliken charges:
               1
     1  C   -0.105892
     2  C   -0.000550
     3  N   -0.214533
     4  H    0.122144
     5  H    0.099966
     6  H    0.098864
 Sum of Mulliken charges =   0.00000

 Dipole moment (field-independent basis, Debye):
    X=             -4.1199    Y=             -0.0123    Z=              0.0405  Tot=              4.1201
 Quadrupole moment (field-independent basis, Debye-Ang):
   XX=            -21.1734   YY=            -17.6810   ZZ=            -17.6978
   XY=              0.0134   XZ=              0.3313   YZ=             -0.0539

 Normal termination of Gaussian 09 at Wed Aug 26 19:28:55 2020.
