 Gaussian 09, Revision D.01,
 Gaussian 09:  ES64L-G09RevD.01 24-Apr-2013

 --------------------
 #p B2PLYPD3/Def2QZVP
 --------------------

 ------------
 cyanomethane
 ------------
 Symbolic Z-matrix:
 Charge =  0 Multiplicity = 1

                         Standard orientation:
 ---------------------------------------------------------------------
 Center     Atomic      Atomic             Coordinates (Angstroms)
 Number     Number       Type             X           Y           Z
 ---------------------------------------------------------------------
      1          6           0       -1.166131    0.015409   -0.003022
      2          6           0        0.270509    0.030191   -0.011684
      3          7           0        1.434420   -0.022495    0.007237
      4          1           0       -1.492566    1.062672   -0.008199
      5          1           0       -1.595305   -0.567688    0.926248
      6          1           0       -1.579343   -0.611114   -0.880472
 ---------------------------------------------------------------------

 SCF Done:  E(RB2PLYPD3) =  -132.524538178     A.U. after   12 cycles
 E2(B2PLYPD3) =    -0.1822918307D+00 E(B2PLYPD3) =    -0.13270683000865D+03

 The electronic state is 1-A.
 Alpha  occ. eigenvalues --  -14.84502 -10.68535 -10.66515  -1.03754  -0.88611
 Alpha  occ. eigenvalues --   -0.59321  -0.54575  -0.51345  -0.44866  -0.38775
 Alpha  occ. eigenvalues --   -0.38306
 Alpha virt. eigenvalues --    0.03330   0.06303   0.07581   0.10063   0.11211
 Alpha virt. eigenvalues --    0.11929   0.15265   0.16199   0.16335   0.19999
 Alpha virt. eigenvalues --    0.20264   0.25670   0.32242   0.32782   0.34473

 Mulliken charges:
               1
     1  C   -0.100545
     2  C    0.003768
     3  N   -0.209674
     4  H    0.110145
     5  H    0.096493
     6  H    0.099814
 Sum of Mulliken charges =   0.00000

 Dipole moment (field-independent basis, Debye):
    X=             -4.1051    Y=              0.0060    Z=             -0.0098  Tot=              4.1051
 Quadrupole moment (field-independent basis, Debye-Ang):
   XX=            -21.2098   YY=            -17.5824   ZZ=            -18.0483
   XY=              0.2814   XZ=             -0.0579   YZ=              0.0257

 Normal termination of Gaussian 09 at Wed Aug 26 13:39:06 2020.
