 Gaussian 09, Revision D.01,
 Gaussian 09:  ES64L-G09RevD.01 24-Apr-2013

 --------------------
 #p B2PLYPD3/Def2QZVP
 --------------------

 ------------
 cyanomethane
 ------------
 Symbolic Z-matrix:
 Charge =  0 Multiplicity = 1

                         Standard orientation:
 ---------------------------------------------------------------------
 Center     Atomic      Atomic             Coordinates (Angstroms)
 Number     Number       Type             X           Y           Z
 ---------------------------------------------------------------------
      1          6           0        1.186175   -0.009150    0.000155
      2          6           0       -0.275806    0.029968    0.010692
      3          7           0       -1.440780   -0.015520   -0.004615
      4          1           0        1.529480    0.997120   -0.046689
      5          1           0        1.535150   -0.536829   -0.842441
      6          1           0        1.558612   -0.476564    0.856354
 ---------------------------------------------------------------------

 SCF Done:  E(RB2PLYPD3) =  -132.532308511     A.U. after   11 cycles
 E2(B2PLYPD3) =    -0.1810468242D+00 E(B2PLYPD3) =    -0.13271335533520D+03

 The electronic state is 1-A.
 Alpha  occ. eigenvalues --  -14.84506 -10.66585 -10.66126  -1.03655  -0.90007
 Alpha  occ. eigenvalues --   -0.60132  -0.54869  -0.54618  -0.44810  -0.38914
 Alpha  occ. eigenvalues --   -0.38851
 Alpha virt. eigenvalues --    0.03888   0.08009   0.08235   0.10149   0.11177
 Alpha virt. eigenvalues --    0.11298   0.15428   0.15992   0.16581   0.20114
 Alpha virt. eigenvalues --    0.20180   0.25298   0.32777   0.34988   0.35319

 Mulliken charges:
               1
     1  C   -0.070860
     2  C   -0.000201
     3  N   -0.212418
     4  H    0.094208
     5  H    0.094562
     6  H    0.094708
 Sum of Mulliken charges =   0.00000

 Dipole moment (field-independent basis, Debye):
    X=              4.1563    Y=              0.0147    Z=              0.0030  Tot=              4.1564
 Quadrupole moment (field-independent basis, Debye-Ang):
   XX=            -20.9116   YY=            -17.7120   ZZ=            -17.7870
   XY=             -0.1102   XZ=             -0.0147   YZ=             -0.0095

 Normal termination of Gaussian 09 at Wed Aug 26 14:07:59 2020.
