 Gaussian 09, Revision D.01,
 Gaussian 09:  ES64L-G09RevD.01 24-Apr-2013

 --------------------
 #p B2PLYPD3/Def2QZVP
 --------------------

 ------------
 cyanomethane
 ------------
 Symbolic Z-matrix:
 Charge =  0 Multiplicity = 1

                         Standard orientation:
 ---------------------------------------------------------------------
 Center     Atomic      Atomic             Coordinates (Angstroms)
 Number     Number       Type             X           Y           Z
 ---------------------------------------------------------------------
      1          6           0       -1.181155   -0.020366    0.003244
      2          6           0        0.283354    0.024599   -0.004518
      3          7           0        1.422326   -0.011982    0.002602
      4          1           0       -1.531289   -0.016761    0.985441
      5          1           0       -1.531157   -0.864581   -0.528633
      6          1           0       -1.507031    0.939819   -0.467374
 ---------------------------------------------------------------------

 SCF Done:  E(RB2PLYPD3) =  -132.533420638     A.U. after   11 cycles
 E2(B2PLYPD3) =    -0.1790020682D+00 E(B2PLYPD3) =    -0.13271242270607D+03

 The electronic state is 1-A.
 Alpha  occ. eigenvalues --  -14.83655 -10.66645 -10.65696  -1.04639  -0.89534
 Alpha  occ. eigenvalues --   -0.59375  -0.55284  -0.53559  -0.44619  -0.39574
 Alpha  occ. eigenvalues --   -0.39263
 Alpha virt. eigenvalues --    0.03845   0.08352   0.08643   0.10189   0.11414
 Alpha virt. eigenvalues --    0.11711   0.15390   0.15790   0.16751   0.20003
 Alpha virt. eigenvalues --    0.20079   0.25270   0.32756   0.34208   0.35537

 Mulliken charges:
               1
     1  C   -0.088434
     2  C   -0.005845
     3  N   -0.199688
     4  H    0.097970
     5  H    0.102126
     6  H    0.093870
 Sum of Mulliken charges =   0.00000

 Dipole moment (field-independent basis, Debye):
    X=             -4.0966    Y=              0.0234    Z=              0.0168  Tot=              4.0967
 Quadrupole moment (field-independent basis, Debye-Ang):
   XX=            -21.1039   YY=            -17.5531   ZZ=            -17.7235
   XY=              0.0745   XZ=             -0.0759   YZ=              0.0584

 Normal termination of Gaussian 09 at Wed Aug 26 12:02:30 2020.
