 Gaussian 09, Revision D.01,
 Gaussian 09:  ES64L-G09RevD.01 24-Apr-2013

 --------------------
 #p B2PLYPD3/Def2QZVP
 --------------------

 ------------
 cyanomethane
 ------------
 Symbolic Z-matrix:
 Charge =  0 Multiplicity = 1

                         Standard orientation:
 ---------------------------------------------------------------------
 Center     Atomic      Atomic             Coordinates (Angstroms)
 Number     Number       Type             X           Y           Z
 ---------------------------------------------------------------------
      1          6           0       -1.176823   -0.014303   -0.008403
      2          6           0        0.274800    0.042073   -0.004792
      3          7           0        1.446775   -0.022863    0.003830
      4          1           0       -1.539148    1.039444    0.001209
      5          1           0       -1.592154   -0.507783    0.898711
      6          1           0       -1.583979   -0.538243   -0.847564
 ---------------------------------------------------------------------

 SCF Done:  E(RB2PLYPD3) =  -132.530787068     A.U. after   12 cycles
 E2(B2PLYPD3) =    -0.1824256421D+00 E(B2PLYPD3) =    -0.13271321271055D+03

 The electronic state is 1-A.
 Alpha  occ. eigenvalues --  -14.84851 -10.67422 -10.66933  -1.03438  -0.89086
 Alpha  occ. eigenvalues --   -0.60381  -0.53991  -0.52924  -0.44973  -0.38702
 Alpha  occ. eigenvalues --   -0.38511
 Alpha virt. eigenvalues --    0.03632   0.07064   0.07472   0.10011   0.11241
 Alpha virt. eigenvalues --    0.11445   0.15401   0.15931   0.16953   0.20090
 Alpha virt. eigenvalues --    0.20252   0.25560   0.32452   0.33968   0.34877

 Mulliken charges:
               1
     1  C   -0.079393
     2  C    0.005112
     3  N   -0.213683
     4  H    0.094562
     5  H    0.094004
     6  H    0.099397
 Sum of Mulliken charges =   0.00000

 Dipole moment (field-independent basis, Debye):
    X=             -4.1493    Y=              0.0206    Z=             -0.0017  Tot=              4.1494
 Quadrupole moment (field-independent basis, Debye-Ang):
   XX=            -20.9144   YY=            -17.8068   ZZ=            -17.9272
   XY=              0.1819   XZ=             -0.0409   YZ=              0.0430

 Normal termination of Gaussian 09 at Wed Aug 26 15:36:48 2020.
