 Gaussian 09, Revision D.01,
 Gaussian 09:  ES64L-G09RevD.01 24-Apr-2013

 --------------------
 #p B2PLYPD3/Def2QZVP
 --------------------

 ------------
 cyanomethane
 ------------
 Symbolic Z-matrix:
 Charge =  0 Multiplicity = 1

                         Standard orientation:
 ---------------------------------------------------------------------
 Center     Atomic      Atomic             Coordinates (Angstroms)
 Number     Number       Type             X           Y           Z
 ---------------------------------------------------------------------
      1          6           0        1.180278   -0.012320    0.010280
      2          6           0       -0.266031    0.009297   -0.018655
      3          7           0       -1.434374   -0.004795    0.001205
      4          1           0        1.541686    0.982417   -0.359112
      5          1           0        1.593864   -0.800005   -0.608152
      6          1           0        1.419589   -0.130699    1.009079
 ---------------------------------------------------------------------

 SCF Done:  E(RB2PLYPD3) =  -132.530431446     A.U. after   12 cycles
 E2(B2PLYPD3) =    -0.1815833380D+00 E(B2PLYPD3) =    -0.13271201478354D+03

 The electronic state is 1-A.
 Alpha  occ. eigenvalues --  -14.84442 -10.66801 -10.66504  -1.03533  -0.89892
 Alpha  occ. eigenvalues --   -0.59508  -0.55511  -0.53686  -0.44721  -0.38710
 Alpha  occ. eigenvalues --   -0.38524
 Alpha virt. eigenvalues --    0.03787   0.07466   0.08198   0.10151   0.11238
 Alpha virt. eigenvalues --    0.11410   0.15356   0.15621   0.16434   0.20171
 Alpha virt. eigenvalues --    0.20201   0.25514   0.32445   0.34156   0.35254

 Mulliken charges:
               1
     1  C   -0.090073
     2  C   -0.000233
     3  N   -0.214797
     4  H    0.097141
     5  H    0.101127
     6  H    0.106835
 Sum of Mulliken charges =   0.00000

 Dipole moment (field-independent basis, Debye):
    X=              4.1380    Y=              0.0057    Z=              0.0162  Tot=              4.1381
 Quadrupole moment (field-independent basis, Debye-Ang):
   XX=            -21.1736   YY=            -17.7191   ZZ=            -17.7248
   XY=             -0.0453   XZ=             -0.0906   YZ=              0.0155

 Normal termination of Gaussian 09 at Wed Aug 26 15:13:40 2020.
