 Gaussian 09, Revision D.01,
 Gaussian 09:  ES64L-G09RevD.01 24-Apr-2013

 --------------------
 #p B2PLYPD3/Def2QZVP
 --------------------

 ------------
 cyanomethane
 ------------
 Symbolic Z-matrix:
 Charge =  0 Multiplicity = 1

                         Standard orientation:
 ---------------------------------------------------------------------
 Center     Atomic      Atomic             Coordinates (Angstroms)
 Number     Number       Type             X           Y           Z
 ---------------------------------------------------------------------
      1          6           0        1.180189   -0.013291   -0.011239
      2          6           0       -0.277049    0.001257   -0.054570
      3          7           0       -1.451908    0.005477    0.020608
      4          1           0        1.683578    1.024176   -0.246155
      5          1           0        1.622279   -0.804326   -0.555064
      6          1           0        1.438658   -0.185985    1.051814
 ---------------------------------------------------------------------

 SCF Done:  E(RB2PLYPD3) =  -132.524802286     A.U. after   13 cycles
 E2(B2PLYPD3) =    -0.1830268337D+00 E(B2PLYPD3) =    -0.13270782911943D+03

 The electronic state is 1-A.
 Alpha  occ. eigenvalues --  -14.84970 -10.67923 -10.67151  -1.03314  -0.88809
 Alpha  occ. eigenvalues --   -0.60286  -0.54189  -0.51929  -0.44998  -0.38747
 Alpha  occ. eigenvalues --   -0.38271
 Alpha virt. eigenvalues --    0.03443   0.06516   0.07566   0.10160   0.10993
 Alpha virt. eigenvalues --    0.11664   0.15261   0.15675   0.17373   0.20128
 Alpha virt. eigenvalues --    0.20251   0.25394   0.31567   0.33619   0.34867

 Mulliken charges:
               1
     1  C   -0.084525
     2  C    0.008174
     3  N   -0.214942
     4  H    0.093330
     5  H    0.101632
     6  H    0.096331
 Sum of Mulliken charges =   0.00000

 Dipole moment (field-independent basis, Debye):
    X=              4.1622    Y=             -0.0387    Z=              0.0442  Tot=              4.1626
 Quadrupole moment (field-independent basis, Debye-Ang):
   XX=            -20.8970   YY=            -17.7626   ZZ=            -18.0825
   XY=              0.0393   XZ=              0.1199   YZ=              0.0799

 Normal termination of Gaussian 09 at Wed Aug 26 22:21:32 2020.
