 Gaussian 09, Revision D.01,
 Gaussian 09:  ES64L-G09RevD.01 24-Apr-2013

 --------------------
 #p B2PLYPD3/Def2QZVP
 --------------------

 ------------
 cyanomethane
 ------------
 Symbolic Z-matrix:
 Charge =  0 Multiplicity = 1

                         Standard orientation:
 ---------------------------------------------------------------------
 Center     Atomic      Atomic             Coordinates (Angstroms)
 Number     Number       Type             X           Y           Z
 ---------------------------------------------------------------------
      1          6           0        1.169318   -0.001169   -0.002463
      2          6           0       -0.278758   -0.016586    0.004141
      3          7           0       -1.427806    0.013709   -0.001152
      4          1           0        1.605316    0.914814   -0.444692
      5          1           0        1.489460   -0.841057   -0.559601
      6          1           0        1.556502   -0.063196    1.002290
 ---------------------------------------------------------------------

 SCF Done:  E(RB2PLYPD3) =  -132.534604669     A.U. after   12 cycles
 E2(B2PLYPD3) =    -0.1799572324D+00 E(B2PLYPD3) =    -0.13271456190102D+03

 The electronic state is 1-A.
 Alpha  occ. eigenvalues --  -14.84049 -10.66719 -10.66067  -1.04355  -0.89572
 Alpha  occ. eigenvalues --   -0.60083  -0.54753  -0.53345  -0.44799  -0.39213
 Alpha  occ. eigenvalues --   -0.39116
 Alpha virt. eigenvalues --    0.03787   0.07672   0.08415   0.10171   0.11459
 Alpha virt. eigenvalues --    0.11647   0.15515   0.16066   0.16868   0.20042
 Alpha virt. eigenvalues --    0.20128   0.25547   0.32951   0.34583   0.35002

 Mulliken charges:
               1
     1  C   -0.078559
     2  C   -0.001693
     3  N   -0.203899
     4  H    0.092613
     5  H    0.097761
     6  H    0.093777
 Sum of Mulliken charges =   0.00000

 Dipole moment (field-independent basis, Debye):
    X=              4.1205    Y=             -0.0289    Z=              0.0074  Tot=              4.1206
 Quadrupole moment (field-independent basis, Debye-Ang):
   XX=            -20.9121   YY=            -17.7136   ZZ=            -17.7545
   XY=              0.1440   XZ=              0.0216   YZ=              0.0435

 Normal termination of Gaussian 09 at Thu Aug 27 00:05:10 2020.
