 Gaussian 09, Revision D.01,
 Gaussian 09:  ES64L-G09RevD.01 24-Apr-2013

 --------------------
 #p B2PLYPD3/Def2QZVP
 --------------------

 ------------
 cyanomethane
 ------------
 Symbolic Z-matrix:
 Charge =  0 Multiplicity = 1

                         Standard orientation:
 ---------------------------------------------------------------------
 Center     Atomic      Atomic             Coordinates (Angstroms)
 Number     Number       Type             X           Y           Z
 ---------------------------------------------------------------------
      1          6           0       -1.175919   -0.017898    0.001861
      2          6           0        0.291116   -0.020471   -0.032808
      3          7           0        1.435879    0.013351    0.012012
      4          1           0       -1.618958    0.941434   -0.421380
      5          1           0       -1.506991   -0.011320    1.031486
      6          1           0       -1.616386   -0.793355   -0.508506
 ---------------------------------------------------------------------

 SCF Done:  E(RB2PLYPD3) =  -132.531120140     A.U. after   11 cycles
 E2(B2PLYPD3) =    -0.1797919262D+00 E(B2PLYPD3) =    -0.13271091206587D+03

 The electronic state is 1-A.
 Alpha  occ. eigenvalues --  -14.84108 -10.66930 -10.66215  -1.04532  -0.89137
 Alpha  occ. eigenvalues --   -0.60463  -0.54865  -0.52223  -0.44890  -0.39593
 Alpha  occ. eigenvalues --   -0.39180
 Alpha virt. eigenvalues --    0.03678   0.07588   0.08509   0.10231   0.11251
 Alpha virt. eigenvalues --    0.11807   0.15411   0.16530   0.16967   0.19943
 Alpha virt. eigenvalues --    0.20112   0.25229   0.32568   0.34069   0.35460

 Mulliken charges:
               1
     1  C   -0.071920
     2  C    0.000916
     3  N   -0.200961
     4  H    0.083803
     5  H    0.092619
     6  H    0.095543
 Sum of Mulliken charges =   0.00000

 Dipole moment (field-independent basis, Debye):
    X=             -4.1280    Y=             -0.0181    Z=              0.0004  Tot=              4.1280
 Quadrupole moment (field-independent basis, Debye-Ang):
   XX=            -20.7317   YY=            -17.8140   ZZ=            -17.7977
   XY=             -0.0999   XZ=             -0.0232   YZ=              0.0885

 Normal termination of Gaussian 09 at Wed Aug 26 11:42:59 2020.
