 Gaussian 09, Revision D.01,
 Gaussian 09:  ES64L-G09RevD.01 24-Apr-2013

 --------------------
 #p B2PLYPD3/Def2QZVP
 --------------------

 ------------
 cyanomethane
 ------------
 Symbolic Z-matrix:
 Charge =  0 Multiplicity = 1

                         Standard orientation:
 ---------------------------------------------------------------------
 Center     Atomic      Atomic             Coordinates (Angstroms)
 Number     Number       Type             X           Y           Z
 ---------------------------------------------------------------------
      1          6           0       -1.158315    0.015890   -0.016062
      2          6           0        0.273519    0.025124   -0.007776
      3          7           0        1.430215   -0.018795    0.009868
      4          1           0       -1.506456    0.984979   -0.257629
      5          1           0       -1.629963   -0.299028    1.043344
      6          1           0       -1.566308   -0.800475   -0.711765
 ---------------------------------------------------------------------

 SCF Done:  E(RB2PLYPD3) =  -132.524030459     A.U. after   12 cycles
 E2(B2PLYPD3) =    -0.1815338300D+00 E(B2PLYPD3) =    -0.13270556428884D+03

 The electronic state is 1-A.
 Alpha  occ. eigenvalues --  -14.84353 -10.68182 -10.66328  -1.04115  -0.88854
 Alpha  occ. eigenvalues --   -0.59830  -0.54829  -0.51131  -0.44915  -0.39045
 Alpha  occ. eigenvalues --   -0.38457
 Alpha virt. eigenvalues --    0.03322   0.06269   0.07906   0.10089   0.11302
 Alpha virt. eigenvalues --    0.12050   0.15454   0.16356   0.16533   0.19975
 Alpha virt. eigenvalues --    0.20223   0.25767   0.31927   0.33024   0.34853

 Mulliken charges:
               1
     1  C   -0.093542
     2  C    0.003006
     3  N   -0.205779
     4  H    0.107797
     5  H    0.089513
     6  H    0.099006
 Sum of Mulliken charges =   0.00000

 Dipole moment (field-independent basis, Debye):
    X=             -4.0982    Y=              0.0217    Z=             -0.0213  Tot=              4.0984
 Quadrupole moment (field-independent basis, Debye-Ang):
   XX=            -21.0533   YY=            -17.6522   ZZ=            -17.9870
   XY=              0.1908   XZ=             -0.1191   YZ=             -0.0093

 Normal termination of Gaussian 09 at Wed Aug 26 13:58:39 2020.
