 Gaussian 09, Revision D.01,
 Gaussian 09:  ES64L-G09RevD.01 24-Apr-2013

 --------------------
 #p B2PLYPD3/Def2QZVP
 --------------------

 ------------
 cyanomethane
 ------------
 Symbolic Z-matrix:
 Charge =  0 Multiplicity = 1

                         Standard orientation:
 ---------------------------------------------------------------------
 Center     Atomic      Atomic             Coordinates (Angstroms)
 Number     Number       Type             X           Y           Z
 ---------------------------------------------------------------------
      1          6           0        1.174714   -0.001305   -0.009655
      2          6           0       -0.265708    0.006611    0.022869
      3          7           0       -1.432769    0.004468   -0.008833
      4          1           0        1.529704   -0.251912    0.991823
      5          1           0        1.614538    0.979742   -0.310128
      6          1           0        1.431103   -0.790946   -0.699152
 ---------------------------------------------------------------------

 SCF Done:  E(RB2PLYPD3) =  -132.532174734     A.U. after   12 cycles
 E2(B2PLYPD3) =    -0.1816977749D+00 E(B2PLYPD3) =    -0.13271387250858D+03

 The electronic state is 1-A.
 Alpha  occ. eigenvalues --  -14.84423 -10.67227 -10.66473  -1.03593  -0.89570
 Alpha  occ. eigenvalues --   -0.59477  -0.54672  -0.53698  -0.44745  -0.38623
 Alpha  occ. eigenvalues --   -0.38547
 Alpha virt. eigenvalues --    0.03706   0.07316   0.07941   0.10137   0.11386
 Alpha virt. eigenvalues --    0.11433   0.15301   0.15638   0.16554   0.20171
 Alpha virt. eigenvalues --    0.20192   0.25632   0.32594   0.34228   0.34617

 Mulliken charges:
               1
     1  C   -0.093455
     2  C    0.000824
     3  N   -0.213783
     4  H    0.099645
     5  H    0.100837
     6  H    0.105932
 Sum of Mulliken charges =   0.00000

 Dipole moment (field-independent basis, Debye):
    X=              4.1324    Y=             -0.0238    Z=              0.0199  Tot=              4.1325
 Quadrupole moment (field-independent basis, Debye-Ang):
   XX=            -21.1876   YY=            -17.6878   ZZ=            -17.7918
   XY=              0.1246   XZ=              0.0166   YZ=              0.0304

 Normal termination of Gaussian 09 at Wed Aug 26 12:48:49 2020.
