 Gaussian 09, Revision D.01,
 Gaussian 09:  ES64L-G09RevD.01 24-Apr-2013

 --------------------
 #p B2PLYPD3/Def2QZVP
 --------------------

 ------------
 cyanomethane
 ------------
 Symbolic Z-matrix:
 Charge =  0 Multiplicity = 1

                         Standard orientation:
 ---------------------------------------------------------------------
 Center     Atomic      Atomic             Coordinates (Angstroms)
 Number     Number       Type             X           Y           Z
 ---------------------------------------------------------------------
      1          6           0        1.176506    0.002099    0.015171
      2          6           0       -0.271259   -0.004437   -0.022334
      3          7           0       -1.432558    0.002071    0.009116
      4          1           0        1.534322    1.007863   -0.201789
      5          1           0        1.542332   -0.674284   -0.772732
      6          1           0        1.519772   -0.334053    0.953691
 ---------------------------------------------------------------------

 SCF Done:  E(RB2PLYPD3) =  -132.534123940     A.U. after   11 cycles
 E2(B2PLYPD3) =    -0.1809786904D+00 E(B2PLYPD3) =    -0.13271510263020D+03

 The electronic state is 1-A.
 Alpha  occ. eigenvalues --  -14.84315 -10.66833 -10.66349  -1.03818  -0.89648
 Alpha  occ. eigenvalues --   -0.59735  -0.54890  -0.53782  -0.44759  -0.38911
 Alpha  occ. eigenvalues --   -0.38735
 Alpha virt. eigenvalues --    0.03797   0.07814   0.07963   0.10136   0.11328
 Alpha virt. eigenvalues --    0.11464   0.15444   0.15905   0.16438   0.20127
 Alpha virt. eigenvalues --    0.20151   0.25529   0.32738   0.34252   0.35120

 Mulliken charges:
               1
     1  C   -0.084958
     2  C   -0.000703
     3  N   -0.210702
     4  H    0.098802
     5  H    0.095509
     6  H    0.102053
 Sum of Mulliken charges =   0.00000

 Dipole moment (field-independent basis, Debye):
    X=              4.1303    Y=             -0.0066    Z=             -0.0135  Tot=              4.1304
 Quadrupole moment (field-independent basis, Debye-Ang):
   XX=            -21.0888   YY=            -17.7254   ZZ=            -17.7260
   XY=              0.0008   XZ=              0.0258   YZ=             -0.0392

 Normal termination of Gaussian 09 at Thu Aug 27 00:11:52 2020.
