 Gaussian 09, Revision D.01,
 Gaussian 09:  ES64L-G09RevD.01 24-Apr-2013

 --------------------
 #p B2PLYPD3/Def2QZVP
 --------------------

 ------------
 cyanomethane
 ------------
 Symbolic Z-matrix:
 Charge =  0 Multiplicity = 1

                         Standard orientation:
 ---------------------------------------------------------------------
 Center     Atomic      Atomic             Coordinates (Angstroms)
 Number     Number       Type             X           Y           Z
 ---------------------------------------------------------------------
      1          6           0        1.160611    0.011457   -0.004317
      2          6           0       -0.265189   -0.007807   -0.040727
      3          7           0       -1.432983    0.001820    0.020007
      4          1           0        1.543407    1.003008   -0.106989
      5          1           0        1.579730   -0.651370   -0.743394
      6          1           0        1.535210   -0.386271    0.980604
 ---------------------------------------------------------------------

 SCF Done:  E(RB2PLYPD3) =  -132.531726585     A.U. after   11 cycles
 E2(B2PLYPD3) =    -0.1818627168D+00 E(B2PLYPD3) =    -0.13271358930208D+03

 The electronic state is 1-A.
 Alpha  occ. eigenvalues --  -14.84616 -10.66865 -10.66589  -1.03640  -0.89771
 Alpha  occ. eigenvalues --   -0.60635  -0.54966  -0.52936  -0.44927  -0.38736
 Alpha  occ. eigenvalues --   -0.38405
 Alpha virt. eigenvalues --    0.03664   0.07146   0.07693   0.10073   0.11245
 Alpha virt. eigenvalues --    0.11684   0.15617   0.16173   0.16590   0.20101
 Alpha virt. eigenvalues --    0.20230   0.25953   0.32922   0.33805   0.35235

 Mulliken charges:
               1
     1  C   -0.075719
     2  C    0.003403
     3  N   -0.213133
     4  H    0.099231
     5  H    0.094996
     6  H    0.091222
 Sum of Mulliken charges =   0.00000

 Dipole moment (field-independent basis, Debye):
    X=              4.1422    Y=             -0.0120    Z=             -0.0142  Tot=              4.1422
 Quadrupole moment (field-independent basis, Debye-Ang):
   XX=            -20.9206   YY=            -17.7081   ZZ=            -17.8966
   XY=             -0.0370   XZ=              0.1118   YZ=              0.0279

 Normal termination of Gaussian 09 at Wed Aug 26 13:39:42 2020.
