 Gaussian 09, Revision D.01,
 Gaussian 09:  ES64L-G09RevD.01 24-Apr-2013

 --------------------
 #p B2PLYPD3/Def2QZVP
 --------------------

 ------------
 cyanomethane
 ------------
 Symbolic Z-matrix:
 Charge =  0 Multiplicity = 1

                         Standard orientation:
 ---------------------------------------------------------------------
 Center     Atomic      Atomic             Coordinates (Angstroms)
 Number     Number       Type             X           Y           Z
 ---------------------------------------------------------------------
      1          6           0       -1.177295   -0.009512   -0.001113
      2          6           0        0.264928    0.027071   -0.023511
      3          7           0        1.429658   -0.020395    0.013771
      4          1           0       -1.412175    0.946173   -0.369644
      5          1           0       -1.543620   -0.106401    0.996117
      6          1           0       -1.577606   -0.802358   -0.575125
 ---------------------------------------------------------------------

 SCF Done:  E(RB2PLYPD3) =  -132.529796989     A.U. after   12 cycles
 E2(B2PLYPD3) =    -0.1812269928D+00 E(B2PLYPD3) =    -0.13271102398203D+03

 The electronic state is 1-A.
 Alpha  occ. eigenvalues --  -14.84379 -10.66413 -10.66082  -1.03654  -0.90392
 Alpha  occ. eigenvalues --   -0.60143  -0.55483  -0.54322  -0.44731  -0.38773
 Alpha  occ. eigenvalues --   -0.38595
 Alpha virt. eigenvalues --    0.03863   0.07674   0.08530   0.10049   0.11223
 Alpha virt. eigenvalues --    0.11449   0.15197   0.15688   0.16852   0.20136
 Alpha virt. eigenvalues --    0.20249   0.25666   0.33011   0.34665   0.35281

 Mulliken charges:
               1
     1  C   -0.081606
     2  C    0.000505
     3  N   -0.214367
     4  H    0.101066
     5  H    0.095442
     6  H    0.098961
 Sum of Mulliken charges =   0.00000

 Dipole moment (field-independent basis, Debye):
    X=             -4.1341    Y=              0.0368    Z=             -0.0049  Tot=              4.1342
 Quadrupole moment (field-independent basis, Debye-Ang):
   XX=            -21.0823   YY=            -17.6041   ZZ=            -17.7878
   XY=              0.2189   XZ=             -0.1342   YZ=              0.0056

 Normal termination of Gaussian 09 at Wed Aug 26 16:19:03 2020.
