 Gaussian 09, Revision D.01,
 Gaussian 09:  ES64L-G09RevD.01 24-Apr-2013

 --------------------
 #p B2PLYPD3/Def2QZVP
 --------------------

 ------------
 cyanomethane
 ------------
 Symbolic Z-matrix:
 Charge =  0 Multiplicity = 1

                         Standard orientation:
 ---------------------------------------------------------------------
 Center     Atomic      Atomic             Coordinates (Angstroms)
 Number     Number       Type             X           Y           Z
 ---------------------------------------------------------------------
      1          6           0        1.162563   -0.006831    0.012067
      2          6           0       -0.275204   -0.049984   -0.028916
      3          7           0       -1.433237    0.029623    0.020776
      4          1           0        1.598358    1.006966   -0.087981
      5          1           0        1.461815   -0.496180   -0.778463
      6          1           0        1.648335   -0.377260    0.822111
 ---------------------------------------------------------------------

 SCF Done:  E(RB2PLYPD3) =  -132.516847243     A.U. after   12 cycles
 E2(B2PLYPD3) =    -0.1808241453D+00 E(B2PLYPD3) =    -0.13269767138777D+03

 The electronic state is 1-A.
 Alpha  occ. eigenvalues --  -14.84572 -10.66570 -10.65069  -1.04038  -0.90980
 Alpha  occ. eigenvalues --   -0.62056  -0.56052  -0.53082  -0.45042  -0.39146
 Alpha  occ. eigenvalues --   -0.38861
 Alpha virt. eigenvalues --    0.03690   0.07429   0.08824   0.09966   0.11262
 Alpha virt. eigenvalues --    0.11652   0.15636   0.16024   0.17794   0.20002
 Alpha virt. eigenvalues --    0.20419   0.25917   0.33193   0.34518   0.36116

 Mulliken charges:
               1
     1  C   -0.054817
     2  C    0.010247
     3  N   -0.209921
     4  H    0.078804
     5  H    0.091904
     6  H    0.083784
 Sum of Mulliken charges =   0.00000

 Dipole moment (field-independent basis, Debye):
    X=              4.1524    Y=             -0.0599    Z=             -0.0527  Tot=              4.1532
 Quadrupole moment (field-independent basis, Debye-Ang):
   XX=            -20.4619   YY=            -17.8207   ZZ=            -17.7936
   XY=              0.1753   XZ=              0.1682   YZ=              0.0355

 Normal termination of Gaussian 09 at Wed Aug 26 23:54:09 2020.
