 Gaussian 09, Revision D.01,
 Gaussian 09:  ES64L-G09RevD.01 24-Apr-2013

 --------------------
 #p B2PLYPD3/Def2QZVP
 --------------------

 ------------
 cyanomethane
 ------------
 Symbolic Z-matrix:
 Charge =  0 Multiplicity = 1

                         Standard orientation:
 ---------------------------------------------------------------------
 Center     Atomic      Atomic             Coordinates (Angstroms)
 Number     Number       Type             X           Y           Z
 ---------------------------------------------------------------------
      1          6           0       -1.181192   -0.017826   -0.014601
      2          6           0        0.267875    0.043510   -0.017843
      3          7           0        1.422109   -0.022740    0.012826
      4          1           0       -1.468755    1.055151    0.071602
      5          1           0       -1.529352   -0.554474    0.915861
      6          1           0       -1.476755   -0.495602   -0.882579
 ---------------------------------------------------------------------

 SCF Done:  E(RB2PLYPD3) =  -132.528905793     A.U. after   12 cycles
 E2(B2PLYPD3) =    -0.1807921142D+00 E(B2PLYPD3) =    -0.13270969790695D+03

 The electronic state is 1-A.
 Alpha  occ. eigenvalues --  -14.84012 -10.67198 -10.66027  -1.03947  -0.89597
 Alpha  occ. eigenvalues --   -0.58823  -0.55723  -0.53211  -0.44579  -0.38995
 Alpha  occ. eigenvalues --   -0.38605
 Alpha virt. eigenvalues --    0.03640   0.07584   0.08508   0.10073   0.11259
 Alpha virt. eigenvalues --    0.11612   0.15267   0.15363   0.16385   0.20099
 Alpha virt. eigenvalues --    0.20164   0.25530   0.32639   0.33400   0.35181

 Mulliken charges:
               1
     1  C   -0.104624
     2  C   -0.001441
     3  N   -0.209841
     4  H    0.102899
     5  H    0.101750
     6  H    0.111256
 Sum of Mulliken charges =   0.00000

 Dipole moment (field-independent basis, Debye):
    X=             -4.0813    Y=              0.0332    Z=             -0.0085  Tot=              4.0814
 Quadrupole moment (field-independent basis, Debye-Ang):
   XX=            -21.4346   YY=            -17.6361   ZZ=            -17.6270
   XY=              0.1563   XZ=             -0.1296   YZ=              0.0892

 Normal termination of Gaussian 09 at Wed Aug 26 19:47:24 2020.
