 Gaussian 09, Revision D.01,
 Gaussian 09:  ES64L-G09RevD.01 24-Apr-2013

 --------------------
 #p B2PLYPD3/Def2QZVP
 --------------------

 ------------
 cyanomethane
 ------------
 Symbolic Z-matrix:
 Charge =  0 Multiplicity = 1

                         Standard orientation:
 ---------------------------------------------------------------------
 Center     Atomic      Atomic             Coordinates (Angstroms)
 Number     Number       Type             X           Y           Z
 ---------------------------------------------------------------------
      1          6           0        1.193778    0.010265   -0.002464
      2          6           0       -0.278571   -0.014532    0.020585
      3          7           0       -1.442399    0.012015   -0.008269
      4          1           0        1.548891   -0.251971    0.989893
      5          1           0        1.594215    0.992896   -0.323561
      6          1           0        1.462453   -0.799423   -0.717178
 ---------------------------------------------------------------------

 SCF Done:  E(RB2PLYPD3) =  -132.532232095     A.U. after   12 cycles
 E2(B2PLYPD3) =    -0.1815554863D+00 E(B2PLYPD3) =    -0.13271378758118D+03

 The electronic state is 1-A.
 Alpha  occ. eigenvalues --  -14.84399 -10.67774 -10.66542  -1.03629  -0.88813
 Alpha  occ. eigenvalues --   -0.58899  -0.53993  -0.53677  -0.44699  -0.38869
 Alpha  occ. eigenvalues --   -0.38700
 Alpha virt. eigenvalues --    0.03619   0.07524   0.08037   0.10158   0.11218
 Alpha virt. eigenvalues --    0.11361   0.15098   0.15506   0.16618   0.20120
 Alpha virt. eigenvalues --    0.20162   0.25069   0.32317   0.33893   0.34656

 Mulliken charges:
               1
     1  C   -0.099261
     2  C   -0.000194
     3  N   -0.211240
     4  H    0.102550
     5  H    0.104836
     6  H    0.103308
 Sum of Mulliken charges =   0.00000

 Dipole moment (field-independent basis, Debye):
    X=              4.1352    Y=             -0.0304    Z=              0.0158  Tot=              4.1353
 Quadrupole moment (field-independent basis, Debye-Ang):
   XX=            -21.2336   YY=            -17.6994   ZZ=            -17.8171
   XY=              0.1272   XZ=              0.0116   YZ=             -0.0133

 Normal termination of Gaussian 09 at Wed Aug 26 13:54:26 2020.
