 Gaussian 09, Revision D.01,
 Gaussian 09:  ES64L-G09RevD.01 24-Apr-2013

 --------------------
 #p B2PLYPD3/Def2QZVP
 --------------------

 ------------
 cyanomethane
 ------------
 Symbolic Z-matrix:
 Charge =  0 Multiplicity = 1

                         Standard orientation:
 ---------------------------------------------------------------------
 Center     Atomic      Atomic             Coordinates (Angstroms)
 Number     Number       Type             X           Y           Z
 ---------------------------------------------------------------------
      1          6           0        1.145566    0.001051    0.026259
      2          6           0       -0.281106   -0.049595   -0.006328
      3          7           0       -1.434520    0.032106    0.001886
      4          1           0        1.683388    1.011499   -0.391399
      5          1           0        1.540739   -0.775570   -0.721327
      6          1           0        1.630752   -0.169412    0.979935
 ---------------------------------------------------------------------

 SCF Done:  E(RB2PLYPD3) =  -132.519423224     A.U. after   12 cycles
 E2(B2PLYPD3) =    -0.1819528541D+00 E(B2PLYPD3) =    -0.13270137607801D+03

 The electronic state is 1-A.
 Alpha  occ. eigenvalues --  -14.84579 -10.68495 -10.66565  -1.04357  -0.88448
 Alpha  occ. eigenvalues --   -0.60980  -0.53345  -0.50647  -0.45169  -0.39109
 Alpha  occ. eigenvalues --   -0.38509
 Alpha virt. eigenvalues --    0.03085   0.06085   0.07281   0.09928   0.11546
 Alpha virt. eigenvalues --    0.12075   0.15597   0.16081   0.17813   0.19974
 Alpha virt. eigenvalues --    0.20384   0.26049   0.31998   0.32717   0.34652

 Mulliken charges:
               1
     1  C   -0.083880
     2  C    0.010279
     3  N   -0.202809
     4  H    0.086122
     5  H    0.089051
     6  H    0.101236
 Sum of Mulliken charges =   0.00000

 Dipole moment (field-independent basis, Debye):
    X=              4.0989    Y=             -0.0738    Z=             -0.0057  Tot=              4.0995
 Quadrupole moment (field-independent basis, Debye-Ang):
   XX=            -20.6934   YY=            -18.0749   ZZ=            -17.8602
   XY=              0.2331   XZ=              0.0164   YZ=              0.0166

 Normal termination of Gaussian 09 at Wed Aug 26 20:14:04 2020.
