 Gaussian 09, Revision D.01,
 Gaussian 09:  ES64L-G09RevD.01 24-Apr-2013

 --------------------
 #p B2PLYPD3/Def2QZVP
 --------------------

 ------------
 cyanomethane
 ------------
 Symbolic Z-matrix:
 Charge =  0 Multiplicity = 1

                         Standard orientation:
 ---------------------------------------------------------------------
 Center     Atomic      Atomic             Coordinates (Angstroms)
 Number     Number       Type             X           Y           Z
 ---------------------------------------------------------------------
      1          6           0       -1.168993    0.007014    0.026048
      2          6           0        0.292741   -0.024507   -0.039688
      3          7           0        1.426070    0.010147    0.016600
      4          1           0       -1.553924    0.970821   -0.322588
      5          1           0       -1.559500   -0.198382    0.958889
      6          1           0       -1.611558   -0.738512   -0.670660
 ---------------------------------------------------------------------

 SCF Done:  E(RB2PLYPD3) =  -132.532774561     A.U. after   11 cycles
 E2(B2PLYPD3) =    -0.1788445397D+00 E(B2PLYPD3) =    -0.13271161910062D+03

 The electronic state is 1-A.
 Alpha  occ. eigenvalues --  -14.83778 -10.66749 -10.65821  -1.04978  -0.89178
 Alpha  occ. eigenvalues --   -0.60423  -0.54484  -0.52710  -0.44848  -0.39798
 Alpha  occ. eigenvalues --   -0.39478
 Alpha virt. eigenvalues --    0.03795   0.08062   0.08348   0.10159   0.11552
 Alpha virt. eigenvalues --    0.11793   0.15529   0.16269   0.17328   0.19961
 Alpha virt. eigenvalues --    0.20010   0.25481   0.32826   0.34300   0.35543

 Mulliken charges:
               1
     1  C   -0.072233
     2  C   -0.001048
     3  N   -0.195209
     4  H    0.089733
     5  H    0.095648
     6  H    0.083107
 Sum of Mulliken charges =   0.00000

 Dipole moment (field-independent basis, Debye):
    X=             -4.0989    Y=             -0.0175    Z=             -0.0272  Tot=              4.0990
 Quadrupole moment (field-independent basis, Debye-Ang):
   XX=            -20.7416   YY=            -17.7730   ZZ=            -17.7302
   XY=             -0.0231   XZ=             -0.0645   YZ=             -0.0617

 Normal termination of Gaussian 09 at Wed Aug 26 11:16:46 2020.
