 Gaussian 09, Revision D.01,
 Gaussian 09:  ES64L-G09RevD.01 24-Apr-2013

 --------------------
 #p B2PLYPD3/Def2QZVP
 --------------------

 ------------
 cyanomethane
 ------------
 Symbolic Z-matrix:
 Charge =  0 Multiplicity = 1

                         Standard orientation:
 ---------------------------------------------------------------------
 Center     Atomic      Atomic             Coordinates (Angstroms)
 Number     Number       Type             X           Y           Z
 ---------------------------------------------------------------------
      1          6           0       -1.174352    0.008342   -0.006994
      2          6           0        0.287896   -0.008588    0.023090
      3          7           0        1.431907    0.003146   -0.012389
      4          1           0       -1.580612   -0.862147   -0.543330
      5          1           0       -1.568465    0.890243   -0.469350
      6          1           0       -1.555538   -0.048644    1.002828
 ---------------------------------------------------------------------

 SCF Done:  E(RB2PLYPD3) =  -132.535645726     A.U. after   11 cycles
 E2(B2PLYPD3) =    -0.1795952779D+00 E(B2PLYPD3) =    -0.13271524100424D+03

 The electronic state is 1-A.
 Alpha  occ. eigenvalues --  -14.83996 -10.66939 -10.66060  -1.04555  -0.89143
 Alpha  occ. eigenvalues --   -0.60074  -0.54078  -0.53351  -0.44828  -0.39442
 Alpha  occ. eigenvalues --   -0.39321
 Alpha virt. eigenvalues --    0.03778   0.07945   0.08242   0.10185   0.11501
 Alpha virt. eigenvalues --    0.11611   0.15468   0.16258   0.16961   0.20011
 Alpha virt. eigenvalues --    0.20063   0.25329   0.32858   0.34534   0.35084

 Mulliken charges:
               1
     1  C   -0.075980
     2  C   -0.001825
     3  N   -0.200419
     4  H    0.091151
     5  H    0.095298
     6  H    0.091775
 Sum of Mulliken charges =   0.00000

 Dipole moment (field-independent basis, Debye):
    X=             -4.1206    Y=             -0.0060    Z=              0.0254  Tot=              4.1206
 Quadrupole moment (field-independent basis, Debye-Ang):
   XX=            -20.8336   YY=            -17.7472   ZZ=            -17.7759
   XY=             -0.0038   XZ=              0.0718   YZ=             -0.0262

 Normal termination of Gaussian 09 at Thu Aug 27 00:08:10 2020.
