 Gaussian 09, Revision D.01,
 Gaussian 09:  ES64L-G09RevD.01 24-Apr-2013

 --------------------
 #p B2PLYPD3/Def2QZVP
 --------------------

 ------------
 cyanomethane
 ------------
 Symbolic Z-matrix:
 Charge =  0 Multiplicity = 1

                         Standard orientation:
 ---------------------------------------------------------------------
 Center     Atomic      Atomic             Coordinates (Angstroms)
 Number     Number       Type             X           Y           Z
 ---------------------------------------------------------------------
      1          6           0       -1.181491    0.008220    0.037833
      2          6           0        0.258770   -0.063170   -0.005731
      3          7           0        1.426158    0.025349   -0.004070
      4          1           0       -1.442942   -0.057905    0.987575
      5          1           0       -1.572769   -0.850413   -0.667371
      6          1           0       -1.431073    1.060579   -0.484332
 ---------------------------------------------------------------------

 SCF Done:  E(RB2PLYPD3) =  -132.511290023     A.U. after   12 cycles
 E2(B2PLYPD3) =    -0.1825530465D+00 E(B2PLYPD3) =    -0.13269384306970D+03

 The electronic state is 1-A.
 Alpha  occ. eigenvalues --  -14.84377 -10.68020 -10.66420  -1.03418  -0.89511
 Alpha  occ. eigenvalues --   -0.59283  -0.55440  -0.52041  -0.44600  -0.38637
 Alpha  occ. eigenvalues --   -0.37989
 Alpha virt. eigenvalues --    0.03202   0.06567   0.08325   0.09999   0.11079
 Alpha virt. eigenvalues --    0.11643   0.15083   0.15474   0.15786   0.20133
 Alpha virt. eigenvalues --    0.20208   0.25629   0.31506   0.31780   0.34915

 Mulliken charges:
               1
     1  C   -0.121870
     2  C    0.005858
     3  N   -0.217055
     4  H    0.120640
     5  H    0.104272
     6  H    0.108155
 Sum of Mulliken charges =   0.00000

 Dipole moment (field-independent basis, Debye):
    X=             -4.0671    Y=             -0.0241    Z=              0.0027  Tot=              4.0671
 Quadrupole moment (field-independent basis, Debye-Ang):
   XX=            -21.6669   YY=            -17.7086   ZZ=            -17.6205
   XY=             -0.0248   XZ=              0.0761   YZ=             -0.0182

 Normal termination of Gaussian 09 at Wed Aug 26 21:28:34 2020.
