 Gaussian 09, Revision D.01,
 Gaussian 09:  ES64L-G09RevD.01 24-Apr-2013

 --------------------
 #p B2PLYPD3/Def2QZVP
 --------------------

 ------------
 cyanomethane
 ------------
 Symbolic Z-matrix:
 Charge =  0 Multiplicity = 1

                         Standard orientation:
 ---------------------------------------------------------------------
 Center     Atomic      Atomic             Coordinates (Angstroms)
 Number     Number       Type             X           Y           Z
 ---------------------------------------------------------------------
      1          6           0       -1.196119   -0.017440    0.015943
      2          6           0        0.284319    0.008431   -0.042049
      3          7           0        1.433295   -0.000513    0.019504
      4          1           0       -1.501122   -0.188289    0.995525
      5          1           0       -1.507610   -0.761511   -0.663663
      6          1           0       -1.553538    1.007442   -0.311755
 ---------------------------------------------------------------------

 SCF Done:  E(RB2PLYPD3) =  -132.531399445     A.U. after   12 cycles
 E2(B2PLYPD3) =    -0.1800218723D+00 E(B2PLYPD3) =    -0.13271142131725D+03

 The electronic state is 1-A.
 Alpha  occ. eigenvalues --  -14.83982 -10.66994 -10.66068  -1.04153  -0.89268
 Alpha  occ. eigenvalues --   -0.58826  -0.55573  -0.53344  -0.44610  -0.39330
 Alpha  occ. eigenvalues --   -0.39064
 Alpha virt. eigenvalues --    0.03764   0.08014   0.08695   0.10170   0.11175
 Alpha virt. eigenvalues --    0.11495   0.15212   0.15757   0.16359   0.20036
 Alpha virt. eigenvalues --    0.20101   0.25008   0.32329   0.34079   0.35502

 Mulliken charges:
               1
     1  C   -0.093528
     2  C   -0.005097
     3  N   -0.205196
     4  H    0.104953
     5  H    0.103926
     6  H    0.094941
 Sum of Mulliken charges =   0.00000

 Dipole moment (field-independent basis, Debye):
    X=             -4.1100    Y=             -0.0052    Z=             -0.0180  Tot=              4.1101
 Quadrupole moment (field-independent basis, Debye-Ang):
   XX=            -21.2060   YY=            -17.6737   ZZ=            -17.6674
   XY=             -0.0247   XZ=             -0.1119   YZ=              0.0472

 Normal termination of Gaussian 09 at Wed Aug 26 15:58:42 2020.
