 Gaussian 09, Revision D.01,
 Gaussian 09:  ES64L-G09RevD.01 24-Apr-2013

 --------------------
 #p B2PLYPD3/Def2QZVP
 --------------------

 ------------
 cyanomethane
 ------------
 Symbolic Z-matrix:
 Charge =  0 Multiplicity = 1

                         Standard orientation:
 ---------------------------------------------------------------------
 Center     Atomic      Atomic             Coordinates (Angstroms)
 Number     Number       Type             X           Y           Z
 ---------------------------------------------------------------------
      1          6           0        1.176560   -0.046948   -0.014432
      2          6           0       -0.259047    0.070873    0.008252
      3          7           0       -1.431237   -0.030366   -0.000262
      4          1           0        1.537385   -0.102647    1.003333
      5          1           0        1.511034    0.951747   -0.379349
      6          1           0        1.465164   -0.780088   -0.585067
 ---------------------------------------------------------------------

 SCF Done:  E(RB2PLYPD3) =  -132.519362457     A.U. after   12 cycles
 E2(B2PLYPD3) =    -0.1822490229D+00 E(B2PLYPD3) =    -0.13270161147937D+03

 The electronic state is 1-A.
 Alpha  occ. eigenvalues --  -14.84684 -10.66673 -10.66034  -1.03304  -0.90552
 Alpha  occ. eigenvalues --   -0.60528  -0.56712  -0.53277  -0.44788  -0.38694
 Alpha  occ. eigenvalues --   -0.38138
 Alpha virt. eigenvalues --    0.03815   0.07661   0.07778   0.09910   0.11142
 Alpha virt. eigenvalues --    0.11429   0.15185   0.15564   0.16871   0.20110
 Alpha virt. eigenvalues --    0.20291   0.26042   0.32452   0.33755   0.35996

 Mulliken charges:
               1
     1  C   -0.084651
     2  C    0.005577
     3  N   -0.219233
     4  H    0.097018
     5  H    0.091605
     6  H    0.109684
 Sum of Mulliken charges =   0.00000

 Dipole moment (field-independent basis, Debye):
    X=              4.1202    Y=              0.0563    Z=              0.0144  Tot=              4.1206
 Quadrupole moment (field-independent basis, Debye-Ang):
   XX=            -21.1568   YY=            -17.6700   ZZ=            -17.7461
   XY=             -0.0713   XZ=              0.0839   YZ=              0.1254

 Normal termination of Gaussian 09 at Wed Aug 26 22:58:06 2020.
