 Gaussian 09, Revision D.01,
 Gaussian 09:  ES64L-G09RevD.01 24-Apr-2013

 --------------------
 #p B2PLYPD3/Def2QZVP
 --------------------

 ------------
 cyanomethane
 ------------
 Symbolic Z-matrix:
 Charge =  0 Multiplicity = 1

                         Standard orientation:
 ---------------------------------------------------------------------
 Center     Atomic      Atomic             Coordinates (Angstroms)
 Number     Number       Type             X           Y           Z
 ---------------------------------------------------------------------
      1          6           0       -1.170053    0.015354   -0.001050
      2          6           0        0.302381   -0.042122   -0.023719
      3          7           0        1.431239    0.011380    0.001157
      4          1           0       -1.541091    0.986386   -0.286266
      5          1           0       -1.454991   -0.150626    0.990618
      6          1           0       -1.816555   -0.754810   -0.563840
 ---------------------------------------------------------------------

 SCF Done:  E(RB2PLYPD3) =  -132.527269861     A.U. after   12 cycles
 E2(B2PLYPD3) =    -0.1787867997D+00 E(B2PLYPD3) =    -0.13270605666053D+03

 The electronic state is 1-A.
 Alpha  occ. eigenvalues --  -14.83734 -10.67180 -10.65913  -1.05239  -0.88833
 Alpha  occ. eigenvalues --   -0.60360  -0.54224  -0.51807  -0.44895  -0.39933
 Alpha  occ. eigenvalues --   -0.39677
 Alpha virt. eigenvalues --    0.03688   0.07349   0.08745   0.10374   0.11642
 Alpha virt. eigenvalues --    0.11911   0.15299   0.16187   0.17970   0.19943
 Alpha virt. eigenvalues --    0.20149   0.25161   0.31977   0.34930   0.35128

 Mulliken charges:
               1
     1  C   -0.077105
     2  C    0.002755
     3  N   -0.192275
     4  H    0.092111
     5  H    0.091479
     6  H    0.083035
 Sum of Mulliken charges =   0.00000

 Dipole moment (field-independent basis, Debye):
    X=             -4.1167    Y=             -0.0044    Z=              0.0699  Tot=              4.1173
 Quadrupole moment (field-independent basis, Debye-Ang):
   XX=            -20.5302   YY=            -17.7415   ZZ=            -17.9515
   XY=              0.0444   XZ=              0.0078   YZ=             -0.0836

 Normal termination of Gaussian 09 at Wed Aug 26 21:57:33 2020.
