 Gaussian 09, Revision D.01,
 Gaussian 09:  ES64L-G09RevD.01 24-Apr-2013

 --------------------
 #p B2PLYPD3/Def2QZVP
 --------------------

 ------------
 cyanomethane
 ------------
 Symbolic Z-matrix:
 Charge =  0 Multiplicity = 1

                         Standard orientation:
 ---------------------------------------------------------------------
 Center     Atomic      Atomic             Coordinates (Angstroms)
 Number     Number       Type             X           Y           Z
 ---------------------------------------------------------------------
      1          6           0        1.180112    0.011063   -0.014851
      2          6           0       -0.300590   -0.004922    0.064555
      3          7           0       -1.437285    0.004570   -0.030887
      4          1           0        1.634304    1.065310   -0.101642
      5          1           0        1.548293   -0.638024   -0.859034
      6          1           0        1.601270   -0.496123    0.878662
 ---------------------------------------------------------------------

 SCF Done:  E(RB2PLYPD3) =  -132.529384251     A.U. after   12 cycles
 E2(B2PLYPD3) =    -0.1800626704D+00 E(B2PLYPD3) =    -0.13270944692126D+03

 The electronic state is 1-A.
 Alpha  occ. eigenvalues --  -14.84015 -10.68481 -10.66138  -1.04751  -0.87721
 Alpha  occ. eigenvalues --   -0.59265  -0.52907  -0.52056  -0.44879  -0.39608
 Alpha  occ. eigenvalues --   -0.39344
 Alpha virt. eigenvalues --    0.03383   0.07346   0.07910   0.10156   0.11455
 Alpha virt. eigenvalues --    0.11744   0.15232   0.15951   0.17473   0.19905
 Alpha virt. eigenvalues --    0.20044   0.25245   0.32279   0.33767   0.34300

 Mulliken charges:
               1
     1  C   -0.092182
     2  C    0.001310
     3  N   -0.195779
     4  H    0.099175
     5  H    0.096070
     6  H    0.091406
 Sum of Mulliken charges =   0.00000

 Dipole moment (field-independent basis, Debye):
    X=              4.0942    Y=             -0.0494    Z=              0.0551  Tot=              4.0949
 Quadrupole moment (field-independent basis, Debye-Ang):
   XX=            -20.9021   YY=            -17.6408   ZZ=            -18.0272
   XY=             -0.0257   XZ=             -0.1369   YZ=              0.0030

 Normal termination of Gaussian 09 at Wed Aug 26 18:49:14 2020.
