 Gaussian 09, Revision D.01,
 Gaussian 09:  ES64L-G09RevD.01 24-Apr-2013

 --------------------
 #p B2PLYPD3/Def2QZVP
 --------------------

 ------------
 cyanomethane
 ------------
 Symbolic Z-matrix:
 Charge =  0 Multiplicity = 1

                         Standard orientation:
 ---------------------------------------------------------------------
 Center     Atomic      Atomic             Coordinates (Angstroms)
 Number     Number       Type             X           Y           Z
 ---------------------------------------------------------------------
      1          6           0        1.172665    0.040370    0.014384
      2          6           0       -0.254826   -0.039026   -0.044399
      3          7           0       -1.427640    0.022242    0.021671
      4          1           0        1.428741   -0.777994   -0.607204
      5          1           0        1.482885   -0.248062    0.934583
      6          1           0        1.574817    0.862296   -0.298993
 ---------------------------------------------------------------------

 SCF Done:  E(RB2PLYPD3) =  -132.512030411     A.U. after   12 cycles
 E2(B2PLYPD3) =    -0.1818471934D+00 E(B2PLYPD3) =    -0.13269387760443D+03

 The electronic state is 1-A.
 Alpha  occ. eigenvalues --  -14.84636 -10.66662 -10.64581  -1.03373  -0.91748
 Alpha  occ. eigenvalues --   -0.61574  -0.57395  -0.54392  -0.44802  -0.38762
 Alpha  occ. eigenvalues --   -0.38121
 Alpha virt. eigenvalues --    0.03978   0.08092   0.08340   0.09861   0.11045
 Alpha virt. eigenvalues --    0.11578   0.14918   0.15783   0.17571   0.20236
 Alpha virt. eigenvalues --    0.20343   0.26102   0.33082   0.34516   0.36445

 Mulliken charges:
               1
     1  C   -0.067380
     2  C    0.008962
     3  N   -0.220507
     4  H    0.087562
     5  H    0.093240
     6  H    0.098123
 Sum of Mulliken charges =   0.00000

 Dipole moment (field-independent basis, Debye):
    X=              4.1533    Y=             -0.0823    Z=             -0.0305  Tot=              4.1543
 Quadrupole moment (field-independent basis, Debye-Ang):
   XX=            -20.9220   YY=            -17.5849   ZZ=            -17.7688
   XY=              0.0908   XZ=              0.1065   YZ=             -0.0957

 Normal termination of Gaussian 09 at Wed Aug 26 18:56:06 2020.
