 Gaussian 09, Revision D.01,
 Gaussian 09:  ES64L-G09RevD.01 24-Apr-2013

 --------------------
 #p B2PLYPD3/Def2QZVP
 --------------------

 ------------
 cyanomethane
 ------------
 Symbolic Z-matrix:
 Charge =  0 Multiplicity = 1

                         Standard orientation:
 ---------------------------------------------------------------------
 Center     Atomic      Atomic             Coordinates (Angstroms)
 Number     Number       Type             X           Y           Z
 ---------------------------------------------------------------------
      1          6           0        1.172714   -0.007790   -0.003637
      2          6           0       -0.280503   -0.017858    0.002489
      3          7           0       -1.429544    0.010759   -0.003604
      4          1           0        1.567061    1.013417   -0.229914
      5          1           0        1.573555   -0.681574   -0.699795
      6          1           0        1.512926   -0.253264    0.961824
 ---------------------------------------------------------------------

 SCF Done:  E(RB2PLYPD3) =  -132.533812844     A.U. after   12 cycles
 E2(B2PLYPD3) =    -0.1798398387D+00 E(B2PLYPD3) =    -0.13271365268265D+03

 The electronic state is 1-A.
 Alpha  occ. eigenvalues --  -14.84058 -10.66525 -10.66092  -1.04347  -0.89669
 Alpha  occ. eigenvalues --   -0.60183  -0.54967  -0.53390  -0.44798  -0.39324
 Alpha  occ. eigenvalues --   -0.39105
 Alpha virt. eigenvalues --    0.03796   0.07848   0.08496   0.10192   0.11372
 Alpha virt. eigenvalues --    0.11640   0.15517   0.16168   0.16784   0.20041
 Alpha virt. eigenvalues --    0.20110   0.25442   0.32898   0.34361   0.35422

 Mulliken charges:
               1
     1  C   -0.075209
     2  C   -0.001721
     3  N   -0.203931
     4  H    0.090645
     5  H    0.095761
     6  H    0.094456
 Sum of Mulliken charges =   0.00000

 Dipole moment (field-independent basis, Debye):
    X=              4.1259    Y=             -0.0232    Z=              0.0222  Tot=              4.1261
 Quadrupole moment (field-independent basis, Debye-Ang):
   XX=            -20.8817   YY=            -17.7170   ZZ=            -17.7442
   XY=              0.0570   XZ=             -0.0270   YZ=              0.0357

 Normal termination of Gaussian 09 at Thu Aug 27 00:09:29 2020.
