 Gaussian 09, Revision D.01,
 Gaussian 09:  ES64L-G09RevD.01 24-Apr-2013

 --------------------
 #p B2PLYPD3/Def2QZVP
 --------------------

 ------------
 cyanomethane
 ------------
 Symbolic Z-matrix:
 Charge =  0 Multiplicity = 1

                         Standard orientation:
 ---------------------------------------------------------------------
 Center     Atomic      Atomic             Coordinates (Angstroms)
 Number     Number       Type             X           Y           Z
 ---------------------------------------------------------------------
      1          6           0       -1.180633   -0.001164    0.015309
      2          6           0        0.278509    0.006028   -0.035609
      3          7           0        1.424965   -0.004698    0.018805
      4          1           0       -1.543548   -0.023825    1.026943
      5          1           0       -1.527019   -0.922972   -0.540140
      6          1           0       -1.491444    0.950502   -0.496637
 ---------------------------------------------------------------------

 SCF Done:  E(RB2PLYPD3) =  -132.532323149     A.U. after   12 cycles
 E2(B2PLYPD3) =    -0.1802021958D+00 E(B2PLYPD3) =    -0.13271252534492D+03

 The electronic state is 1-A.
 Alpha  occ. eigenvalues --  -14.83872 -10.67778 -10.65920  -1.04308  -0.88834
 Alpha  occ. eigenvalues --   -0.58904  -0.53777  -0.53626  -0.44630  -0.39132
 Alpha  occ. eigenvalues --   -0.39031
 Alpha virt. eigenvalues --    0.03635   0.07791   0.08010   0.10122   0.11565
 Alpha virt. eigenvalues --    0.11594   0.15294   0.15625   0.16487   0.20061
 Alpha virt. eigenvalues --    0.20084   0.25364   0.32459   0.33759   0.34541

 Mulliken charges:
               1
     1  C   -0.105541
     2  C   -0.001997
     3  N   -0.203481
     4  H    0.105574
     5  H    0.102350
     6  H    0.103095
 Sum of Mulliken charges =   0.00000

 Dipole moment (field-independent basis, Debye):
    X=             -4.0799    Y=              0.0078    Z=             -0.0100  Tot=              4.0799
 Quadrupole moment (field-independent basis, Debye-Ang):
   XX=            -21.3319   YY=            -17.5988   ZZ=            -17.7433
   XY=              0.0552   XZ=             -0.1781   YZ=             -0.0047

 Normal termination of Gaussian 09 at Wed Aug 26 12:01:29 2020.
