 Gaussian 09, Revision D.01,
 Gaussian 09:  ES64L-G09RevD.01 24-Apr-2013

 --------------------
 #p B2PLYPD3/Def2QZVP
 --------------------

 ------------
 cyanomethane
 ------------
 Symbolic Z-matrix:
 Charge =  0 Multiplicity = 1

                         Standard orientation:
 ---------------------------------------------------------------------
 Center     Atomic      Atomic             Coordinates (Angstroms)
 Number     Number       Type             X           Y           Z
 ---------------------------------------------------------------------
      1          6           0        1.171841   -0.015249    0.000535
      2          6           0       -0.272015    0.022812   -0.024962
      3          7           0       -1.429013   -0.011229    0.018700
      4          1           0        1.613596   -0.094475    1.012065
      5          1           0        1.491824    0.990470   -0.409615
      6          1           0        1.498720   -0.862767   -0.586788
 ---------------------------------------------------------------------

 SCF Done:  E(RB2PLYPD3) =  -132.531247297     A.U. after   12 cycles
 E2(B2PLYPD3) =    -0.1811237645D+00 E(B2PLYPD3) =    -0.13271237106154D+03

 The electronic state is 1-A.
 Alpha  occ. eigenvalues --  -14.84229 -10.67545 -10.66259  -1.03973  -0.89170
 Alpha  occ. eigenvalues --   -0.59618  -0.54711  -0.52667  -0.44763  -0.38933
 Alpha  occ. eigenvalues --   -0.38659
 Alpha virt. eigenvalues --    0.03644   0.07216   0.07963   0.10072   0.11378
 Alpha virt. eigenvalues --    0.11688   0.15365   0.15669   0.16775   0.20066
 Alpha virt. eigenvalues --    0.20190   0.25638   0.32549   0.33729   0.34769

 Mulliken charges:
               1
     1  C   -0.095701
     2  C    0.001680
     3  N   -0.208595
     4  H    0.097592
     5  H    0.099240
     6  H    0.105784
 Sum of Mulliken charges =   0.00000

 Dipole moment (field-independent basis, Debye):
    X=              4.1054    Y=              0.0137    Z=             -0.0074  Tot=              4.1054
 Quadrupole moment (field-independent basis, Debye-Ang):
   XX=            -21.1767   YY=            -17.5895   ZZ=            -17.8902
   XY=             -0.0804   XZ=              0.2507   YZ=              0.0558

 Normal termination of Gaussian 09 at Wed Aug 26 11:56:11 2020.
