 Gaussian 09, Revision D.01,
 Gaussian 09:  ES64L-G09RevD.01 24-Apr-2013

 --------------------
 #p B2PLYPD3/Def2QZVP
 --------------------

 ------------
 cyanomethane
 ------------
 Symbolic Z-matrix:
 Charge =  0 Multiplicity = 1

                         Standard orientation:
 ---------------------------------------------------------------------
 Center     Atomic      Atomic             Coordinates (Angstroms)
 Number     Number       Type             X           Y           Z
 ---------------------------------------------------------------------
      1          6           0        1.174037   -0.009965   -0.020983
      2          6           0       -0.277299    0.032043    0.018027
      3          7           0       -1.439516   -0.020010   -0.008665
      4          1           0        1.508419    1.039794   -0.013009
      5          1           0        1.615031   -0.548660   -0.795160
      6          1           0        1.572729   -0.483532    0.886559
 ---------------------------------------------------------------------

 SCF Done:  E(RB2PLYPD3) =  -132.530576151     A.U. after   12 cycles
 E2(B2PLYPD3) =    -0.1813363426D+00 E(B2PLYPD3) =    -0.13271191249387D+03

 The electronic state is 1-A.
 Alpha  occ. eigenvalues --  -14.84546 -10.66815 -10.66621  -1.03837  -0.89501
 Alpha  occ. eigenvalues --   -0.60904  -0.54320  -0.53062  -0.44930  -0.38977
 Alpha  occ. eigenvalues --   -0.38742
 Alpha virt. eigenvalues --    0.03763   0.07464   0.07837   0.10010   0.11312
 Alpha virt. eigenvalues --    0.11578   0.15388   0.15955   0.17240   0.20065
 Alpha virt. eigenvalues --    0.20253   0.25574   0.32717   0.34065   0.35218

 Mulliken charges:
               1
     1  C   -0.073212
     2  C    0.005002
     3  N   -0.210320
     4  H    0.094120
     5  H    0.096430
     6  H    0.087980
 Sum of Mulliken charges =   0.00000

 Dipole moment (field-independent basis, Debye):
    X=              4.1423    Y=              0.0076    Z=              0.0262  Tot=              4.1424
 Quadrupole moment (field-independent basis, Debye-Ang):
   XX=            -20.8351   YY=            -17.6837   ZZ=            -17.9606
   XY=             -0.2317   XZ=             -0.0285   YZ=              0.0495

 Normal termination of Gaussian 09 at Wed Aug 26 13:16:02 2020.
