 Gaussian 09, Revision D.01,
 Gaussian 09:  ES64L-G09RevD.01 24-Apr-2013

 --------------------
 #p B2PLYPD3/Def2QZVP
 --------------------

 ------------
 cyanomethane
 ------------
 Symbolic Z-matrix:
 Charge =  0 Multiplicity = 1

                         Standard orientation:
 ---------------------------------------------------------------------
 Center     Atomic      Atomic             Coordinates (Angstroms)
 Number     Number       Type             X           Y           Z
 ---------------------------------------------------------------------
      1          6           0        1.179057    0.009983    0.000537
      2          6           0       -0.286942   -0.021111    0.002416
      3          7           0       -1.434658    0.010921   -0.002468
      4          1           0        1.577154    1.018621   -0.158313
      5          1           0        1.568345   -0.656272   -0.775563
      6          1           0        1.544419   -0.372021    0.933431
 ---------------------------------------------------------------------

 SCF Done:  E(RB2PLYPD3) =  -132.535559517     A.U. after   12 cycles
 E2(B2PLYPD3) =    -0.1799262796D+00 E(B2PLYPD3) =    -0.13271548579633D+03

 The electronic state is 1-A.
 Alpha  occ. eigenvalues --  -14.84070 -10.67115 -10.66152  -1.04381  -0.89047
 Alpha  occ. eigenvalues --   -0.59778  -0.53992  -0.53490  -0.44803  -0.39340
 Alpha  occ. eigenvalues --   -0.39231
 Alpha virt. eigenvalues --    0.03747   0.07870   0.08232   0.10194   0.11449
 Alpha virt. eigenvalues --    0.11547   0.15392   0.16105   0.16899   0.20042
 Alpha virt. eigenvalues --    0.20065   0.25243   0.32738   0.34560   0.34876

 Mulliken charges:
               1
     1  C   -0.080378
     2  C   -0.001957
     3  N   -0.202370
     4  H    0.097220
     5  H    0.092903
     6  H    0.094582
 Sum of Mulliken charges =   0.00000

 Dipole moment (field-independent basis, Debye):
    X=              4.1257    Y=             -0.0335    Z=              0.0135  Tot=              4.1259
 Quadrupole moment (field-independent basis, Debye-Ang):
   XX=            -20.9064   YY=            -17.6838   ZZ=            -17.8386
   XY=              0.0324   XZ=             -0.0107   YZ=             -0.0165

 Normal termination of Gaussian 09 at Thu Aug 27 01:05:13 2020.
