 Gaussian 09, Revision D.01,
 Gaussian 09:  ES64L-G09RevD.01 24-Apr-2013

 --------------------
 #p B2PLYPD3/Def2QZVP
 --------------------

 ------------
 cyanomethane
 ------------
 Symbolic Z-matrix:
 Charge =  0 Multiplicity = 1

                         Standard orientation:
 ---------------------------------------------------------------------
 Center     Atomic      Atomic             Coordinates (Angstroms)
 Number     Number       Type             X           Y           Z
 ---------------------------------------------------------------------
      1          6           0       -1.173105    0.009915    0.010236
      2          6           0        0.268690   -0.024828    0.001332
      3          7           0        1.427154    0.007883   -0.001863
      4          1           0       -1.520006   -0.000673    1.026612
      5          1           0       -1.565993   -0.924379   -0.551746
      6          1           0       -1.477586    0.959353   -0.531233
 ---------------------------------------------------------------------

 SCF Done:  E(RB2PLYPD3) =  -132.529883503     A.U. after   12 cycles
 E2(B2PLYPD3) =    -0.1812843624D+00 E(B2PLYPD3) =    -0.13271116786588D+03

 The electronic state is 1-A.
 Alpha  occ. eigenvalues --  -14.84164 -10.68002 -10.66192  -1.03901  -0.88991
 Alpha  occ. eigenvalues --   -0.58973  -0.54259  -0.53030  -0.44686  -0.38808
 Alpha  occ. eigenvalues --   -0.38612
 Alpha virt. eigenvalues --    0.03533   0.07188   0.07814   0.10123   0.11464
 Alpha virt. eigenvalues --    0.11653   0.15296   0.15904   0.16028   0.20128
 Alpha virt. eigenvalues --    0.20131   0.25569   0.32191   0.33493   0.34400

 Mulliken charges:
               1
     1  C   -0.107460
     2  C    0.001083
     3  N   -0.209237
     4  H    0.108115
     5  H    0.100698
     6  H    0.106801
 Sum of Mulliken charges =   0.00000

 Dipole moment (field-independent basis, Debye):
    X=             -4.0934    Y=             -0.0040    Z=              0.0175  Tot=              4.0935
 Quadrupole moment (field-independent basis, Debye-Ang):
   XX=            -21.3722   YY=            -17.6694   ZZ=            -17.7395
   XY=              0.0186   XZ=             -0.0244   YZ=             -0.0278

 Normal termination of Gaussian 09 at Wed Aug 26 15:24:02 2020.
