 Gaussian 09, Revision D.01,
 Gaussian 09:  ES64L-G09RevD.01 24-Apr-2013

 --------------------
 #p B2PLYPD3/Def2QZVP
 --------------------

 ------------
 cyanomethane
 ------------
 Symbolic Z-matrix:
 Charge =  0 Multiplicity = 1

                         Standard orientation:
 ---------------------------------------------------------------------
 Center     Atomic      Atomic             Coordinates (Angstroms)
 Number     Number       Type             X           Y           Z
 ---------------------------------------------------------------------
      1          6           0        1.175581    0.015246   -0.002824
      2          6           0       -0.296151   -0.043863   -0.013410
      3          7           0       -1.432364    0.023166    0.009080
      4          1           0        1.598797   -0.276944    1.000848
      5          1           0        1.597751    1.004884   -0.245031
      6          1           0        1.553418   -0.718401   -0.721969
 ---------------------------------------------------------------------

 SCF Done:  E(RB2PLYPD3) =  -132.533370478     A.U. after   12 cycles
 E2(B2PLYPD3) =    -0.1794862353D+00 E(B2PLYPD3) =    -0.13271285671301D+03

 The electronic state is 1-A.
 Alpha  occ. eigenvalues --  -14.83895 -10.67749 -10.65981  -1.04832  -0.88353
 Alpha  occ. eigenvalues --   -0.59674  -0.53471  -0.52556  -0.44851  -0.39600
 Alpha  occ. eigenvalues --   -0.39467
 Alpha virt. eigenvalues --    0.03598   0.07595   0.08206   0.10147   0.11544
 Alpha virt. eigenvalues --    0.11735   0.15403   0.16087   0.17299   0.19924
 Alpha virt. eigenvalues --    0.20067   0.25295   0.32662   0.34129   0.34696

 Mulliken charges:
               1
     1  C   -0.085163
     2  C   -0.001302
     3  N   -0.195565
     4  H    0.091077
     5  H    0.097141
     6  H    0.093813
 Sum of Mulliken charges =   0.00000

 Dipole moment (field-independent basis, Debye):
    X=              4.0975    Y=             -0.0436    Z=             -0.0166  Tot=              4.0978
 Quadrupole moment (field-independent basis, Debye-Ang):
   XX=            -20.8597   YY=            -17.7449   ZZ=            -17.8384
   XY=              0.1429   XZ=              0.0801   YZ=              0.0101

 Normal termination of Gaussian 09 at Wed Aug 26 14:04:07 2020.
