 Gaussian 09, Revision D.01,
 Gaussian 09:  ES64L-G09RevD.01 24-Apr-2013

 --------------------
 #p B2PLYPD3/Def2QZVP
 --------------------

 ------------
 cyanomethane
 ------------
 Symbolic Z-matrix:
 Charge =  0 Multiplicity = 1

                         Standard orientation:
 ---------------------------------------------------------------------
 Center     Atomic      Atomic             Coordinates (Angstroms)
 Number     Number       Type             X           Y           Z
 ---------------------------------------------------------------------
      1          6           0        1.173050   -0.007466   -0.013923
      2          6           0       -0.269694    0.011276    0.013560
      3          7           0       -1.434315   -0.003305   -0.003447
      4          1           0        1.563675   -0.228279    0.982618
      5          1           0        1.554640    0.970580   -0.284313
      6          1           0        1.501748   -0.742030   -0.671994
 ---------------------------------------------------------------------

 SCF Done:  E(RB2PLYPD3) =  -132.533141423     A.U. after   11 cycles
 E2(B2PLYPD3) =    -0.1811460332D+00 E(B2PLYPD3) =    -0.13271428745633D+03

 The electronic state is 1-A.
 Alpha  occ. eigenvalues --  -14.84437 -10.66506 -10.66443  -1.03736  -0.89932
 Alpha  occ. eigenvalues --   -0.60199  -0.55293  -0.53624  -0.44820  -0.38880
 Alpha  occ. eigenvalues --   -0.38671
 Alpha virt. eigenvalues --    0.03841   0.07679   0.08030   0.10145   0.11267
 Alpha virt. eigenvalues --    0.11488   0.15502   0.16130   0.16430   0.20121
 Alpha virt. eigenvalues --    0.20186   0.25614   0.32801   0.34377   0.35348

 Mulliken charges:
               1
     1  C   -0.076134
     2  C    0.000238
     3  N   -0.212063
     4  H    0.091866
     5  H    0.095440
     6  H    0.100653
 Sum of Mulliken charges =   0.00000

 Dipole moment (field-independent basis, Debye):
    X=              4.1453    Y=              0.0008    Z=              0.0120  Tot=              4.1453
 Quadrupole moment (field-independent basis, Debye-Ang):
   XX=            -20.9685   YY=            -17.6971   ZZ=            -17.8020
   XY=              0.0076   XZ=              0.0421   YZ=              0.0509

 Normal termination of Gaussian 09 at Thu Aug 27 00:04:10 2020.
