 Gaussian 09, Revision D.01,
 Gaussian 09:  ES64L-G09RevD.01 24-Apr-2013

 --------------------
 #p B2PLYPD3/Def2QZVP
 --------------------

 ------------
 cyanomethane
 ------------
 Symbolic Z-matrix:
 Charge =  0 Multiplicity = 1

                         Standard orientation:
 ---------------------------------------------------------------------
 Center     Atomic      Atomic             Coordinates (Angstroms)
 Number     Number       Type             X           Y           Z
 ---------------------------------------------------------------------
      1          6           0        1.176253    0.007743    0.000853
      2          6           0       -0.291469   -0.026130   -0.001892
      3          7           0       -1.439925    0.014518    0.002525
      4          1           0        1.603642   -0.371364    0.921277
      5          1           0        1.608103    0.998613   -0.145564
      6          1           0        1.559025   -0.618557   -0.787153
 ---------------------------------------------------------------------

 SCF Done:  E(RB2PLYPD3) =  -132.534709596     A.U. after   12 cycles
 E2(B2PLYPD3) =    -0.1800524176D+00 E(B2PLYPD3) =    -0.13271476201357D+03

 The electronic state is 1-A.
 Alpha  occ. eigenvalues --  -14.84232 -10.66986 -10.66341  -1.04422  -0.89019
 Alpha  occ. eigenvalues --   -0.60458  -0.53590  -0.53287  -0.44933  -0.39362
 Alpha  occ. eigenvalues --   -0.39335
 Alpha virt. eigenvalues --    0.03747   0.07735   0.08150   0.10174   0.11470
 Alpha virt. eigenvalues --    0.11531   0.15445   0.16371   0.17179   0.20016
 Alpha virt. eigenvalues --    0.20097   0.25234   0.32741   0.34797   0.34902

 Mulliken charges:
               1
     1  C   -0.068600
     2  C    0.001279
     3  N   -0.202158
     4  H    0.088980
     5  H    0.090711
     6  H    0.089788
 Sum of Mulliken charges =   0.00000

 Dipole moment (field-independent basis, Debye):
    X=              4.1387    Y=             -0.0313    Z=             -0.0066  Tot=              4.1388
 Quadrupole moment (field-independent basis, Debye-Ang):
   XX=            -20.6865   YY=            -17.8132   ZZ=            -17.8505
   XY=              0.0856   XZ=              0.0354   YZ=              0.0064

 Normal termination of Gaussian 09 at Wed Aug 26 12:55:05 2020.
