 Gaussian 09, Revision D.01,
 Gaussian 09:  ES64L-G09RevD.01 24-Apr-2013

 --------------------
 #p B2PLYPD3/Def2QZVP
 --------------------

 ------------
 cyanomethane
 ------------
 Symbolic Z-matrix:
 Charge =  0 Multiplicity = 1

                         Standard orientation:
 ---------------------------------------------------------------------
 Center     Atomic      Atomic             Coordinates (Angstroms)
 Number     Number       Type             X           Y           Z
 ---------------------------------------------------------------------
      1          6           0       -1.193143    0.015371    0.013912
      2          6           0        0.269693   -0.035270    0.008159
      3          7           0        1.444323    0.011487   -0.006809
      4          1           0       -1.504754    0.037247    1.000940
      5          1           0       -1.592461   -0.912386   -0.523499
      6          1           0       -1.472347    0.914131   -0.562200
 ---------------------------------------------------------------------

 SCF Done:  E(RB2PLYPD3) =  -132.528181475     A.U. after   12 cycles
 E2(B2PLYPD3) =    -0.1824258595D+00 E(B2PLYPD3) =    -0.13271060733431D+03

 The electronic state is 1-A.
 Alpha  occ. eigenvalues --  -14.84671 -10.67471 -10.66786  -1.03204  -0.89290
 Alpha  occ. eigenvalues --   -0.59047  -0.55381  -0.53107  -0.44714  -0.38625
 Alpha  occ. eigenvalues --   -0.38357
 Alpha virt. eigenvalues --    0.03626   0.07189   0.08083   0.10140   0.11000
 Alpha virt. eigenvalues --    0.11325   0.15144   0.15862   0.15920   0.20165
 Alpha virt. eigenvalues --    0.20203   0.25229   0.32018   0.33773   0.34928

 Mulliken charges:
               1
     1  C   -0.097430
     2  C    0.000836
     3  N   -0.216921
     4  H    0.108975
     5  H    0.097842
     6  H    0.106698
 Sum of Mulliken charges =   0.00000

 Dipole moment (field-independent basis, Debye):
    X=             -4.1415    Y=             -0.0034    Z=              0.0119  Tot=              4.1415
 Quadrupole moment (field-independent basis, Debye-Ang):
   XX=            -21.2872   YY=            -17.7832   ZZ=            -17.7333
   XY=              0.0198   XZ=              0.0468   YZ=             -0.0349

 Normal termination of Gaussian 09 at Wed Aug 26 14:27:15 2020.
