 Gaussian 09, Revision D.01,
 Gaussian 09:  ES64L-G09RevD.01 24-Apr-2013

 --------------------
 #p B2PLYPD3/Def2QZVP
 --------------------

 ------------
 cyanomethane
 ------------
 Symbolic Z-matrix:
 Charge =  0 Multiplicity = 1

                         Standard orientation:
 ---------------------------------------------------------------------
 Center     Atomic      Atomic             Coordinates (Angstroms)
 Number     Number       Type             X           Y           Z
 ---------------------------------------------------------------------
      1          6           0       -1.156708    0.001687   -0.012653
      2          6           0        0.268921   -0.020644    0.016592
      3          7           0        1.430930    0.009483   -0.007362
      4          1           0       -1.561722   -0.003859    0.990203
      5          1           0       -1.578078   -0.833293   -0.499276
      6          1           0       -1.549992    0.884517   -0.463021
 ---------------------------------------------------------------------

 SCF Done:  E(RB2PLYPD3) =  -132.532813268     A.U. after   11 cycles
 E2(B2PLYPD3) =    -0.1809942633D+00 E(B2PLYPD3) =    -0.13271380753151D+03

 The electronic state is 1-A.
 Alpha  occ. eigenvalues --  -14.84476 -10.66451 -10.66093  -1.03938  -0.90209
 Alpha  occ. eigenvalues --   -0.61353  -0.54671  -0.53712  -0.44958  -0.38918
 Alpha  occ. eigenvalues --   -0.38733
 Alpha virt. eigenvalues --    0.03855   0.07622   0.07819   0.10092   0.11417
 Alpha virt. eigenvalues --    0.11617   0.15718   0.16283   0.16951   0.20135
 Alpha virt. eigenvalues --    0.20174   0.25968   0.33132   0.34674   0.35329

 Mulliken charges:
               1
     1  C   -0.059951
     2  C    0.003551
     3  N   -0.210513
     4  H    0.085636
     5  H    0.090614
     6  H    0.090663
 Sum of Mulliken charges =   0.00000

 Dipole moment (field-independent basis, Debye):
    X=             -4.1530    Y=             -0.0086    Z=              0.0218  Tot=              4.1531
 Quadrupole moment (field-independent basis, Debye-Ang):
   XX=            -20.7051   YY=            -17.7451   ZZ=            -17.8488
   XY=             -0.0427   XZ=              0.0101   YZ=              0.0131

 Normal termination of Gaussian 09 at Wed Aug 26 11:42:21 2020.
