 Gaussian 09, Revision D.01,
 Gaussian 09:  ES64L-G09RevD.01 24-Apr-2013

 --------------------
 #p B2PLYPD3/Def2QZVP
 --------------------

 ------------
 cyanomethane
 ------------
 Symbolic Z-matrix:
 Charge =  0 Multiplicity = 1

                         Standard orientation:
 ---------------------------------------------------------------------
 Center     Atomic      Atomic             Coordinates (Angstroms)
 Number     Number       Type             X           Y           Z
 ---------------------------------------------------------------------
      1          6           0        1.188459   -0.000737    0.016468
      2          6           0       -0.267759    0.004490   -0.037997
      3          7           0       -1.444663   -0.001812    0.016908
      4          1           0        1.537873    1.026441   -0.167678
      5          1           0        1.537736   -0.669475   -0.789275
      6          1           0        1.512833   -0.366799    0.967771
 ---------------------------------------------------------------------

 SCF Done:  E(RB2PLYPD3) =  -132.531376405     A.U. after   12 cycles
 E2(B2PLYPD3) =    -0.1825998087D+00 E(B2PLYPD3) =    -0.13271397621319D+03

 The electronic state is 1-A.
 Alpha  occ. eigenvalues --  -14.84770 -10.67320 -10.66862  -1.03137  -0.89351
 Alpha  occ. eigenvalues --   -0.59339  -0.54583  -0.53894  -0.44771  -0.38495
 Alpha  occ. eigenvalues --   -0.38377
 Alpha virt. eigenvalues --    0.03693   0.07476   0.07591   0.10090   0.11143
 Alpha virt. eigenvalues --    0.11217   0.15278   0.15655   0.16263   0.20194
 Alpha virt. eigenvalues --    0.20206   0.25396   0.32359   0.34101   0.34809

 Mulliken charges:
               1
     1  C   -0.092233
     2  C    0.001740
     3  N   -0.217702
     4  H    0.102278
     5  H    0.100013
     6  H    0.105904
 Sum of Mulliken charges =   0.00000

 Dipole moment (field-independent basis, Debye):
    X=              4.1480    Y=             -0.0036    Z=             -0.0182  Tot=              4.1481
 Quadrupole moment (field-independent basis, Debye-Ang):
   XX=            -21.2168   YY=            -17.7625   ZZ=            -17.7872
   XY=             -0.0149   XZ=              0.0656   YZ=             -0.0276

 Normal termination of Gaussian 09 at Wed Aug 26 13:11:41 2020.
