 Gaussian 09, Revision D.01,
 Gaussian 09:  ES64L-G09RevD.01 24-Apr-2013

 --------------------
 #p B2PLYPD3/Def2QZVP
 --------------------

 ------------
 cyanomethane
 ------------
 Symbolic Z-matrix:
 Charge =  0 Multiplicity = 1

                         Standard orientation:
 ---------------------------------------------------------------------
 Center     Atomic      Atomic             Coordinates (Angstroms)
 Number     Number       Type             X           Y           Z
 ---------------------------------------------------------------------
      1          6           0       -1.183539   -0.003350   -0.002650
      2          6           0        0.280955    0.013656    0.017642
      3          7           0        1.436029   -0.008657   -0.010130
      4          1           0       -1.531120   -0.052008    1.005814
      5          1           0       -1.574918   -0.864987   -0.555229
      6          1           0       -1.530659    0.915752   -0.469634
 ---------------------------------------------------------------------

 SCF Done:  E(RB2PLYPD3) =  -132.535135333     A.U. after   12 cycles
 E2(B2PLYPD3) =    -0.1804906006D+00 E(B2PLYPD3) =    -0.13271562593363D+03

 The electronic state is 1-A.
 Alpha  occ. eigenvalues --  -14.84207 -10.67040 -10.66285  -1.04042  -0.89250
 Alpha  occ. eigenvalues --   -0.59513  -0.54356  -0.53804  -0.44757  -0.39074
 Alpha  occ. eigenvalues --   -0.39055
 Alpha virt. eigenvalues --    0.03756   0.07796   0.08278   0.10182   0.11345
 Alpha virt. eigenvalues --    0.11432   0.15356   0.15948   0.16616   0.20085
 Alpha virt. eigenvalues --    0.20108   0.25237   0.32699   0.34631   0.34771

 Mulliken charges:
               1
     1  C   -0.084840
     2  C   -0.002157
     3  N   -0.206807
     4  H    0.098138
     5  H    0.097514
     6  H    0.098152
 Sum of Mulliken charges =   0.00000

 Dipole moment (field-independent basis, Debye):
    X=             -4.1304    Y=              0.0140    Z=              0.0227  Tot=              4.1305
 Quadrupole moment (field-independent basis, Debye-Ang):
   XX=            -21.0286   YY=            -17.7219   ZZ=            -17.7595
   XY=              0.0762   XZ=              0.0558   YZ=             -0.0107

 Normal termination of Gaussian 09 at Wed Aug 26 09:58:28 2020.
