 Gaussian 09, Revision D.01,
 Gaussian 09:  ES64L-G09RevD.01 24-Apr-2013

 --------------------
 #p B2PLYPD3/Def2QZVP
 --------------------

 ------------
 cyanomethane
 ------------
 Symbolic Z-matrix:
 Charge =  0 Multiplicity = 1

                         Standard orientation:
 ---------------------------------------------------------------------
 Center     Atomic      Atomic             Coordinates (Angstroms)
 Number     Number       Type             X           Y           Z
 ---------------------------------------------------------------------
      1          6           0       -1.178461   -0.003264    0.005344
      2          6           0        0.284397    0.035325   -0.003989
      3          7           0        1.419096   -0.016526   -0.003174
      4          1           0       -1.452974   -0.392389    0.923010
      5          1           0       -1.559735   -0.662993   -0.762830
      6          1           0       -1.556575    0.978696   -0.146101
 ---------------------------------------------------------------------

 SCF Done:  E(RB2PLYPD3) =  -132.533887199     A.U. after   12 cycles
 E2(B2PLYPD3) =    -0.1785176512D+00 E(B2PLYPD3) =    -0.13271240485039D+03

 The electronic state is 1-A.
 Alpha  occ. eigenvalues --  -14.83555 -10.66186 -10.65569  -1.04803  -0.89835
 Alpha  occ. eigenvalues --   -0.59397  -0.55435  -0.54038  -0.44618  -0.39620
 Alpha  occ. eigenvalues --   -0.39493
 Alpha virt. eigenvalues --    0.03904   0.08421   0.08974   0.10243   0.11476
 Alpha virt. eigenvalues --    0.11675   0.15475   0.16053   0.16617   0.19969
 Alpha virt. eigenvalues --    0.20074   0.25315   0.33075   0.34852   0.35461

 Mulliken charges:
               1
     1  C   -0.082438
     2  C   -0.007778
     3  N   -0.197533
     4  H    0.098810
     5  H    0.092767
     6  H    0.096172
 Sum of Mulliken charges =   0.00000

 Dipole moment (field-independent basis, Debye):
    X=             -4.0971    Y=              0.0106    Z=              0.0158  Tot=              4.0971
 Quadrupole moment (field-independent basis, Debye-Ang):
   XX=            -21.0066   YY=            -17.5607   ZZ=            -17.6812
   XY=              0.1024   XZ=              0.0772   YZ=             -0.0407

 Normal termination of Gaussian 09 at Wed Aug 26 10:33:44 2020.
