 Gaussian 09, Revision D.01,
 Gaussian 09:  ES64L-G09RevD.01 24-Apr-2013

 --------------------
 #p B2PLYPD3/Def2QZVP
 --------------------

 ------------
 cyanomethane
 ------------
 Symbolic Z-matrix:
 Charge =  0 Multiplicity = 1

                         Standard orientation:
 ---------------------------------------------------------------------
 Center     Atomic      Atomic             Coordinates (Angstroms)
 Number     Number       Type             X           Y           Z
 ---------------------------------------------------------------------
      1          6           0        1.187158    0.001275   -0.001076
      2          6           0       -0.277336   -0.003182    0.018411
      3          7           0       -1.439361    0.004876   -0.010583
      4          1           0        1.523527   -0.028393    1.018215
      5          1           0        1.584786    0.907180   -0.506034
      6          1           0        1.508282   -0.901475   -0.542107
 ---------------------------------------------------------------------

 SCF Done:  E(RB2PLYPD3) =  -132.533812835     A.U. after   12 cycles
 E2(B2PLYPD3) =    -0.1812230372D+00 E(B2PLYPD3) =    -0.13271503587197D+03

 The electronic state is 1-A.
 Alpha  occ. eigenvalues --  -14.84360 -10.67428 -10.66458  -1.03746  -0.89078
 Alpha  occ. eigenvalues --   -0.59185  -0.54356  -0.53625  -0.44736  -0.38875
 Alpha  occ. eigenvalues --   -0.38823
 Alpha virt. eigenvalues --    0.03685   0.07561   0.08106   0.10171   0.11269
 Alpha virt. eigenvalues --    0.11386   0.15262   0.15793   0.16454   0.20117
 Alpha virt. eigenvalues --    0.20142   0.25198   0.32490   0.34313   0.34605

 Mulliken charges:
               1
     1  C   -0.092542
     2  C   -0.001149
     3  N   -0.210176
     4  H    0.101996
     5  H    0.100172
     6  H    0.101699
 Sum of Mulliken charges =   0.00000

 Dipole moment (field-independent basis, Debye):
    X=              4.1338    Y=             -0.0123    Z=              0.0212  Tot=              4.1338
 Quadrupole moment (field-independent basis, Debye-Ang):
   XX=            -21.1517   YY=            -17.7405   ZZ=            -17.7613
   XY=              0.0735   XZ=             -0.0589   YZ=              0.0079

 Normal termination of Gaussian 09 at Wed Aug 26 15:14:55 2020.
