 Gaussian 09, Revision D.01,
 Gaussian 09:  ES64L-G09RevD.01 24-Apr-2013

 --------------------
 #p B2PLYPD3/Def2QZVP
 --------------------

 ------------
 cyanomethane
 ------------
 Symbolic Z-matrix:
 Charge =  0 Multiplicity = 1

                         Standard orientation:
 ---------------------------------------------------------------------
 Center     Atomic      Atomic             Coordinates (Angstroms)
 Number     Number       Type             X           Y           Z
 ---------------------------------------------------------------------
      1          6           0        1.172815   -0.003657    0.000385
      2          6           0       -0.271695    0.007289   -0.022128
      3          7           0       -1.432100   -0.004263    0.005393
      4          1           0        1.545330    1.046488   -0.170906
      5          1           0        1.609342   -0.703418   -0.728316
      6          1           0        1.463305   -0.335026    0.991930
 ---------------------------------------------------------------------

 SCF Done:  E(RB2PLYPD3) =  -132.533153255     A.U. after   12 cycles
 E2(B2PLYPD3) =    -0.1812115379D+00 E(B2PLYPD3) =    -0.13271436479262D+03

 The electronic state is 1-A.
 Alpha  occ. eigenvalues --  -14.84300 -10.67481 -10.66351  -1.03871  -0.89219
 Alpha  occ. eigenvalues --   -0.59590  -0.53855  -0.53706  -0.44774  -0.38829
 Alpha  occ. eigenvalues --   -0.38724
 Alpha virt. eigenvalues --    0.03679   0.07450   0.07753   0.10149   0.11415
 Alpha virt. eigenvalues --    0.11582   0.15396   0.15819   0.16573   0.20103
 Alpha virt. eigenvalues --    0.20165   0.25565   0.32489   0.34181   0.34536

 Mulliken charges:
               1
     1  C   -0.092982
     2  C    0.000803
     3  N   -0.209671
     4  H    0.100100
     5  H    0.099789
     6  H    0.101961
 Sum of Mulliken charges =   0.00000

 Dipole moment (field-independent basis, Debye):
    X=              4.1226    Y=             -0.0103    Z=              0.0182  Tot=              4.1227
 Quadrupole moment (field-independent basis, Debye-Ang):
   XX=            -21.1338   YY=            -17.6625   ZZ=            -17.8414
   XY=             -0.0768   XZ=             -0.0189   YZ=              0.0004

 Normal termination of Gaussian 09 at Wed Aug 26 12:28:44 2020.
