 Gaussian 09, Revision D.01,
 Gaussian 09:  ES64L-G09RevD.01 24-Apr-2013

 --------------------
 #p B2PLYPD3/Def2QZVP
 --------------------

 ------------
 cyanomethane
 ------------
 Symbolic Z-matrix:
 Charge =  0 Multiplicity = 1

                         Standard orientation:
 ---------------------------------------------------------------------
 Center     Atomic      Atomic             Coordinates (Angstroms)
 Number     Number       Type             X           Y           Z
 ---------------------------------------------------------------------
      1          6           0       -1.176046    0.012950   -0.001950
      2          6           0        0.281676    0.006059   -0.029620
      3          7           0        1.441999   -0.019429    0.017567
      4          1           0       -1.373173    1.023481   -0.143547
      5          1           0       -1.668510   -0.341245    0.906441
      6          1           0       -1.686095   -0.660287   -0.696445
 ---------------------------------------------------------------------

 SCF Done:  E(RB2PLYPD3) =  -132.524982173     A.U. after   12 cycles
 E2(B2PLYPD3) =    -0.1813132093D+00 E(B2PLYPD3) =    -0.13270629538180D+03

 The electronic state is 1-A.
 Alpha  occ. eigenvalues --  -14.84519 -10.66711 -10.66645  -1.03947  -0.89648
 Alpha  occ. eigenvalues --   -0.61246  -0.55438  -0.51622  -0.44934  -0.39080
 Alpha  occ. eigenvalues --   -0.38753
 Alpha virt. eigenvalues --    0.03719   0.06986   0.08401   0.10145   0.11108
 Alpha virt. eigenvalues --    0.11814   0.15079   0.16389   0.17254   0.19954
 Alpha virt. eigenvalues --    0.20385   0.25417   0.32567   0.34354   0.35404

 Mulliken charges:
               1
     1  C   -0.069909
     2  C    0.005642
     3  N   -0.209728
     4  H    0.100921
     5  H    0.084769
     6  H    0.088304
 Sum of Mulliken charges =   0.00000

 Dipole moment (field-independent basis, Debye):
    X=             -4.1643    Y=              0.0052    Z=              0.0006  Tot=              4.1643
 Quadrupole moment (field-independent basis, Debye-Ang):
   XX=            -20.6588   YY=            -17.5835   ZZ=            -18.1714
   XY=              0.4358   XZ=             -0.1926   YZ=             -0.0179

 Normal termination of Gaussian 09 at Wed Aug 26 20:16:07 2020.
