 Gaussian 09, Revision D.01,
 Gaussian 09:  ES64L-G09RevD.01 24-Apr-2013

 --------------------
 #p B2PLYPD3/Def2QZVP
 --------------------

 ------------
 cyanomethane
 ------------
 Symbolic Z-matrix:
 Charge =  0 Multiplicity = 1

                         Standard orientation:
 ---------------------------------------------------------------------
 Center     Atomic      Atomic             Coordinates (Angstroms)
 Number     Number       Type             X           Y           Z
 ---------------------------------------------------------------------
      1          6           0        1.159107   -0.011193   -0.036924
      2          6           0       -0.265898    0.069906    0.024325
      3          7           0       -1.427900   -0.045626   -0.010343
      4          1           0        1.407476    1.027380    0.019459
      5          1           0        1.641433   -0.550605   -0.721336
      6          1           0        1.587135   -0.509665    0.849870
 ---------------------------------------------------------------------

 SCF Done:  E(RB2PLYPD3) =  -132.515049353     A.U. after   12 cycles
 E2(B2PLYPD3) =    -0.1819779019D+00 E(B2PLYPD3) =    -0.13269702725496D+03

 The electronic state is 1-A.
 Alpha  occ. eigenvalues --  -14.84653 -10.66657 -10.65812  -1.03788  -0.90607
 Alpha  occ. eigenvalues --   -0.62973  -0.55112  -0.52363  -0.45004  -0.38755
 Alpha  occ. eigenvalues --   -0.38399
 Alpha virt. eigenvalues --    0.03730   0.06971   0.08163   0.09590   0.11320
 Alpha virt. eigenvalues --    0.11903   0.15001   0.16212   0.17841   0.19983
 Alpha virt. eigenvalues --    0.20614   0.26264   0.33118   0.33924   0.35556

 Mulliken charges:
               1
     1  C   -0.065864
     2  C    0.014822
     3  N   -0.213213
     4  H    0.094023
     5  H    0.092453
     6  H    0.077780
 Sum of Mulliken charges =   0.00000

 Dipole moment (field-independent basis, Debye):
    X=              4.1236    Y=              0.0203    Z=              0.0433  Tot=              4.1239
 Quadrupole moment (field-independent basis, Debye-Ang):
   XX=            -20.7395   YY=            -17.4959   ZZ=            -18.1321
   XY=             -0.5271   XZ=              0.0076   YZ=              0.0773

 Normal termination of Gaussian 09 at Wed Aug 26 21:19:48 2020.
