 Gaussian 09, Revision D.01,
 Gaussian 09:  ES64L-G09RevD.01 24-Apr-2013

 --------------------
 #p B2PLYPD3/Def2QZVP
 --------------------

 ------------
 cyanomethane
 ------------
 Symbolic Z-matrix:
 Charge =  0 Multiplicity = 1

                         Standard orientation:
 ---------------------------------------------------------------------
 Center     Atomic      Atomic             Coordinates (Angstroms)
 Number     Number       Type             X           Y           Z
 ---------------------------------------------------------------------
      1          6           0       -1.175674   -0.015367    0.011969
      2          6           0        0.267641   -0.019662   -0.006528
      3          7           0        1.433764    0.011673   -0.003539
      4          1           0       -1.459348   -0.378649    0.930305
      5          1           0       -1.592813   -0.569481   -0.827980
      6          1           0       -1.535992    1.076593   -0.110196
 ---------------------------------------------------------------------

 SCF Done:  E(RB2PLYPD3) =  -132.528492696     A.U. after   12 cycles
 E2(B2PLYPD3) =    -0.1815721224D+00 E(B2PLYPD3) =    -0.13271006481800D+03

 The electronic state is 1-A.
 Alpha  occ. eigenvalues --  -14.84434 -10.67082 -10.66474  -1.03641  -0.89683
 Alpha  occ. eigenvalues --   -0.59652  -0.55830  -0.52673  -0.44768  -0.38844
 Alpha  occ. eigenvalues --   -0.38443
 Alpha virt. eigenvalues --    0.03631   0.07171   0.08239   0.10146   0.11132
 Alpha virt. eigenvalues --    0.11625   0.15395   0.15897   0.16320   0.20105
 Alpha virt. eigenvalues --    0.20221   0.25548   0.32352   0.33484   0.35484

 Mulliken charges:
               1
     1  C   -0.090171
     2  C    0.000577
     3  N   -0.212981
     4  H    0.107753
     5  H    0.100410
     6  H    0.094411
 Sum of Mulliken charges =   0.00000

 Dipole moment (field-independent basis, Debye):
    X=             -4.1304    Y=             -0.0167    Z=              0.0066  Tot=              4.1305
 Quadrupole moment (field-independent basis, Debye-Ang):
   XX=            -21.1471   YY=            -17.8078   ZZ=            -17.6775
   XY=             -0.0644   XZ=              0.1196   YZ=             -0.0314

 Normal termination of Gaussian 09 at Wed Aug 26 12:46:37 2020.
