 Gaussian 09, Revision D.01,
 Gaussian 09:  ES64L-G09RevD.01 24-Apr-2013

 --------------------
 #p B2PLYPD3/Def2QZVP
 --------------------

 ------------
 cyanomethane
 ------------
 Symbolic Z-matrix:
 Charge =  0 Multiplicity = 1

                         Standard orientation:
 ---------------------------------------------------------------------
 Center     Atomic      Atomic             Coordinates (Angstroms)
 Number     Number       Type             X           Y           Z
 ---------------------------------------------------------------------
      1          6           0        1.170939   -0.002497   -0.008032
      2          6           0       -0.280630    0.013335   -0.012542
      3          7           0       -1.426956   -0.004096    0.005298
      4          1           0        1.548191   -0.686171   -0.752730
      5          1           0        1.509217   -0.356139    0.998129
      6          1           0        1.589429    1.005955   -0.159047
 ---------------------------------------------------------------------

 SCF Done:  E(RB2PLYPD3) =  -132.535248182     A.U. after   12 cycles
 E2(B2PLYPD3) =    -0.1799212042D+00 E(B2PLYPD3) =    -0.13271516938616D+03

 The electronic state is 1-A.
 Alpha  occ. eigenvalues --  -14.83946 -10.67350 -10.65984  -1.04440  -0.89064
 Alpha  occ. eigenvalues --   -0.59639  -0.54223  -0.53160  -0.44757  -0.39296
 Alpha  occ. eigenvalues --   -0.39075
 Alpha virt. eigenvalues --    0.03712   0.07776   0.08039   0.10185   0.11492
 Alpha virt. eigenvalues --    0.11753   0.15440   0.16153   0.16618   0.20025
 Alpha virt. eigenvalues --    0.20093   0.25459   0.32793   0.33959   0.34961

 Mulliken charges:
               1
     1  C   -0.088964
     2  C   -0.002010
     3  N   -0.201991
     4  H    0.100137
     5  H    0.095659
     6  H    0.097169
 Sum of Mulliken charges =   0.00000

 Dipole moment (field-independent basis, Debye):
    X=              4.1070    Y=             -0.0012    Z=              0.0018  Tot=              4.1070
 Quadrupole moment (field-independent basis, Debye-Ang):
   XX=            -21.0355   YY=            -17.6996   ZZ=            -17.7572
   XY=              0.0051   XZ=              0.0194   YZ=              0.0380

 Normal termination of Gaussian 09 at Wed Aug 26 10:17:47 2020.
