 Gaussian 09, Revision D.01,
 Gaussian 09:  ES64L-G09RevD.01 24-Apr-2013

 --------------------
 #p B2PLYPD3/Def2QZVP
 --------------------

 ------------
 cyanomethane
 ------------
 Symbolic Z-matrix:
 Charge =  0 Multiplicity = 1

                         Standard orientation:
 ---------------------------------------------------------------------
 Center     Atomic      Atomic             Coordinates (Angstroms)
 Number     Number       Type             X           Y           Z
 ---------------------------------------------------------------------
      1          6           0       -1.208143    0.001390    0.035074
      2          6           0        0.282336   -0.036816   -0.006119
      3          7           0        1.447059    0.011232   -0.002023
      4          1           0       -1.502680   -0.000074    1.003344
      5          1           0       -1.620345   -0.906856   -0.620738
      6          1           0       -1.451548    1.040862   -0.542177
 ---------------------------------------------------------------------

 SCF Done:  E(RB2PLYPD3) =  -132.513122018     A.U. after   12 cycles
 E2(B2PLYPD3) =    -0.1823523245D+00 E(B2PLYPD3) =    -0.13269547434258D+03

 The electronic state is 1-A.
 Alpha  occ. eigenvalues --  -14.84397 -10.69055 -10.66622  -1.03509  -0.88094
 Alpha  occ. eigenvalues --   -0.58722  -0.54378  -0.51357  -0.44590  -0.38957
 Alpha  occ. eigenvalues --   -0.38371
 Alpha virt. eigenvalues --    0.03154   0.06688   0.08203   0.10093   0.11012
 Alpha virt. eigenvalues --    0.11523   0.14720   0.15456   0.16126   0.20060
 Alpha virt. eigenvalues --    0.20167   0.24658   0.30896   0.31663   0.34346

 Mulliken charges:
               1
     1  C   -0.124250
     2  C    0.004214
     3  N   -0.211716
     4  H    0.120459
     5  H    0.105393
     6  H    0.105899
 Sum of Mulliken charges =   0.00000

 Dipole moment (field-independent basis, Debye):
    X=             -4.1055    Y=             -0.0076    Z=              0.0136  Tot=              4.1056
 Quadrupole moment (field-independent basis, Debye-Ang):
   XX=            -21.5661   YY=            -17.7796   ZZ=            -17.7291
   XY=              0.0684   XZ=              0.0143   YZ=              0.0129

 Normal termination of Gaussian 09 at Wed Aug 26 23:50:26 2020.
