 Gaussian 09, Revision D.01,
 Gaussian 09:  ES64L-G09RevD.01 24-Apr-2013

 --------------------
 #p B2PLYPD3/Def2QZVP
 --------------------

 ------------
 cyanomethane
 ------------
 Symbolic Z-matrix:
 Charge =  0 Multiplicity = 1

                         Standard orientation:
 ---------------------------------------------------------------------
 Center     Atomic      Atomic             Coordinates (Angstroms)
 Number     Number       Type             X           Y           Z
 ---------------------------------------------------------------------
      1          6           0       -1.183596   -0.024324    0.005810
      2          6           0        0.286098   -0.003298   -0.016821
      3          7           0        1.434824    0.003225    0.004322
      4          1           0       -1.557935    0.987883   -0.333583
      5          1           0       -1.500894   -0.120520    0.989714
      6          1           0       -1.599953   -0.724205   -0.620320
 ---------------------------------------------------------------------

 SCF Done:  E(RB2PLYPD3) =  -132.530562438     A.U. after   12 cycles
 E2(B2PLYPD3) =    -0.1797522927D+00 E(B2PLYPD3) =    -0.13271031473079D+03

 The electronic state is 1-A.
 Alpha  occ. eigenvalues --  -14.84061 -10.66492 -10.66164  -1.04332  -0.89604
 Alpha  occ. eigenvalues --   -0.60091  -0.55788  -0.52753  -0.44775  -0.39523
 Alpha  occ. eigenvalues --   -0.39073
 Alpha virt. eigenvalues --    0.03809   0.07982   0.08655   0.10226   0.11165
 Alpha virt. eigenvalues --    0.11695   0.15386   0.16064   0.16945   0.20006
 Alpha virt. eigenvalues --    0.20124   0.25116   0.32537   0.33995   0.36023

 Mulliken charges:
               1
     1  C   -0.074904
     2  C   -0.001510
     3  N   -0.203785
     4  H    0.085350
     5  H    0.097430
     6  H    0.097420
 Sum of Mulliken charges =   0.00000

 Dipole moment (field-independent basis, Debye):
    X=             -4.1348    Y=              0.0039    Z=              0.0049  Tot=              4.1348
 Quadrupole moment (field-independent basis, Debye-Ang):
   XX=            -20.8719   YY=            -17.7850   ZZ=            -17.6908
   XY=             -0.0298   XZ=              0.0212   YZ=              0.0755

 Normal termination of Gaussian 09 at Wed Aug 26 12:39:14 2020.
