 Gaussian 09, Revision D.01,
 Gaussian 09:  ES64L-G09RevD.01 24-Apr-2013

 --------------------
 #p B2PLYPD3/Def2QZVP
 --------------------

 ------------
 cyanomethane
 ------------
 Symbolic Z-matrix:
 Charge =  0 Multiplicity = 1

                         Standard orientation:
 ---------------------------------------------------------------------
 Center     Atomic      Atomic             Coordinates (Angstroms)
 Number     Number       Type             X           Y           Z
 ---------------------------------------------------------------------
      1          6           0       -1.184265    0.000760   -0.014420
      2          6           0        0.283479    0.019542    0.007199
      3          7           0        1.433406   -0.008375   -0.000605
      4          1           0       -1.560734   -0.210750    1.015336
      5          1           0       -1.507552   -0.795693   -0.647534
      6          1           0       -1.560846    0.943259   -0.320240
 ---------------------------------------------------------------------

 SCF Done:  E(RB2PLYPD3) =  -132.534743554     A.U. after   11 cycles
 E2(B2PLYPD3) =    -0.1799949458D+00 E(B2PLYPD3) =    -0.13271473850013D+03

 The electronic state is 1-A.
 Alpha  occ. eigenvalues --  -14.84042 -10.66984 -10.66122  -1.04240  -0.89250
 Alpha  occ. eigenvalues --   -0.59424  -0.55051  -0.53242  -0.44720  -0.39326
 Alpha  occ. eigenvalues --   -0.39078
 Alpha virt. eigenvalues --    0.03778   0.07948   0.08408   0.10214   0.11274
 Alpha virt. eigenvalues --    0.11591   0.15327   0.16158   0.16448   0.20025
 Alpha virt. eigenvalues --    0.20110   0.25164   0.32643   0.34193   0.35346

 Mulliken charges:
               1
     1  C   -0.085269
     2  C   -0.003456
     3  N   -0.204299
     4  H    0.092526
     5  H    0.100711
     6  H    0.099787
 Sum of Mulliken charges =   0.00000

 Dipole moment (field-independent basis, Debye):
    X=             -4.1241    Y=              0.0063    Z=              0.0038  Tot=              4.1241
 Quadrupole moment (field-independent basis, Debye-Ang):
   XX=            -21.0334   YY=            -17.6509   ZZ=            -17.7877
   XY=              0.0257   XZ=             -0.0385   YZ=              0.0174

 Normal termination of Gaussian 09 at Wed Aug 26 23:59:48 2020.
