 Gaussian 09, Revision D.01,
 Gaussian 09:  ES64L-G09RevD.01 24-Apr-2013

 --------------------
 #p B2PLYPD3/Def2QZVP
 --------------------

 ------------
 cyanomethane
 ------------
 Symbolic Z-matrix:
 Charge =  0 Multiplicity = 1

                         Standard orientation:
 ---------------------------------------------------------------------
 Center     Atomic      Atomic             Coordinates (Angstroms)
 Number     Number       Type             X           Y           Z
 ---------------------------------------------------------------------
      1          6           0       -1.174409   -0.002721    0.041322
      2          6           0        0.248022    0.034286   -0.046435
      3          7           0        1.430093   -0.022133    0.006302
      4          1           0       -1.664273   -0.699705   -0.776005
      5          1           0       -1.455294    1.032540   -0.179794
      6          1           0       -1.332767   -0.367296    0.942364
 ---------------------------------------------------------------------

 SCF Done:  E(RB2PLYPD3) =  -132.512260467     A.U. after   12 cycles
 E2(B2PLYPD3) =    -0.1833726755D+00 E(B2PLYPD3) =    -0.13269563314216D+03

 The electronic state is 1-A.
 Alpha  occ. eigenvalues --  -14.84758 -10.66878 -10.66768  -1.03015  -0.90582
 Alpha  occ. eigenvalues --   -0.59401  -0.57212  -0.52589  -0.44687  -0.38252
 Alpha  occ. eigenvalues --   -0.37819
 Alpha virt. eigenvalues --    0.03573   0.06548   0.08118   0.10021   0.11093
 Alpha virt. eigenvalues --    0.11481   0.15151   0.15301   0.16255   0.20201
 Alpha virt. eigenvalues --    0.20308   0.26018   0.31604   0.33361   0.35675

 Mulliken charges:
               1
     1  C   -0.103106
     2  C    0.003499
     3  N   -0.224014
     4  H    0.093793
     5  H    0.109257
     6  H    0.120572
 Sum of Mulliken charges =   0.00000

 Dipole moment (field-independent basis, Debye):
    X=             -4.1141    Y=              0.0339    Z=              0.0005  Tot=              4.1142
 Quadrupole moment (field-independent basis, Debye-Ang):
   XX=            -21.4237   YY=            -17.6618   ZZ=            -17.7639
   XY=              0.1810   XZ=              0.2107   YZ=             -0.1486

 Normal termination of Gaussian 09 at Wed Aug 26 23:54:08 2020.
