 Gaussian 09, Revision D.01,
 Gaussian 09:  ES64L-G09RevD.01 24-Apr-2013

 --------------------
 #p B2PLYPD3/Def2QZVP
 --------------------

 ------------
 cyanomethane
 ------------
 Symbolic Z-matrix:
 Charge =  0 Multiplicity = 1

                         Standard orientation:
 ---------------------------------------------------------------------
 Center     Atomic      Atomic             Coordinates (Angstroms)
 Number     Number       Type             X           Y           Z
 ---------------------------------------------------------------------
      1          6           0        1.171297   -0.021457   -0.022671
      2          6           0       -0.299811   -0.062071    0.027731
      3          7           0       -1.436556    0.038223   -0.017906
      4          1           0        1.659874    1.057263   -0.172617
      5          1           0        1.652877   -0.607381   -0.645808
      6          1           0        1.514225   -0.216278    0.913408
 ---------------------------------------------------------------------

 SCF Done:  E(RB2PLYPD3) =  -132.512187399     A.U. after   12 cycles
 E2(B2PLYPD3) =    -0.1796584615D+00 E(B2PLYPD3) =    -0.13269184586081D+03

 The electronic state is 1-A.
 Alpha  occ. eigenvalues --  -14.84210 -10.66333 -10.66232  -1.04853  -0.89739
 Alpha  occ. eigenvalues --   -0.61675  -0.55578  -0.51085  -0.45078  -0.39959
 Alpha  occ. eigenvalues --   -0.39248
 Alpha virt. eigenvalues --    0.03181   0.07555   0.09074   0.10078   0.11199
 Alpha virt. eigenvalues --    0.11854   0.15586   0.16033   0.18239   0.19906
 Alpha virt. eigenvalues --    0.20403   0.25392   0.31997   0.33675   0.36172

 Mulliken charges:
               1
     1  C   -0.063861
     2  C    0.010445
     3  N   -0.197666
     4  H    0.074774
     5  H    0.091582
     6  H    0.084727
 Sum of Mulliken charges =   0.00000

 Dipole moment (field-independent basis, Debye):
    X=              4.1139    Y=             -0.0995    Z=              0.0987  Tot=              4.1163
 Quadrupole moment (field-independent basis, Debye-Ang):
   XX=            -20.3920   YY=            -17.8348   ZZ=            -17.9042
   XY=              0.2055   XZ=             -0.0338   YZ=              0.1245

 Normal termination of Gaussian 09 at Wed Aug 26 21:56:19 2020.
