 Gaussian 09, Revision D.01,
 Gaussian 09:  ES64L-G09RevD.01 24-Apr-2013

 --------------------
 #p B2PLYPD3/Def2QZVP
 --------------------

 ------------
 cyanomethane
 ------------
 Symbolic Z-matrix:
 Charge =  0 Multiplicity = 1

                         Standard orientation:
 ---------------------------------------------------------------------
 Center     Atomic      Atomic             Coordinates (Angstroms)
 Number     Number       Type             X           Y           Z
 ---------------------------------------------------------------------
      1          6           0        1.165260   -0.022437    0.014671
      2          6           0       -0.291297   -0.038838    0.015619
      3          7           0       -1.440824    0.036738   -0.011115
      4          1           0        1.798776    0.956561   -0.346598
      5          1           0        1.477075   -0.717966   -0.629136
      6          1           0        1.566142   -0.128106    0.871798
 ---------------------------------------------------------------------

 SCF Done:  E(RB2PLYPD3) =  -132.499482320     A.U. after   12 cycles
 E2(B2PLYPD3) =    -0.1805267667D+00 E(B2PLYPD3) =    -0.13268000908621D+03

 The electronic state is 1-A.
 Alpha  occ. eigenvalues --  -14.84528 -10.66580 -10.65846  -1.04505  -0.90447
 Alpha  occ. eigenvalues --   -0.62077  -0.56993  -0.50406  -0.45157  -0.39725
 Alpha  occ. eigenvalues --   -0.38904
 Alpha virt. eigenvalues --    0.02933   0.07045   0.09169   0.10122   0.11046
 Alpha virt. eigenvalues --    0.11907   0.15582   0.16475   0.17813   0.19889
 Alpha virt. eigenvalues --    0.20565   0.25439   0.31197   0.33967   0.36516

 Mulliken charges:
               1
     1  C   -0.066961
     2  C    0.011048
     3  N   -0.202873
     4  H    0.070330
     5  H    0.092344
     6  H    0.096112
 Sum of Mulliken charges =   0.00000

 Dipole moment (field-independent basis, Debye):
    X=              4.1286    Y=             -0.1253    Z=              0.0501  Tot=              4.1308
 Quadrupole moment (field-independent basis, Debye-Ang):
   XX=            -20.3099   YY=            -17.9778   ZZ=            -17.8496
   XY=              0.2888   XZ=             -0.0094   YZ=              0.1516

 Normal termination of Gaussian 09 at Wed Aug 26 16:39:23 2020.
