 Gaussian 09, Revision D.01,
 Gaussian 09:  ES64L-G09RevD.01 24-Apr-2013

 --------------------
 #p B2PLYPD3/Def2QZVP
 --------------------

 ------------
 cyanomethane
 ------------
 Symbolic Z-matrix:
 Charge =  0 Multiplicity = 1

                         Standard orientation:
 ---------------------------------------------------------------------
 Center     Atomic      Atomic             Coordinates (Angstroms)
 Number     Number       Type             X           Y           Z
 ---------------------------------------------------------------------
      1          6           0       -1.197968   -0.025464   -0.019090
      2          6           0        0.264832    0.063731    0.015954
      3          7           0        1.455349   -0.029768   -0.006471
      4          1           0       -1.538215    1.030999    0.000186
      5          1           0       -1.524556   -0.512999    0.911987
      6          1           0       -1.525850   -0.539219   -0.848060
 ---------------------------------------------------------------------

 SCF Done:  E(RB2PLYPD3) =  -132.524433208     A.U. after   12 cycles
 E2(B2PLYPD3) =    -0.1840859164D+00 E(B2PLYPD3) =    -0.13270851912405D+03

 The electronic state is 1-A.
 Alpha  occ. eigenvalues --  -14.85265 -10.67391 -10.67115  -1.02529  -0.89512
 Alpha  occ. eigenvalues --   -0.59764  -0.55191  -0.53557  -0.44832  -0.38264
 Alpha  occ. eigenvalues --   -0.37983
 Alpha virt. eigenvalues --    0.03644   0.07181   0.07329   0.09917   0.11005
 Alpha virt. eigenvalues --    0.11045   0.15239   0.15330   0.16539   0.20184
 Alpha virt. eigenvalues --    0.20316   0.25439   0.32106   0.33796   0.35177

 Mulliken charges:
               1
     1  C   -0.089129
     2  C    0.005676
     3  N   -0.223748
     4  H    0.098387
     5  H    0.100756
     6  H    0.108058
 Sum of Mulliken charges =   0.00000

 Dipole moment (field-independent basis, Debye):
    X=             -4.1627    Y=              0.0258    Z=              0.0142  Tot=              4.1628
 Quadrupole moment (field-independent basis, Debye-Ang):
   XX=            -21.2011   YY=            -17.8154   ZZ=            -17.8355
   XY=              0.1395   XZ=              0.0082   YZ=              0.0546

 Normal termination of Gaussian 09 at Thu Aug 27 00:16:46 2020.
