 Gaussian 09, Revision D.01,
 Gaussian 09:  ES64L-G09RevD.01 24-Apr-2013

 --------------------
 #p B2PLYPD3/Def2QZVP
 --------------------

 ------------
 cyanomethane
 ------------
 Symbolic Z-matrix:
 Charge =  0 Multiplicity = 1

                         Standard orientation:
 ---------------------------------------------------------------------
 Center     Atomic      Atomic             Coordinates (Angstroms)
 Number     Number       Type             X           Y           Z
 ---------------------------------------------------------------------
      1          6           0       -1.191533   -0.008254    0.010992
      2          6           0        0.285778    0.032281    0.008379
      3          7           0        1.434018   -0.018980   -0.006654
      4          1           0       -1.575607   -0.819657   -0.605723
      5          1           0       -1.505609    0.914092   -0.433175
      6          1           0       -1.522378   -0.105737    0.969249
 ---------------------------------------------------------------------

 SCF Done:  E(RB2PLYPD3) =  -132.531901127     A.U. after   12 cycles
 E2(B2PLYPD3) =    -0.1797090665D+00 E(B2PLYPD3) =    -0.13271161019323D+03

 The electronic state is 1-A.
 Alpha  occ. eigenvalues --  -14.84012 -10.66398 -10.66092  -1.04249  -0.89650
 Alpha  occ. eigenvalues --   -0.59435  -0.55577  -0.53686  -0.44687  -0.39413
 Alpha  occ. eigenvalues --   -0.39179
 Alpha virt. eigenvalues --    0.03831   0.08137   0.08902   0.10203   0.11186
 Alpha virt. eigenvalues --    0.11466   0.15342   0.15804   0.16762   0.20040
 Alpha virt. eigenvalues --    0.20100   0.25035   0.32788   0.34513   0.35573

 Mulliken charges:
               1
     1  C   -0.080841
     2  C   -0.004703
     3  N   -0.204317
     4  H    0.094023
     5  H    0.095451
     6  H    0.100387
 Sum of Mulliken charges =   0.00000

 Dipole moment (field-independent basis, Debye):
    X=             -4.1277    Y=              0.0335    Z=              0.0061  Tot=              4.1279
 Quadrupole moment (field-independent basis, Debye-Ang):
   XX=            -20.9920   YY=            -17.7267   ZZ=            -17.6535
   XY=              0.1439   XZ=              0.0663   YZ=             -0.0291

 Normal termination of Gaussian 09 at Wed Aug 26 10:42:15 2020.
