 Gaussian 09, Revision D.01,
 Gaussian 09:  ES64L-G09RevD.01 24-Apr-2013

 --------------------
 #p B2PLYPD3/Def2QZVP
 --------------------

 ------------
 cyanomethane
 ------------
 Symbolic Z-matrix:
 Charge =  0 Multiplicity = 1

                         Standard orientation:
 ---------------------------------------------------------------------
 Center     Atomic      Atomic             Coordinates (Angstroms)
 Number     Number       Type             X           Y           Z
 ---------------------------------------------------------------------
      1          6           0        1.172716   -0.045946   -0.009346
      2          6           0       -0.281327   -0.046471    0.003130
      3          7           0       -1.448159    0.037531    0.005172
      4          1           0        1.479420   -0.935313   -0.374684
      5          1           0        1.686724    0.279348    1.061717
      6          1           0        1.622639    0.947744   -0.685943
 ---------------------------------------------------------------------

 SCF Done:  E(RB2PLYPD3) =  -132.497535827     A.U. after   12 cycles
 E2(B2PLYPD3) =    -0.1835915080D+00 E(B2PLYPD3) =    -0.13268112733477D+03

 The electronic state is 1-A.
 Alpha  occ. eigenvalues --  -14.84879 -10.69466 -10.66947  -1.03683  -0.88157
 Alpha  occ. eigenvalues --   -0.59549  -0.55127  -0.48883  -0.45047  -0.39044
 Alpha  occ. eigenvalues --   -0.37858
 Alpha virt. eigenvalues --    0.02534   0.04774   0.08075   0.10071   0.10714
 Alpha virt. eigenvalues --    0.12194   0.15134   0.16237   0.16794   0.19840
 Alpha virt. eigenvalues --    0.20354   0.25308   0.30137   0.31086   0.34564

 Mulliken charges:
               1
     1  C   -0.105562
     2  C    0.008521
     3  N   -0.208407
     4  H    0.120946
     5  H    0.095270
     6  H    0.089232
 Sum of Mulliken charges =   0.00000

 Dipole moment (field-independent basis, Debye):
    X=              4.0924    Y=             -0.0384    Z=              0.0117  Tot=              4.0926
 Quadrupole moment (field-independent basis, Debye-Ang):
   XX=            -21.1119   YY=            -17.7065   ZZ=            -18.1926
   XY=              0.3996   XZ=              0.1648   YZ=              0.2203

 Normal termination of Gaussian 09 at Wed Aug 26 23:24:25 2020.
