 Gaussian 09, Revision D.01,
 Gaussian 09:  ES64L-G09RevD.01 24-Apr-2013

 --------------------
 #p B2PLYPD3/Def2QZVP
 --------------------

 ------------
 cyanomethane
 ------------
 Symbolic Z-matrix:
 Charge =  0 Multiplicity = 1

                         Standard orientation:
 ---------------------------------------------------------------------
 Center     Atomic      Atomic             Coordinates (Angstroms)
 Number     Number       Type             X           Y           Z
 ---------------------------------------------------------------------
      1          6           0       -1.178493    0.021906    0.002916
      2          6           0        0.281859   -0.003908   -0.016236
      3          7           0        1.425579   -0.001632    0.008923
      4          1           0       -1.513992    1.029291   -0.047561
      5          1           0       -1.549629   -0.516077    0.938463
      6          1           0       -1.535629   -0.609781   -0.873446
 ---------------------------------------------------------------------

 SCF Done:  E(RB2PLYPD3) =  -132.531747691     A.U. after   11 cycles
 E2(B2PLYPD3) =    -0.1799133465D+00 E(B2PLYPD3) =    -0.13271166103795D+03

 The electronic state is 1-A.
 Alpha  occ. eigenvalues --  -14.83799 -10.67881 -10.65853  -1.04472  -0.88719
 Alpha  occ. eigenvalues --   -0.58833  -0.54852  -0.52375  -0.44649  -0.39393
 Alpha  occ. eigenvalues --   -0.38986
 Alpha virt. eigenvalues --    0.03600   0.07538   0.08263   0.10175   0.11416
 Alpha virt. eigenvalues --    0.11860   0.15277   0.15858   0.16501   0.19988
 Alpha virt. eigenvalues --    0.20108   0.25277   0.32466   0.33252   0.35025

 Mulliken charges:
               1
     1  C   -0.102700
     2  C   -0.003229
     3  N   -0.200829
     4  H    0.109470
     5  H    0.098955
     6  H    0.098333
 Sum of Mulliken charges =   0.00000

 Dipole moment (field-independent basis, Debye):
    X=             -4.0868    Y=             -0.0095    Z=             -0.0132  Tot=              4.0868
 Quadrupole moment (field-independent basis, Debye-Ang):
   XX=            -21.2583   YY=            -17.5617   ZZ=            -17.8148
   XY=              0.0677   XZ=             -0.0647   YZ=             -0.0083

 Normal termination of Gaussian 09 at Wed Aug 26 11:20:57 2020.
