 Gaussian 09, Revision D.01,
 Gaussian 09:  ES64L-G09RevD.01 24-Apr-2013

 --------------------
 #p B2PLYPD3/Def2QZVP
 --------------------

 ------------
 cyanomethane
 ------------
 Symbolic Z-matrix:
 Charge =  0 Multiplicity = 1

                         Standard orientation:
 ---------------------------------------------------------------------
 Center     Atomic      Atomic             Coordinates (Angstroms)
 Number     Number       Type             X           Y           Z
 ---------------------------------------------------------------------
      1          6           0       -1.160412   -0.001784    0.024926
      2          6           0        0.267808    0.033783   -0.071377
      3          7           0        1.450680   -0.018969    0.025198
      4          1           0       -1.712773   -0.664586   -0.785851
      5          1           0       -1.596853    1.030743   -0.086798
      6          1           0       -1.489509   -0.425364    0.974971
 ---------------------------------------------------------------------

 SCF Done:  E(RB2PLYPD3) =  -132.521710145     A.U. after   12 cycles
 E2(B2PLYPD3) =    -0.1843838509D+00 E(B2PLYPD3) =    -0.13270609399569D+03

 The electronic state is 1-A.
 Alpha  occ. eigenvalues --  -14.85386 -10.68229 -10.67402  -1.03062  -0.88720
 Alpha  occ. eigenvalues --   -0.60709  -0.53643  -0.51603  -0.45199  -0.38294
 Alpha  occ. eigenvalues --   -0.38069
 Alpha virt. eigenvalues --    0.03375   0.05832   0.06624   0.09988   0.11240
 Alpha virt. eigenvalues --    0.11594   0.15460   0.16339   0.16730   0.20110
 Alpha virt. eigenvalues --    0.20252   0.26161   0.31641   0.33619   0.34696

 Mulliken charges:
               1
     1  C   -0.081165
     2  C    0.011672
     3  N   -0.217070
     4  H    0.087484
     5  H    0.095547
     6  H    0.103531
 Sum of Mulliken charges =   0.00000

 Dipole moment (field-independent basis, Debye):
    X=             -4.1391    Y=              0.0186    Z=              0.0090  Tot=              4.1392
 Quadrupole moment (field-independent basis, Debye-Ang):
   XX=            -20.8277   YY=            -17.9359   ZZ=            -18.0576
   XY=              0.1313   XZ=             -0.0449   YZ=             -0.0705

 Normal termination of Gaussian 09 at Wed Aug 26 16:33:36 2020.
