 Gaussian 09, Revision D.01,
 Gaussian 09:  ES64L-G09RevD.01 24-Apr-2013

 --------------------
 #p B2PLYPD3/Def2QZVP
 --------------------

 ------------
 cyanomethane
 ------------
 Symbolic Z-matrix:
 Charge =  0 Multiplicity = 1

                         Standard orientation:
 ---------------------------------------------------------------------
 Center     Atomic      Atomic             Coordinates (Angstroms)
 Number     Number       Type             X           Y           Z
 ---------------------------------------------------------------------
      1          6           0       -1.185216    0.002823    0.004758
      2          6           0        0.283221    0.012474    0.011599
      3          7           0        1.434289   -0.006562   -0.010526
      4          1           0       -1.569286   -0.867615   -0.557006
      5          1           0       -1.570733    0.894276   -0.461411
      6          1           0       -1.488031   -0.072508    0.993962
 ---------------------------------------------------------------------

 SCF Done:  E(RB2PLYPD3) =  -132.533833421     A.U. after   12 cycles
 E2(B2PLYPD3) =    -0.1800012717D+00 E(B2PLYPD3) =    -0.13271383469320D+03

 The electronic state is 1-A.
 Alpha  occ. eigenvalues --  -14.84081 -10.66727 -10.66158  -1.04199  -0.89465
 Alpha  occ. eigenvalues --   -0.59503  -0.55163  -0.53485  -0.44728  -0.39279
 Alpha  occ. eigenvalues --   -0.39125
 Alpha virt. eigenvalues --    0.03796   0.07882   0.08647   0.10220   0.11266
 Alpha virt. eigenvalues --    0.11511   0.15357   0.16022   0.16608   0.20047
 Alpha virt. eigenvalues --    0.20111   0.25141   0.32713   0.34480   0.35306

 Mulliken charges:
               1
     1  C   -0.082193
     2  C   -0.003728
     3  N   -0.204993
     4  H    0.093753
     5  H    0.096863
     6  H    0.100297
 Sum of Mulliken charges =   0.00000

 Dipole moment (field-independent basis, Debye):
    X=             -4.1298    Y=              0.0064    Z=              0.0238  Tot=              4.1299
 Quadrupole moment (field-independent basis, Debye-Ang):
   XX=            -20.9907   YY=            -17.7322   ZZ=            -17.7041
   XY=              0.0413   XZ=              0.1101   YZ=             -0.0336

 Normal termination of Gaussian 09 at Thu Aug 27 00:04:08 2020.
