 Gaussian 09, Revision D.01,
 Gaussian 09:  ES64L-G09RevD.01 24-Apr-2013

 --------------------
 #p B2PLYPD3/Def2QZVP
 --------------------

 ------------
 cyanomethane
 ------------
 Symbolic Z-matrix:
 Charge =  0 Multiplicity = 1

                         Standard orientation:
 ---------------------------------------------------------------------
 Center     Atomic      Atomic             Coordinates (Angstroms)
 Number     Number       Type             X           Y           Z
 ---------------------------------------------------------------------
      1          6           0       -1.209611    0.004151    0.007660
      2          6           0        0.296596    0.046700   -0.020985
      3          7           0        1.436727   -0.011271    0.011972
      4          1           0       -1.492848   -0.420151    0.982563
      5          1           0       -1.396443   -0.815484   -0.775480
      6          1           0       -1.689709    1.009423   -0.210945
 ---------------------------------------------------------------------

 SCF Done:  E(RB2PLYPD3) =  -132.526651035     A.U. after   12 cycles
 E2(B2PLYPD3) =    -0.1801349157D+00 E(B2PLYPD3) =    -0.13270678595113D+03

 The electronic state is 1-A.
 Alpha  occ. eigenvalues --  -14.83693 -10.68848 -10.65949  -1.04410  -0.87682
 Alpha  occ. eigenvalues --   -0.57687  -0.53839  -0.52507  -0.44469  -0.39519
 Alpha  occ. eigenvalues --   -0.39097
 Alpha virt. eigenvalues --    0.03439   0.07900   0.08177   0.10286   0.11230
 Alpha virt. eigenvalues --    0.11789   0.14748   0.15316   0.16721   0.19915
 Alpha virt. eigenvalues --    0.20136   0.24466   0.31679   0.32973   0.34864

 Mulliken charges:
               1
     1  C   -0.119419
     2  C   -0.004589
     3  N   -0.199583
     4  H    0.108114
     5  H    0.105578
     6  H    0.109899
 Sum of Mulliken charges =   0.00000

 Dipole moment (field-independent basis, Debye):
    X=             -4.1048    Y=             -0.0173    Z=             -0.0007  Tot=              4.1049
 Quadrupole moment (field-independent basis, Debye-Ang):
   XX=            -21.4108   YY=            -17.5216   ZZ=            -17.8892
   XY=             -0.1057   XZ=             -0.1428   YZ=             -0.0376

 Normal termination of Gaussian 09 at Wed Aug 26 23:02:47 2020.
