 Gaussian 09, Revision D.01,
 Gaussian 09:  ES64L-G09RevD.01 24-Apr-2013

 --------------------
 #p B2PLYPD3/Def2QZVP
 --------------------

 ------------
 cyanomethane
 ------------
 Symbolic Z-matrix:
 Charge =  0 Multiplicity = 1

                         Standard orientation:
 ---------------------------------------------------------------------
 Center     Atomic      Atomic             Coordinates (Angstroms)
 Number     Number       Type             X           Y           Z
 ---------------------------------------------------------------------
      1          6           0       -1.174221    0.000861   -0.024921
      2          6           0        0.264410    0.019477    0.028693
      3          7           0        1.439228   -0.011260   -0.011459
      4          1           0       -1.523941    1.013124   -0.008831
      5          1           0       -1.555320   -0.505302    0.905662
      6          1           0       -1.536467   -0.551031   -0.839248
 ---------------------------------------------------------------------

 SCF Done:  E(RB2PLYPD3) =  -132.530127222     A.U. after   12 cycles
 E2(B2PLYPD3) =    -0.1823103755D+00 E(B2PLYPD3) =    -0.13271243759767D+03

 The electronic state is 1-A.
 Alpha  occ. eigenvalues --  -14.84745 -10.66820 -10.66757  -1.03317  -0.89830
 Alpha  occ. eigenvalues --   -0.60244  -0.55416  -0.53185  -0.44862  -0.38626
 Alpha  occ. eigenvalues --   -0.38297
 Alpha virt. eigenvalues --    0.03752   0.07245   0.07748   0.10051   0.11132
 Alpha virt. eigenvalues --    0.11487   0.15454   0.15765   0.16636   0.20156
 Alpha virt. eigenvalues --    0.20252   0.25729   0.32509   0.33925   0.35413

 Mulliken charges:
               1
     1  C   -0.080211
     2  C    0.002988
     3  N   -0.216785
     4  H    0.100448
     5  H    0.091090
     6  H    0.102471
 Sum of Mulliken charges =   0.00000

 Dipole moment (field-independent basis, Debye):
    X=             -4.1504    Y=              0.0065    Z=              0.0196  Tot=              4.1505
 Quadrupole moment (field-independent basis, Debye-Ang):
   XX=            -21.0446   YY=            -17.7147   ZZ=            -17.8564
   XY=              0.0966   XZ=              0.0218   YZ=              0.0698

 Normal termination of Gaussian 09 at Wed Aug 26 16:21:24 2020.
