 Gaussian 09, Revision D.01,
 Gaussian 09:  ES64L-G09RevD.01 24-Apr-2013

 --------------------
 #p B2PLYPD3/Def2QZVP
 --------------------

 ------------
 cyanomethane
 ------------
 Symbolic Z-matrix:
 Charge =  0 Multiplicity = 1

                         Standard orientation:
 ---------------------------------------------------------------------
 Center     Atomic      Atomic             Coordinates (Angstroms)
 Number     Number       Type             X           Y           Z
 ---------------------------------------------------------------------
      1          6           0        1.159419    0.003027   -0.001274
      2          6           0       -0.288248    0.035984   -0.042919
      3          7           0       -1.417277   -0.008685    0.013430
      4          1           0        1.540044   -0.909984   -0.633382
      5          1           0        1.417457   -0.242034    1.108873
      6          1           0        1.736411    0.978744   -0.304345
 ---------------------------------------------------------------------

 SCF Done:  E(RB2PLYPD3) =  -132.521429550     A.U. after   12 cycles
 E2(B2PLYPD3) =    -0.1798327703D+00 E(B2PLYPD3) =    -0.13270126232048D+03

 The electronic state is 1-A.
 Alpha  occ. eigenvalues --  -14.83556 -10.69324 -10.65642  -1.05126  -0.87651
 Alpha  occ. eigenvalues --   -0.58773  -0.52253  -0.52010  -0.44746  -0.39476
 Alpha  occ. eigenvalues --   -0.39142
 Alpha virt. eigenvalues --    0.03260   0.06971   0.07273   0.10242   0.11895
 Alpha virt. eigenvalues --    0.12292   0.15267   0.15832   0.17198   0.19943
 Alpha virt. eigenvalues --    0.20040   0.25581   0.31734   0.32880   0.33881

 Mulliken charges:
               1
     1  C   -0.118830
     2  C    0.003077
     3  N   -0.191469
     4  H    0.101245
     5  H    0.103317
     6  H    0.102660
 Sum of Mulliken charges =   0.00000

 Dipole moment (field-independent basis, Debye):
    X=              4.0456    Y=             -0.0073    Z=              0.0110  Tot=              4.0457
 Quadrupole moment (field-independent basis, Debye-Ang):
   XX=            -21.1763   YY=            -17.6757   ZZ=            -17.8610
   XY=              0.0743   XZ=              0.0010   YZ=              0.0016

 Normal termination of Gaussian 09 at Wed Aug 26 23:52:47 2020.
