 Gaussian 09, Revision D.01,
 Gaussian 09:  ES64L-G09RevD.01 24-Apr-2013

 --------------------
 #p B2PLYPD3/Def2QZVP
 --------------------

 ------------
 cyanomethane
 ------------
 Symbolic Z-matrix:
 Charge =  0 Multiplicity = 1

                         Standard orientation:
 ---------------------------------------------------------------------
 Center     Atomic      Atomic             Coordinates (Angstroms)
 Number     Number       Type             X           Y           Z
 ---------------------------------------------------------------------
      1          6           0        1.146667   -0.010812    0.009653
      2          6           0       -0.273219    0.064676    0.028486
      3          7           0       -1.422090   -0.037416   -0.020750
      4          1           0        1.519601    1.010603   -0.167710
      5          1           0        1.662000   -0.657726   -0.773754
      6          1           0        1.532344   -0.414153    0.857878
 ---------------------------------------------------------------------

 SCF Done:  E(RB2PLYPD3) =  -132.523998660     A.U. after   12 cycles
 E2(B2PLYPD3) =    -0.1808420025D+00 E(B2PLYPD3) =    -0.13270484066277D+03

 The electronic state is 1-A.
 Alpha  occ. eigenvalues --  -14.84353 -10.66497 -10.66233  -1.04365  -0.89925
 Alpha  occ. eigenvalues --   -0.61628  -0.55045  -0.51941  -0.45035  -0.39154
 Alpha  occ. eigenvalues --   -0.38710
 Alpha virt. eigenvalues --    0.03483   0.06876   0.08280   0.09873   0.11396
 Alpha virt. eigenvalues --    0.11957   0.15627   0.16265   0.17458   0.19928
 Alpha virt. eigenvalues --    0.20360   0.26297   0.33180   0.33687   0.35368

 Mulliken charges:
               1
     1  C   -0.069544
     2  C    0.007303
     3  N   -0.204926
     4  H    0.090142
     5  H    0.082623
     6  H    0.094401
 Sum of Mulliken charges =   0.00000

 Dipole moment (field-independent basis, Debye):
    X=              4.0983    Y=              0.0300    Z=              0.0527  Tot=              4.0987
 Quadrupole moment (field-independent basis, Debye-Ang):
   XX=            -20.6824   YY=            -17.6474   ZZ=            -17.9828
   XY=             -0.3506   XZ=             -0.1500   YZ=             -0.1240

 Normal termination of Gaussian 09 at Wed Aug 26 20:18:44 2020.
