 Gaussian 09, Revision D.01,
 Gaussian 09:  ES64L-G09RevD.01 24-Apr-2013

 --------------------
 #p B2PLYPD3/Def2QZVP
 --------------------

 ------------
 cyanomethane
 ------------
 Symbolic Z-matrix:
 Charge =  0 Multiplicity = 1

                         Standard orientation:
 ---------------------------------------------------------------------
 Center     Atomic      Atomic             Coordinates (Angstroms)
 Number     Number       Type             X           Y           Z
 ---------------------------------------------------------------------
      1          6           0       -1.151589    0.008414   -0.019892
      2          6           0        0.266352    0.033814   -0.034527
      3          7           0        1.431478   -0.012548    0.014885
      4          1           0       -1.579487   -0.675116   -0.698456
      5          1           0       -1.667652    0.930687   -0.055097
      6          1           0       -1.461780   -0.421105    0.975871
 ---------------------------------------------------------------------

 SCF Done:  E(RB2PLYPD3) =  -132.528270891     A.U. after   12 cycles
 E2(B2PLYPD3) =    -0.1817054013D+00 E(B2PLYPD3) =    -0.13270997629193D+03

 The electronic state is 1-A.
 Alpha  occ. eigenvalues --  -14.84607 -10.66644 -10.66428  -1.03811  -0.90119
 Alpha  occ. eigenvalues --   -0.61837  -0.55092  -0.52505  -0.45013  -0.38924
 Alpha  occ. eigenvalues --   -0.38296
 Alpha virt. eigenvalues --    0.03660   0.07289   0.07574   0.10106   0.11233
 Alpha virt. eigenvalues --    0.11953   0.15636   0.15996   0.17613   0.20180
 Alpha virt. eigenvalues --    0.20245   0.26072   0.33072   0.33332   0.35855

 Mulliken charges:
               1
     1  C   -0.063894
     2  C    0.009085
     3  N   -0.212776
     4  H    0.091900
     5  H    0.092125
     6  H    0.083561
 Sum of Mulliken charges =   0.00000

 Dipole moment (field-independent basis, Debye):
    X=             -4.1661    Y=             -0.0159    Z=              0.0225  Tot=              4.1662
 Quadrupole moment (field-independent basis, Debye-Ang):
   XX=            -20.6549   YY=            -17.7570   ZZ=            -17.9594
   XY=              0.0482   XZ=             -0.1032   YZ=              0.0713

 Normal termination of Gaussian 09 at Wed Aug 26 23:53:20 2020.
