 Gaussian 09, Revision D.01,
 Gaussian 09:  ES64L-G09RevD.01 24-Apr-2013

 --------------------
 #p B2PLYPD3/Def2QZVP
 --------------------

 ------------
 cyanomethane
 ------------
 Symbolic Z-matrix:
 Charge =  0 Multiplicity = 1

                         Standard orientation:
 ---------------------------------------------------------------------
 Center     Atomic      Atomic             Coordinates (Angstroms)
 Number     Number       Type             X           Y           Z
 ---------------------------------------------------------------------
      1          6           0        1.175997    0.001430   -0.006437
      2          6           0       -0.277870    0.013117    0.014524
      3          7           0       -1.440567   -0.006941   -0.004517
      4          1           0        1.593779   -0.475448    0.912671
      5          1           0        1.564590    1.021139   -0.068895
      6          1           0        1.536841   -0.584392   -0.860674
 ---------------------------------------------------------------------

 SCF Done:  E(RB2PLYPD3) =  -132.534035899     A.U. after   11 cycles
 E2(B2PLYPD3) =    -0.1813962315D+00 E(B2PLYPD3) =    -0.13271543213068D+03

 The electronic state is 1-A.
 Alpha  occ. eigenvalues --  -14.84491 -10.67501 -10.66568  -1.03819  -0.88985
 Alpha  occ. eigenvalues --   -0.59903  -0.53960  -0.53118  -0.44878  -0.38897
 Alpha  occ. eigenvalues --   -0.38793
 Alpha virt. eigenvalues --    0.03675   0.07391   0.07667   0.10150   0.11341
 Alpha virt. eigenvalues --    0.11505   0.15390   0.16365   0.16398   0.20093
 Alpha virt. eigenvalues --    0.20144   0.25421   0.32525   0.34250   0.34649

 Mulliken charges:
               1
     1  C   -0.083556
     2  C    0.001377
     3  N   -0.209287
     4  H    0.094516
     5  H    0.098410
     6  H    0.098540
 Sum of Mulliken charges =   0.00000

 Dipole moment (field-independent basis, Debye):
    X=              4.1390    Y=              0.0037    Z=              0.0021  Tot=              4.1390
 Quadrupole moment (field-independent basis, Debye-Ang):
   XX=            -20.9703   YY=            -17.7731   ZZ=            -17.8577
   XY=             -0.0514   XZ=              0.0105   YZ=              0.0169

 Normal termination of Gaussian 09 at Thu Aug 27 00:06:59 2020.
