 Gaussian 09, Revision D.01,
 Gaussian 09:  ES64L-G09RevD.01 24-Apr-2013

 --------------------
 #p B2PLYPD3/Def2QZVP
 --------------------

 ------------
 cyanomethane
 ------------
 Symbolic Z-matrix:
 Charge =  0 Multiplicity = 1

                         Standard orientation:
 ---------------------------------------------------------------------
 Center     Atomic      Atomic             Coordinates (Angstroms)
 Number     Number       Type             X           Y           Z
 ---------------------------------------------------------------------
      1          6           0       -1.163161   -0.010546    0.010325
      2          6           0        0.285516    0.025179   -0.004861
      3          7           0        1.424042   -0.004662    0.000978
      4          1           0       -1.527490   -0.385142    0.934977
      5          1           0       -1.508506   -0.688138   -0.793420
      6          1           0       -1.666426    1.018118   -0.181181
 ---------------------------------------------------------------------

 SCF Done:  E(RB2PLYPD3) =  -132.532062977     A.U. after   12 cycles
 E2(B2PLYPD3) =    -0.1794733756D+00 E(B2PLYPD3) =    -0.13271153635271D+03

 The electronic state is 1-A.
 Alpha  occ. eigenvalues --  -14.83814 -10.67543 -10.65839  -1.04819  -0.88876
 Alpha  occ. eigenvalues --   -0.59911  -0.54019  -0.52475  -0.44815  -0.39480
 Alpha  occ. eigenvalues --   -0.39279
 Alpha virt. eigenvalues --    0.03654   0.07357   0.08208   0.10190   0.11687
 Alpha virt. eigenvalues --    0.11869   0.15495   0.16318   0.16890   0.20005
 Alpha virt. eigenvalues --    0.20027   0.25556   0.32348   0.34112   0.34919

 Mulliken charges:
               1
     1  C   -0.087517
     2  C   -0.001247
     3  N   -0.197017
     4  H    0.099675
     5  H    0.095695
     6  H    0.090411
 Sum of Mulliken charges =   0.00000

 Dipole moment (field-independent basis, Debye):
    X=             -4.0906    Y=             -0.0269    Z=              0.0047  Tot=              4.0907
 Quadrupole moment (field-independent basis, Debye-Ang):
   XX=            -20.9249   YY=            -17.7417   ZZ=            -17.7687
   XY=             -0.0208   XZ=             -0.0099   YZ=             -0.0123

 Normal termination of Gaussian 09 at Wed Aug 26 15:33:14 2020.
