 Gaussian 09, Revision D.01,
 Gaussian 09:  ES64L-G09RevD.01 24-Apr-2013

 --------------------
 #p B2PLYPD3/Def2QZVP
 --------------------

 ------------
 cyanomethane
 ------------
 Symbolic Z-matrix:
 Charge =  0 Multiplicity = 1

                         Standard orientation:
 ---------------------------------------------------------------------
 Center     Atomic      Atomic             Coordinates (Angstroms)
 Number     Number       Type             X           Y           Z
 ---------------------------------------------------------------------
      1          6           0       -1.178152    0.011503    0.035097
      2          6           0        0.290913   -0.064862   -0.033587
      3          7           0        1.420195    0.033063    0.013365
      4          1           0       -1.543882    0.838776   -0.558755
      5          1           0       -1.528154    0.072677    0.921771
      6          1           0       -1.545892   -0.822739   -0.465631
 ---------------------------------------------------------------------

 SCF Done:  E(RB2PLYPD3) =  -132.519158421     A.U. after   11 cycles
 E2(B2PLYPD3) =    -0.1782677128D+00 E(B2PLYPD3) =    -0.13269742613364D+03

 The electronic state is 1-A.
 Alpha  occ. eigenvalues --  -14.83677 -10.65670 -10.65138  -1.04960  -0.90492
 Alpha  occ. eigenvalues --   -0.60685  -0.56471  -0.53406  -0.44765  -0.39986
 Alpha  occ. eigenvalues --   -0.39515
 Alpha virt. eigenvalues --    0.03890   0.08686   0.09157   0.10113   0.11326
 Alpha virt. eigenvalues --    0.11674   0.15640   0.15812   0.17578   0.19881
 Alpha virt. eigenvalues --    0.20085   0.25535   0.33316   0.34562   0.36275

 Mulliken charges:
               1
     1  C   -0.067444
     2  C   -0.001027
     3  N   -0.196251
     4  H    0.083213
     5  H    0.097730
     6  H    0.083779
 Sum of Mulliken charges =   0.00000

 Dipole moment (field-independent basis, Debye):
    X=             -4.0925    Y=             -0.0621    Z=             -0.0461  Tot=              4.0932
 Quadrupole moment (field-independent basis, Debye-Ang):
   XX=            -20.7130   YY=            -17.7369   ZZ=            -17.5426
   XY=             -0.1756   XZ=             -0.0019   YZ=              0.0205

 Normal termination of Gaussian 09 at Wed Aug 26 23:12:00 2020.
