 Gaussian 09, Revision D.01,
 Gaussian 09:  ES64L-G09RevD.01 24-Apr-2013

 --------------------
 #p B2PLYPD3/Def2QZVP
 --------------------

 ------------
 cyanomethane
 ------------
 Symbolic Z-matrix:
 Charge =  0 Multiplicity = 1

                         Standard orientation:
 ---------------------------------------------------------------------
 Center     Atomic      Atomic             Coordinates (Angstroms)
 Number     Number       Type             X           Y           Z
 ---------------------------------------------------------------------
      1          6           0       -1.188468   -0.035937    0.011893
      2          6           0        0.280092    0.042847   -0.023400
      3          7           0        1.420785   -0.011750    0.007675
      4          1           0       -1.427932   -0.254519    0.956939
      5          1           0       -1.465473   -0.746652   -0.689863
      6          1           0       -1.601829    1.041961   -0.251754
 ---------------------------------------------------------------------

 SCF Done:  E(RB2PLYPD3) =  -132.522462114     A.U. after   12 cycles
 E2(B2PLYPD3) =    -0.1793448429D+00 E(B2PLYPD3) =    -0.13270180695700D+03

 The electronic state is 1-A.
 Alpha  occ. eigenvalues --  -14.83669 -10.66727 -10.65696  -1.04499  -0.89785
 Alpha  occ. eigenvalues --   -0.58696  -0.56781  -0.52781  -0.44535  -0.39538
 Alpha  occ. eigenvalues --   -0.39096
 Alpha virt. eigenvalues --    0.03752   0.07786   0.09162   0.10148   0.11254
 Alpha virt. eigenvalues --    0.11730   0.15302   0.15800   0.16131   0.20024
 Alpha virt. eigenvalues --    0.20067   0.25247   0.31430   0.34279   0.35910

 Mulliken charges:
               1
     1  C   -0.100277
     2  C   -0.006462
     3  N   -0.202119
     4  H    0.109116
     5  H    0.108233
     6  H    0.091509
 Sum of Mulliken charges =   0.00000

 Dipole moment (field-independent basis, Debye):
    X=             -4.0680    Y=             -0.0112    Z=              0.0126  Tot=              4.0680
 Quadrupole moment (field-independent basis, Debye-Ang):
   XX=            -21.3190   YY=            -17.5509   ZZ=            -17.6383
   XY=              0.0054   XZ=             -0.0421   YZ=              0.0683

 Normal termination of Gaussian 09 at Wed Aug 26 21:38:27 2020.
