 Gaussian 09, Revision D.01,
 Gaussian 09:  ES64L-G09RevD.01 24-Apr-2013

 --------------------
 #p B2PLYPD3/Def2QZVP
 --------------------

 ------------
 cyanomethane
 ------------
 Symbolic Z-matrix:
 Charge =  0 Multiplicity = 1

                         Standard orientation:
 ---------------------------------------------------------------------
 Center     Atomic      Atomic             Coordinates (Angstroms)
 Number     Number       Type             X           Y           Z
 ---------------------------------------------------------------------
      1          6           0        1.186594   -0.004259    0.002050
      2          6           0       -0.277400    0.015302    0.002033
      3          7           0       -1.439386   -0.007873   -0.002708
      4          1           0        1.541158    0.982148   -0.257566
      5          1           0        1.557195   -0.720187   -0.719128
      6          1           0        1.522184   -0.273101    0.971152
 ---------------------------------------------------------------------

 SCF Done:  E(RB2PLYPD3) =  -132.534613960     A.U. after   12 cycles
 E2(B2PLYPD3) =    -0.1809210549D+00 E(B2PLYPD3) =    -0.13271553501471D+03

 The electronic state is 1-A.
 Alpha  occ. eigenvalues --  -14.84372 -10.66769 -10.66458  -1.03770  -0.89526
 Alpha  occ. eigenvalues --   -0.59608  -0.54650  -0.54131  -0.44760  -0.38939
 Alpha  occ. eigenvalues --   -0.38898
 Alpha virt. eigenvalues --    0.03816   0.07899   0.08178   0.10184   0.11253
 Alpha virt. eigenvalues --    0.11328   0.15347   0.16037   0.16382   0.20118
 Alpha virt. eigenvalues --    0.20141   0.25208   0.32658   0.34724   0.34970

 Mulliken charges:
               1
     1  C   -0.081681
     2  C   -0.001700
     3  N   -0.210436
     4  H    0.097356
     5  H    0.097351
     6  H    0.099110
 Sum of Mulliken charges =   0.00000

 Dipole moment (field-independent basis, Debye):
    X=              4.1454    Y=              0.0085    Z=              0.0078  Tot=              4.1454
 Quadrupole moment (field-independent basis, Debye-Ang):
   XX=            -21.0287   YY=            -17.7361   ZZ=            -17.7518
   XY=             -0.0527   XZ=             -0.0312   YZ=             -0.0117

 Normal termination of Gaussian 09 at Wed Aug 26 21:29:32 2020.
