 Gaussian 09, Revision D.01,
 Gaussian 09:  ES64L-G09RevD.01 24-Apr-2013

 --------------------
 #p B2PLYPD3/Def2QZVP
 --------------------

 ------------
 cyanomethane
 ------------
 Symbolic Z-matrix:
 Charge =  0 Multiplicity = 1

                         Standard orientation:
 ---------------------------------------------------------------------
 Center     Atomic      Atomic             Coordinates (Angstroms)
 Number     Number       Type             X           Y           Z
 ---------------------------------------------------------------------
      1          6           0       -1.196610    0.001912    0.007094
      2          6           0        0.295879    0.007284   -0.076922
      3          7           0        1.442427   -0.001969    0.034596
      4          1           0       -1.480774   -0.336165    0.985031
      5          1           0       -1.603714   -0.696665   -0.673068
      6          1           0       -1.608122    0.991440   -0.135170
 ---------------------------------------------------------------------

 SCF Done:  E(RB2PLYPD3) =  -132.533233543     A.U. after   12 cycles
 E2(B2PLYPD3) =    -0.1801436332D+00 E(B2PLYPD3) =    -0.13271337717636D+03

 The electronic state is 1-A.
 Alpha  occ. eigenvalues --  -14.84239 -10.66888 -10.66373  -1.04207  -0.88948
 Alpha  occ. eigenvalues --   -0.59473  -0.54522  -0.53469  -0.44805  -0.39463
 Alpha  occ. eigenvalues --   -0.39242
 Alpha virt. eigenvalues --    0.03686   0.08006   0.08491   0.10243   0.11037
 Alpha virt. eigenvalues --    0.11496   0.15210   0.16231   0.16723   0.19963
 Alpha virt. eigenvalues --    0.20051   0.25023   0.32495   0.34694   0.35414

 Mulliken charges:
               1
     1  C   -0.077115
     2  C   -0.000746
     3  N   -0.204012
     4  H    0.094257
     5  H    0.092812
     6  H    0.094804
 Sum of Mulliken charges =   0.00000

 Dipole moment (field-independent basis, Debye):
    X=             -4.1329    Y=             -0.0184    Z=             -0.0218  Tot=              4.1330
 Quadrupole moment (field-independent basis, Debye-Ang):
   XX=            -20.8490   YY=            -17.6756   ZZ=            -17.8792
   XY=              0.0277   XZ=             -0.1709   YZ=              0.0182

 Normal termination of Gaussian 09 at Wed Aug 26 23:06:11 2020.
