 Gaussian 09, Revision D.01,
 Gaussian 09:  ES64L-G09RevD.01 24-Apr-2013

 --------------------
 #p B2PLYPD3/Def2QZVP
 --------------------

 ------------
 cyanomethane
 ------------
 Symbolic Z-matrix:
 Charge =  0 Multiplicity = 1

                         Standard orientation:
 ---------------------------------------------------------------------
 Center     Atomic      Atomic             Coordinates (Angstroms)
 Number     Number       Type             X           Y           Z
 ---------------------------------------------------------------------
      1          6           0       -1.182434   -0.003084    0.002903
      2          6           0        0.265601    0.019447   -0.028645
      3          7           0        1.430455   -0.004571    0.006579
      4          1           0       -1.548293   -0.654558   -0.772063
      5          1           0       -1.585497    1.011731   -0.089896
      6          1           0       -1.378396   -0.423352    0.970357
 ---------------------------------------------------------------------

 SCF Done:  E(RB2PLYPD3) =  -132.532419283     A.U. after   12 cycles
 E2(B2PLYPD3) =    -0.1813468293D+00 E(B2PLYPD3) =    -0.13271376611216D+03

 The electronic state is 1-A.
 Alpha  occ. eigenvalues --  -14.84288 -10.66911 -10.66370  -1.03611  -0.89810
 Alpha  occ. eigenvalues --   -0.59156  -0.54751  -0.54584  -0.44640  -0.38728
 Alpha  occ. eigenvalues --   -0.38558
 Alpha virt. eigenvalues --    0.03787   0.07763   0.08144   0.10187   0.11227
 Alpha virt. eigenvalues --    0.11479   0.15193   0.15589   0.16337   0.20141
 Alpha virt. eigenvalues --    0.20214   0.25493   0.32584   0.34419   0.34855

 Mulliken charges:
               1
     1  C   -0.095946
     2  C   -0.001307
     3  N   -0.214129
     4  H    0.102449
     5  H    0.102241
     6  H    0.106691
 Sum of Mulliken charges =   0.00000

 Dipole moment (field-independent basis, Debye):
    X=             -4.1291    Y=             -0.0114    Z=              0.0086  Tot=              4.1291
 Quadrupole moment (field-independent basis, Debye-Ang):
   XX=            -21.2700   YY=            -17.6448   ZZ=            -17.7362
   XY=             -0.0319   XZ=              0.0770   YZ=              0.0010

 Normal termination of Gaussian 09 at Wed Aug 26 10:57:21 2020.
