 Gaussian 09, Revision D.01,
 Gaussian 09:  ES64L-G09RevD.01 24-Apr-2013

 --------------------
 #p B2PLYPD3/Def2QZVP
 --------------------

 ------------
 cyanomethane
 ------------
 Symbolic Z-matrix:
 Charge =  0 Multiplicity = 1

                         Standard orientation:
 ---------------------------------------------------------------------
 Center     Atomic      Atomic             Coordinates (Angstroms)
 Number     Number       Type             X           Y           Z
 ---------------------------------------------------------------------
      1          6           0        1.177972   -0.011725    0.009892
      2          6           0       -0.285088    0.011375   -0.014224
      3          7           0       -1.437113   -0.005029    0.007026
      4          1           0        1.576104   -0.163647    1.040971
      5          1           0        1.560747    1.011601   -0.378874
      6          1           0        1.565637   -0.810656   -0.685291
 ---------------------------------------------------------------------

 SCF Done:  E(RB2PLYPD3) =  -132.530624958     A.U. after   12 cycles
 E2(B2PLYPD3) =    -0.1809349739D+00 E(B2PLYPD3) =    -0.13271155993144D+03

 The electronic state is 1-A.
 Alpha  occ. eigenvalues --  -14.84191 -10.68525 -10.66291  -1.04217  -0.88123
 Alpha  occ. eigenvalues --   -0.59139  -0.53366  -0.52334  -0.44812  -0.39151
 Alpha  occ. eigenvalues --   -0.38926
 Alpha virt. eigenvalues --    0.03489   0.07301   0.07485   0.10151   0.11489
 Alpha virt. eigenvalues --    0.11675   0.15264   0.15969   0.16716   0.20053
 Alpha virt. eigenvalues --    0.20071   0.25264   0.32148   0.33411   0.34409

 Mulliken charges:
               1
     1  C   -0.101038
     2  C    0.001423
     3  N   -0.203166
     4  H    0.104022
     5  H    0.096663
     6  H    0.102096
 Sum of Mulliken charges =   0.00000

 Dipole moment (field-independent basis, Debye):
    X=              4.1044    Y=              0.0068    Z=             -0.0093  Tot=              4.1044
 Quadrupole moment (field-independent basis, Debye-Ang):
   XX=            -21.1358   YY=            -17.8349   ZZ=            -17.7618
   XY=             -0.0300   XZ=              0.0488   YZ=              0.0238

 Normal termination of Gaussian 09 at Wed Aug 26 16:13:40 2020.
