 Gaussian 09, Revision D.01,
 Gaussian 09:  ES64L-G09RevD.01 24-Apr-2013

 --------------------
 #p B2PLYPD3/Def2QZVP
 --------------------

 ------------
 cyanomethane
 ------------
 Symbolic Z-matrix:
 Charge =  0 Multiplicity = 1

                         Standard orientation:
 ---------------------------------------------------------------------
 Center     Atomic      Atomic             Coordinates (Angstroms)
 Number     Number       Type             X           Y           Z
 ---------------------------------------------------------------------
      1          6           0        1.158361    0.010480    0.016321
      2          6           0       -0.276276   -0.051784   -0.015614
      3          7           0       -1.414018    0.036176    0.010432
      4          1           0        1.641287    1.071621   -0.318190
      5          1           0        1.410379   -0.795509   -0.778775
      6          1           0        1.553954   -0.281519    1.019691
 ---------------------------------------------------------------------

 SCF Done:  E(RB2PLYPD3) =  -132.518765579     A.U. after   12 cycles
 E2(B2PLYPD3) =    -0.1806946683D+00 E(B2PLYPD3) =    -0.13269946024749D+03

 The electronic state is 1-A.
 Alpha  occ. eigenvalues --  -14.83761 -10.68985 -10.65745  -1.04697  -0.88286
 Alpha  occ. eigenvalues --   -0.58726  -0.53261  -0.51864  -0.44733  -0.39153
 Alpha  occ. eigenvalues --   -0.38736
 Alpha virt. eigenvalues --    0.03100   0.06533   0.07813   0.10052   0.11843
 Alpha virt. eigenvalues --    0.11993   0.14954   0.15502   0.17418   0.20015
 Alpha virt. eigenvalues --    0.20163   0.25868   0.32127   0.32374   0.34026

 Mulliken charges:
               1
     1  C   -0.121725
     2  C    0.005472
     3  N   -0.198586
     4  H    0.102931
     5  H    0.102555
     6  H    0.109352
 Sum of Mulliken charges =   0.00000

 Dipole moment (field-independent basis, Debye):
    X=              4.0271    Y=             -0.0789    Z=             -0.0108  Tot=              4.0279
 Quadrupole moment (field-independent basis, Debye-Ang):
   XX=            -21.3825   YY=            -17.6992   ZZ=            -17.7241
   XY=              0.3350   XZ=              0.1445   YZ=             -0.0187

 Normal termination of Gaussian 09 at Wed Aug 26 22:20:13 2020.
