 Gaussian 09, Revision D.01,
 Gaussian 09:  ES64L-G09RevD.01 24-Apr-2013

 --------------------
 #p B2PLYPD3/Def2QZVP
 --------------------

 ------------
 cyanomethane
 ------------
 Symbolic Z-matrix:
 Charge =  0 Multiplicity = 1

                         Standard orientation:
 ---------------------------------------------------------------------
 Center     Atomic      Atomic             Coordinates (Angstroms)
 Number     Number       Type             X           Y           Z
 ---------------------------------------------------------------------
      1          6           0        1.178418   -0.005692    0.000954
      2          6           0       -0.286420   -0.017305    0.001810
      3          7           0       -1.435860    0.013078    0.000481
      4          1           0        1.605006    0.986192   -0.264416
      5          1           0        1.518468   -0.696271   -0.707763
      6          1           0        1.575562   -0.243485    0.952229
 ---------------------------------------------------------------------

 SCF Done:  E(RB2PLYPD3) =  -132.533661470     A.U. after   12 cycles
 E2(B2PLYPD3) =    -0.1798970721D+00 E(B2PLYPD3) =    -0.13271355854212D+03

 The electronic state is 1-A.
 Alpha  occ. eigenvalues --  -14.84144 -10.66611 -10.66221  -1.04339  -0.89454
 Alpha  occ. eigenvalues --   -0.60194  -0.54887  -0.53130  -0.44841  -0.39381
 Alpha  occ. eigenvalues --   -0.39204
 Alpha virt. eigenvalues --    0.03788   0.07797   0.08537   0.10208   0.11315
 Alpha virt. eigenvalues --    0.11583   0.15446   0.16318   0.16851   0.20014
 Alpha virt. eigenvalues --    0.20116   0.25235   0.32779   0.34543   0.35405

 Mulliken charges:
               1
     1  C   -0.071694
     2  C   -0.001263
     3  N   -0.203437
     4  H    0.088498
     5  H    0.095228
     6  H    0.092668
 Sum of Mulliken charges =   0.00000

 Dipole moment (field-independent basis, Debye):
    X=              4.1363    Y=             -0.0280    Z=              0.0012  Tot=              4.1364
 Quadrupole moment (field-independent basis, Debye-Ang):
   XX=            -20.7962   YY=            -17.7837   ZZ=            -17.7539
   XY=              0.1159   XZ=              0.0334   YZ=              0.0412

 Normal termination of Gaussian 09 at Wed Aug 26 10:02:22 2020.
