 Gaussian 09, Revision D.01,
 Gaussian 09:  ES64L-G09RevD.01 24-Apr-2013

 --------------------
 #p B2PLYPD3/Def2QZVP
 --------------------

 ------------
 cyanomethane
 ------------
 Symbolic Z-matrix:
 Charge =  0 Multiplicity = 1

                         Standard orientation:
 ---------------------------------------------------------------------
 Center     Atomic      Atomic             Coordinates (Angstroms)
 Number     Number       Type             X           Y           Z
 ---------------------------------------------------------------------
      1          6           0        1.166959    0.007597    0.005708
      2          6           0       -0.285908    0.000228   -0.027533
      3          7           0       -1.424223    0.001040    0.016790
      4          1           0        1.593203   -0.270222    0.945526
      5          1           0        1.577628    0.941903   -0.252709
      6          1           0        1.512427   -0.725910   -0.679402
 ---------------------------------------------------------------------

 SCF Done:  E(RB2PLYPD3) =  -132.534035280     A.U. after   11 cycles
 E2(B2PLYPD3) =    -0.1788970210D+00 E(B2PLYPD3) =    -0.13271293230121D+03

 The electronic state is 1-A.
 Alpha  occ. eigenvalues --  -14.83818 -10.66086 -10.65836  -1.04797  -0.89831
 Alpha  occ. eigenvalues --   -0.60655  -0.54707  -0.53629  -0.44819  -0.39608
 Alpha  occ. eigenvalues --   -0.39431
 Alpha virt. eigenvalues --    0.03892   0.08161   0.08648   0.10181   0.11510
 Alpha virt. eigenvalues --    0.11722   0.15619   0.16211   0.17249   0.19986
 Alpha virt. eigenvalues --    0.20092   0.25523   0.33233   0.34870   0.35460

 Mulliken charges:
               1
     1  C   -0.065882
     2  C   -0.001529
     3  N   -0.198457
     4  H    0.086914
     5  H    0.090633
     6  H    0.088322
 Sum of Mulliken charges =   0.00000

 Dipole moment (field-independent basis, Debye):
    X=              4.1181    Y=             -0.0183    Z=             -0.0276  Tot=              4.1183
 Quadrupole moment (field-independent basis, Debye-Ang):
   XX=            -20.7143   YY=            -17.6509   ZZ=            -17.7912
   XY=             -0.0011   XZ=              0.1445   YZ=             -0.0026

 Normal termination of Gaussian 09 at Wed Aug 26 15:00:42 2020.
