 Gaussian 09, Revision D.01,
 Gaussian 09:  ES64L-G09RevD.01 24-Apr-2013

 --------------------
 #p B2PLYPD3/Def2QZVP
 --------------------

 ------------
 cyanomethane
 ------------
 Symbolic Z-matrix:
 Charge =  0 Multiplicity = 1

                         Standard orientation:
 ---------------------------------------------------------------------
 Center     Atomic      Atomic             Coordinates (Angstroms)
 Number     Number       Type             X           Y           Z
 ---------------------------------------------------------------------
      1          6           0        1.173438    0.002841   -0.004225
      2          6           0       -0.276588   -0.031658   -0.014806
      3          7           0       -1.430427    0.013097    0.006561
      4          1           0        1.501843    1.052760   -0.030111
      5          1           0        1.587308   -0.530601   -0.799977
      6          1           0        1.542739   -0.440936    0.898340
 ---------------------------------------------------------------------

 SCF Done:  E(RB2PLYPD3) =  -132.534168461     A.U. after   11 cycles
 E2(B2PLYPD3) =    -0.1802885747D+00 E(B2PLYPD3) =    -0.13271445703617D+03

 The electronic state is 1-A.
 Alpha  occ. eigenvalues --  -14.84183 -10.66496 -10.66215  -1.04122  -0.89749
 Alpha  occ. eigenvalues --   -0.60216  -0.54639  -0.53912  -0.44796  -0.39129
 Alpha  occ. eigenvalues --   -0.38983
 Alpha virt. eigenvalues --    0.03793   0.07901   0.08290   0.10194   0.11347
 Alpha virt. eigenvalues --    0.11557   0.15465   0.16240   0.16526   0.20061
 Alpha virt. eigenvalues --    0.20129   0.25538   0.32981   0.34438   0.35193

 Mulliken charges:
               1
     1  C   -0.076050
     2  C   -0.000586
     3  N   -0.207137
     4  H    0.096389
     5  H    0.094728
     6  H    0.092656
 Sum of Mulliken charges =   0.00000

 Dipole moment (field-independent basis, Debye):
    X=              4.1311    Y=             -0.0308    Z=              0.0004  Tot=              4.1313
 Quadrupole moment (field-independent basis, Debye-Ang):
   XX=            -20.9219   YY=            -17.6540   ZZ=            -17.8103
   XY=             -0.0152   XZ=              0.0322   YZ=              0.0215

 Normal termination of Gaussian 09 at Wed Aug 26 16:13:21 2020.
