 Gaussian 09, Revision D.01,
 Gaussian 09:  ES64L-G09RevD.01 24-Apr-2013

 --------------------
 #p B2PLYPD3/Def2QZVP
 --------------------

 ------------
 cyanomethane
 ------------
 Symbolic Z-matrix:
 Charge =  0 Multiplicity = 1

                         Standard orientation:
 ---------------------------------------------------------------------
 Center     Atomic      Atomic             Coordinates (Angstroms)
 Number     Number       Type             X           Y           Z
 ---------------------------------------------------------------------
      1          6           0        1.177467   -0.019664    0.006395
      2          6           0       -0.269426    0.043637    0.000597
      3          7           0       -1.422388   -0.031207   -0.007831
      4          1           0        1.408257    0.899311   -0.392409
      5          1           0        1.680597   -0.754674   -0.555271
      6          1           0        1.419620   -0.070027    0.960545
 ---------------------------------------------------------------------

 SCF Done:  E(RB2PLYPD3) =  -132.518382567     A.U. after   12 cycles
 E2(B2PLYPD3) =    -0.1800963306D+00 E(B2PLYPD3) =    -0.13269847889753D+03

 The electronic state is 1-A.
 Alpha  occ. eigenvalues --  -14.84087 -10.66131 -10.64923  -1.04123  -0.91299
 Alpha  occ. eigenvalues --   -0.60504  -0.56921  -0.54274  -0.44707  -0.39160
 Alpha  occ. eigenvalues --   -0.38880
 Alpha virt. eigenvalues --    0.03946   0.07937   0.09462   0.10041   0.11281
 Alpha virt. eigenvalues --    0.11527   0.14990   0.15661   0.17593   0.20175
 Alpha virt. eigenvalues --    0.20293   0.25699   0.33226   0.35002   0.36109

 Mulliken charges:
               1
     1  C   -0.079847
     2  C    0.002207
     3  N   -0.210171
     4  H    0.094851
     5  H    0.092230
     6  H    0.100730
 Sum of Mulliken charges =   0.00000

 Dipole moment (field-independent basis, Debye):
    X=              4.1266    Y=              0.0777    Z=              0.0134  Tot=              4.1274
 Quadrupole moment (field-independent basis, Debye-Ang):
   XX=            -20.8843   YY=            -17.6959   ZZ=            -17.5993
   XY=             -0.2688   XZ=             -0.1514   YZ=             -0.0280

 Normal termination of Gaussian 09 at Wed Aug 26 23:36:54 2020.
