 Gaussian 09, Revision D.01,
 Gaussian 09:  ES64L-G09RevD.01 24-Apr-2013

 --------------------
 #p B2PLYPD3/Def2QZVP
 --------------------

 ------------
 cyanomethane
 ------------
 Symbolic Z-matrix:
 Charge =  0 Multiplicity = 1

                         Standard orientation:
 ---------------------------------------------------------------------
 Center     Atomic      Atomic             Coordinates (Angstroms)
 Number     Number       Type             X           Y           Z
 ---------------------------------------------------------------------
      1          6           0        1.180947   -0.016272    0.004549
      2          6           0       -0.276837   -0.020732   -0.055197
      3          7           0       -1.454986    0.027683    0.030005
      4          1           0        1.460200   -0.570901   -0.813603
      5          1           0        1.516922   -0.481159    0.933133
      6          1           0        1.783123    1.080307   -0.025676
 ---------------------------------------------------------------------

 SCF Done:  E(RB2PLYPD3) =  -132.511586342     A.U. after   13 cycles
 E2(B2PLYPD3) =    -0.1838296553D+00 E(B2PLYPD3) =    -0.13269541599701D+03

 The electronic state is 1-A.
 Alpha  occ. eigenvalues --  -14.85199 -10.68089 -10.67287  -1.03186  -0.88967
 Alpha  occ. eigenvalues --   -0.59696  -0.55300  -0.50782  -0.45060  -0.38599
 Alpha  occ. eigenvalues --   -0.38218
 Alpha virt. eigenvalues --    0.02800   0.05797   0.08131   0.09959   0.10969
 Alpha virt. eigenvalues --    0.11577   0.15228   0.15538   0.17368   0.20039
 Alpha virt. eigenvalues --    0.20457   0.25501   0.30597   0.33494   0.34858

 Mulliken charges:
               1
     1  C   -0.092463
     2  C    0.007512
     3  N   -0.215075
     4  H    0.107289
     5  H    0.102639
     6  H    0.090099
 Sum of Mulliken charges =   0.00000

 Dipole moment (field-independent basis, Debye):
    X=              4.1353    Y=             -0.1062    Z=             -0.0260  Tot=              4.1368
 Quadrupole moment (field-independent basis, Debye-Ang):
   XX=            -20.9177   YY=            -17.9724   ZZ=            -17.9221
   XY=              0.2498   XZ=              0.2075   YZ=              0.0517

 Normal termination of Gaussian 09 at Wed Aug 26 16:34:59 2020.
