 Gaussian 09, Revision D.01,
 Gaussian 09:  ES64L-G09RevD.01 24-Apr-2013

 --------------------
 #p B2PLYPD3/Def2QZVP
 --------------------

 ------------
 cyanomethane
 ------------
 Symbolic Z-matrix:
 Charge =  0 Multiplicity = 1

                         Standard orientation:
 ---------------------------------------------------------------------
 Center     Atomic      Atomic             Coordinates (Angstroms)
 Number     Number       Type             X           Y           Z
 ---------------------------------------------------------------------
      1          6           0        1.171595   -0.018057    0.035253
      2          6           0       -0.277293   -0.058827    0.017788
      3          7           0       -1.424235    0.041368   -0.020218
      4          1           0        1.689874    0.936651   -0.485237
      5          1           0        1.490519   -0.782752   -0.580766
      6          1           0        1.423440    0.017828    0.889287
 ---------------------------------------------------------------------

 SCF Done:  E(RB2PLYPD3) =  -132.485961868     A.U. after   12 cycles
 E2(B2PLYPD3) =    -0.1802346672D+00 E(B2PLYPD3) =    -0.13266619653478D+03

 The electronic state is 1-A.
 Alpha  occ. eigenvalues --  -14.84209 -10.66115 -10.65436  -1.04377  -0.91230
 Alpha  occ. eigenvalues --   -0.61088  -0.58765  -0.50999  -0.44870  -0.39629
 Alpha  occ. eigenvalues --   -0.38657
 Alpha virt. eigenvalues --    0.03090   0.07294   0.09718   0.10162   0.10815
 Alpha virt. eigenvalues --    0.11837   0.15667   0.15927   0.17106   0.19949
 Alpha virt. eigenvalues --    0.20249   0.25607   0.31472   0.33834   0.36636

 Mulliken charges:
               1
     1  C   -0.116454
     2  C    0.002904
     3  N   -0.204689
     4  H    0.077637
     5  H    0.102724
     6  H    0.137878
 Sum of Mulliken charges =   0.00000

 Dipole moment (field-independent basis, Debye):
    X=              4.0841    Y=             -0.0916    Z=              0.0215  Tot=              4.0852
 Quadrupole moment (field-independent basis, Debye-Ang):
   XX=            -20.8027   YY=            -17.8409   ZZ=            -17.5710
   XY=              0.3271   XZ=             -0.2502   YZ=              0.1670

 Normal termination of Gaussian 09 at Wed Aug 26 21:32:00 2020.
