 Gaussian 09, Revision D.01,
 Gaussian 09:  ES64L-G09RevD.01 24-Apr-2013

 --------------------
 #p B2PLYPD3/Def2QZVP
 --------------------

 ------------
 cyanomethane
 ------------
 Symbolic Z-matrix:
 Charge =  0 Multiplicity = 1

                         Standard orientation:
 ---------------------------------------------------------------------
 Center     Atomic      Atomic             Coordinates (Angstroms)
 Number     Number       Type             X           Y           Z
 ---------------------------------------------------------------------
      1          6           0       -1.183368   -0.011273   -0.003373
      2          6           0        0.288232    0.028389   -0.000099
      3          7           0        1.431955   -0.012918   -0.000678
      4          1           0       -1.533515   -0.205114    0.977676
      5          1           0       -1.551850   -0.760411   -0.646481
      6          1           0       -1.567507    0.953254   -0.305615
 ---------------------------------------------------------------------

 SCF Done:  E(RB2PLYPD3) =  -132.535154681     A.U. after   11 cycles
 E2(B2PLYPD3) =    -0.1793097841D+00 E(B2PLYPD3) =    -0.13271446446522D+03

 The electronic state is 1-A.
 Alpha  occ. eigenvalues --  -14.83925 -10.66466 -10.65998  -1.04497  -0.89485
 Alpha  occ. eigenvalues --   -0.59790  -0.54574  -0.54028  -0.44744  -0.39485
 Alpha  occ. eigenvalues --   -0.39384
 Alpha virt. eigenvalues --    0.03872   0.08378   0.08488   0.10217   0.11412
 Alpha virt. eigenvalues --    0.11490   0.15412   0.16188   0.16760   0.20012
 Alpha virt. eigenvalues --    0.20063   0.25148   0.32862   0.34869   0.35326

 Mulliken charges:
               1
     1  C   -0.075227
     2  C   -0.004080
     3  N   -0.201190
     4  H    0.093080
     5  H    0.095676
     6  H    0.091741
 Sum of Mulliken charges =   0.00000

 Dipole moment (field-independent basis, Debye):
    X=             -4.1255    Y=              0.0153    Z=              0.0130  Tot=              4.1255
 Quadrupole moment (field-independent basis, Debye-Ang):
   XX=            -20.8832   YY=            -17.6763   ZZ=            -17.7459
   XY=              0.0670   XZ=             -0.0072   YZ=              0.0217

 Normal termination of Gaussian 09 at Wed Aug 26 11:28:11 2020.
