 Gaussian 09, Revision D.01,
 Gaussian 09:  ES64L-G09RevD.01 24-Apr-2013

 --------------------
 #p B2PLYPD3/Def2QZVP
 --------------------

 ------------
 cyanomethane
 ------------
 Symbolic Z-matrix:
 Charge =  0 Multiplicity = 1

                         Standard orientation:
 ---------------------------------------------------------------------
 Center     Atomic      Atomic             Coordinates (Angstroms)
 Number     Number       Type             X           Y           Z
 ---------------------------------------------------------------------
      1          6           0        1.170260   -0.028820   -0.010468
      2          6           0       -0.268340    0.071733    0.021701
      3          7           0       -1.428849   -0.042211   -0.015481
      4          1           0        1.427952    1.013045   -0.064609
      5          1           0        1.655185   -0.549329   -0.765871
      6          1           0        1.507284   -0.425715    0.871446
 ---------------------------------------------------------------------

 SCF Done:  E(RB2PLYPD3) =  -132.522286017     A.U. after   13 cycles
 E2(B2PLYPD3) =    -0.1814729918D+00 E(B2PLYPD3) =    -0.13270375900889D+03

 The electronic state is 1-A.
 Alpha  occ. eigenvalues --  -14.84563 -10.66576 -10.65601  -1.03776  -0.90596
 Alpha  occ. eigenvalues --   -0.61501  -0.55118  -0.53933  -0.44913  -0.38890
 Alpha  occ. eigenvalues --   -0.38563
 Alpha virt. eigenvalues --    0.03797   0.07366   0.08548   0.09726   0.11323
 Alpha virt. eigenvalues --    0.11572   0.15012   0.15875   0.17752   0.20098
 Alpha virt. eigenvalues --    0.20463   0.26101   0.33184   0.34493   0.35645

 Mulliken charges:
               1
     1  C   -0.072754
     2  C    0.009955
     3  N   -0.213075
     4  H    0.091142
     5  H    0.091766
     6  H    0.092966
 Sum of Mulliken charges =   0.00000

 Dipole moment (field-independent basis, Debye):
    X=              4.1171    Y=              0.0590    Z=              0.0376  Tot=              4.1177
 Quadrupole moment (field-independent basis, Debye-Ang):
   XX=            -20.8354   YY=            -17.6598   ZZ=            -17.8447
   XY=             -0.3527   XZ=             -0.1231   YZ=             -0.0253

 Normal termination of Gaussian 09 at Wed Aug 26 21:55:14 2020.
