 Gaussian 09, Revision D.01,
 Gaussian 09:  ES64L-G09RevD.01 24-Apr-2013

 --------------------
 #p B2PLYPD3/Def2QZVP
 --------------------

 ------------
 cyanomethane
 ------------
 Symbolic Z-matrix:
 Charge =  0 Multiplicity = 1

                         Standard orientation:
 ---------------------------------------------------------------------
 Center     Atomic      Atomic             Coordinates (Angstroms)
 Number     Number       Type             X           Y           Z
 ---------------------------------------------------------------------
      1          6           0       -1.157647   -0.018165   -0.010957
      2          6           0        0.283819   -0.012381   -0.047395
      3          7           0        1.421657    0.017686    0.021107
      4          1           0       -1.678232    1.070970    0.182947
      5          1           0       -1.440738   -0.615703    0.889338
      6          1           0       -1.589663   -0.395794   -0.869922
 ---------------------------------------------------------------------

 SCF Done:  E(RB2PLYPD3) =  -132.522618095     A.U. after   12 cycles
 E2(B2PLYPD3) =    -0.1799414368D+00 E(B2PLYPD3) =    -0.13270255953214D+03

 The electronic state is 1-A.
 Alpha  occ. eigenvalues --  -14.83892 -10.67841 -10.65893  -1.04824  -0.88875
 Alpha  occ. eigenvalues --   -0.60185  -0.54702  -0.51138  -0.44868  -0.39549
 Alpha  occ. eigenvalues --   -0.38938
 Alpha virt. eigenvalues --    0.03237   0.06675   0.08507   0.10192   0.11463
 Alpha virt. eigenvalues --    0.12185   0.15469   0.16168   0.17112   0.19897
 Alpha virt. eigenvalues --    0.20152   0.25702   0.31597   0.33617   0.34821

 Mulliken charges:
               1
     1  C   -0.092843
     2  C    0.001606
     3  N   -0.197148
     4  H    0.086164
     5  H    0.099318
     6  H    0.102903
 Sum of Mulliken charges =   0.00000

 Dipole moment (field-independent basis, Debye):
    X=             -4.0717    Y=             -0.0705    Z=             -0.0243  Tot=              4.0724
 Quadrupole moment (field-independent basis, Debye-Ang):
   XX=            -20.9365   YY=            -17.8659   ZZ=            -17.7014
   XY=             -0.1709   XZ=             -0.0547   YZ=              0.0114

 Normal termination of Gaussian 09 at Wed Aug 26 18:47:59 2020.
