 Gaussian 09, Revision D.01,
 Gaussian 09:  ES64L-G09RevD.01 24-Apr-2013

 --------------------
 #p B2PLYPD3/Def2QZVP
 --------------------

 ------------
 cyanomethane
 ------------
 Symbolic Z-matrix:
 Charge =  0 Multiplicity = 1

                         Standard orientation:
 ---------------------------------------------------------------------
 Center     Atomic      Atomic             Coordinates (Angstroms)
 Number     Number       Type             X           Y           Z
 ---------------------------------------------------------------------
      1          6           0        1.166482    0.016102   -0.018930
      2          6           0       -0.290658    0.033185   -0.052595
      3          7           0       -1.444762   -0.028239    0.037741
      4          1           0        1.749412   -0.282759    1.019516
      5          1           0        1.479558    0.979029   -0.209067
      6          1           0        1.629424   -0.794318   -0.645486
 ---------------------------------------------------------------------

 SCF Done:  E(RB2PLYPD3) =  -132.513704917     A.U. after   12 cycles
 E2(B2PLYPD3) =    -0.1820566267D+00 E(B2PLYPD3) =    -0.13269576154357D+03

 The electronic state is 1-A.
 Alpha  occ. eigenvalues --  -14.84711 -10.68119 -10.66754  -1.04187  -0.88557
 Alpha  occ. eigenvalues --   -0.60398  -0.55569  -0.49434  -0.45146  -0.39391
 Alpha  occ. eigenvalues --   -0.38433
 Alpha virt. eigenvalues --    0.02825   0.05973   0.08281   0.09971   0.10944
 Alpha virt. eigenvalues --    0.12108   0.15395   0.16628   0.17309   0.19811
 Alpha virt. eigenvalues --    0.20446   0.25544   0.31336   0.32877   0.35480

 Mulliken charges:
               1
     1  C   -0.078887
     2  C    0.006659
     3  N   -0.203416
     4  H    0.077612
     5  H    0.103379
     6  H    0.094653
 Sum of Mulliken charges =   0.00000

 Dipole moment (field-independent basis, Debye):
    X=              4.1125    Y=              0.0303    Z=             -0.0635  Tot=              4.1131
 Quadrupole moment (field-independent basis, Debye-Ang):
   XX=            -20.6380   YY=            -17.6555   ZZ=            -18.3173
   XY=             -0.3447   XZ=              0.3429   YZ=              0.0385

 Normal termination of Gaussian 09 at Wed Aug 26 22:18:38 2020.
