 Gaussian 09, Revision D.01,
 Gaussian 09:  ES64L-G09RevD.01 24-Apr-2013

 --------------------
 #p B2PLYPD3/Def2QZVP
 --------------------

 ------------
 cyanomethane
 ------------
 Symbolic Z-matrix:
 Charge =  0 Multiplicity = 1

                         Standard orientation:
 ---------------------------------------------------------------------
 Center     Atomic      Atomic             Coordinates (Angstroms)
 Number     Number       Type             X           Y           Z
 ---------------------------------------------------------------------
      1          6           0       -1.181044    0.007067    0.008709
      2          6           0        0.278914   -0.002681   -0.034782
      3          7           0        1.425497   -0.000137    0.013971
      4          1           0       -1.477435   -0.203207    0.978968
      5          1           0       -1.561833   -0.767901   -0.623470
      6          1           0       -1.526432    0.945748   -0.296850
 ---------------------------------------------------------------------

 SCF Done:  E(RB2PLYPD3) =  -132.533374465     A.U. after   11 cycles
 E2(B2PLYPD3) =    -0.1793848308D+00 E(B2PLYPD3) =    -0.13271275929618D+03

 The electronic state is 1-A.
 Alpha  occ. eigenvalues --  -14.83895 -10.65954 -10.65899  -1.04344  -0.90122
 Alpha  occ. eigenvalues --   -0.59651  -0.55508  -0.54500  -0.44669  -0.39343
 Alpha  occ. eigenvalues --   -0.39218
 Alpha virt. eigenvalues --    0.03946   0.08479   0.08684   0.10222   0.11317
 Alpha virt. eigenvalues --    0.11520   0.15468   0.16166   0.16346   0.20047
 Alpha virt. eigenvalues --    0.20100   0.25354   0.32999   0.35050   0.35481

 Mulliken charges:
               1
     1  C   -0.076542
     2  C   -0.005040
     3  N   -0.204416
     4  H    0.096637
     5  H    0.092141
     6  H    0.097221
 Sum of Mulliken charges =   0.00000

 Dipole moment (field-independent basis, Debye):
    X=             -4.1199    Y=             -0.0087    Z=             -0.0053  Tot=              4.1199
 Quadrupole moment (field-independent basis, Debye-Ang):
   XX=            -20.9889   YY=            -17.5889   ZZ=            -17.7077
   XY=              0.0376   XZ=             -0.0546   YZ=             -0.0321

 Normal termination of Gaussian 09 at Wed Aug 26 12:10:25 2020.
