 Gaussian 09, Revision D.01,
 Gaussian 09:  ES64L-G09RevD.01 24-Apr-2013

 --------------------
 #p B2PLYPD3/Def2QZVP
 --------------------

 ------------
 cyanomethane
 ------------
 Symbolic Z-matrix:
 Charge =  0 Multiplicity = 1

                         Standard orientation:
 ---------------------------------------------------------------------
 Center     Atomic      Atomic             Coordinates (Angstroms)
 Number     Number       Type             X           Y           Z
 ---------------------------------------------------------------------
      1          6           0       -1.191877   -0.036751   -0.019469
      2          6           0        0.284677    0.032226    0.043968
      3          7           0        1.449732   -0.013979   -0.028567
      4          1           0       -1.460547   -0.147053    0.942891
      5          1           0       -1.652884   -0.687498   -0.593173
      6          1           0       -1.591490    0.959560   -0.296740
 ---------------------------------------------------------------------

 SCF Done:  E(RB2PLYPD3) =  -132.515145265     A.U. after   13 cycles
 E2(B2PLYPD3) =    -0.1814338031D+00 E(B2PLYPD3) =    -0.13269657906777D+03

 The electronic state is 1-A.
 Alpha  occ. eigenvalues --  -14.84777 -10.66945 -10.65571  -1.03676  -0.90403
 Alpha  occ. eigenvalues --   -0.61588  -0.55721  -0.53083  -0.44984  -0.39160
 Alpha  occ. eigenvalues --   -0.38799
 Alpha virt. eigenvalues --    0.03810   0.07366   0.08694   0.09918   0.11215
 Alpha virt. eigenvalues --    0.11427   0.15327   0.15590   0.17913   0.20148
 Alpha virt. eigenvalues --    0.20449   0.25243   0.32465   0.34437   0.35970

 Mulliken charges:
               1
     1  C   -0.062320
     2  C    0.010811
     3  N   -0.212271
     4  H    0.091510
     5  H    0.092763
     6  H    0.079506
 Sum of Mulliken charges =   0.00000

 Dipole moment (field-independent basis, Debye):
    X=             -4.1625    Y=              0.0256    Z=              0.0764  Tot=              4.1633
 Quadrupole moment (field-independent basis, Debye-Ang):
   XX=            -20.6090   YY=            -17.8482   ZZ=            -17.8212
   XY=              0.0511   XZ=              0.1848   YZ=              0.0666

 Normal termination of Gaussian 09 at Wed Aug 26 22:08:15 2020.
