 Gaussian 09, Revision D.01,
 Gaussian 09:  ES64L-G09RevD.01 24-Apr-2013

 --------------------
 #p B2PLYPD3/Def2QZVP
 --------------------

 ------------
 cyanomethane
 ------------
 Symbolic Z-matrix:
 Charge =  0 Multiplicity = 1

                         Standard orientation:
 ---------------------------------------------------------------------
 Center     Atomic      Atomic             Coordinates (Angstroms)
 Number     Number       Type             X           Y           Z
 ---------------------------------------------------------------------
      1          6           0        1.140108    0.013820   -0.009942
      2          6           0       -0.261801   -0.032737   -0.018442
      3          7           0       -1.435432    0.021796    0.010817
      4          1           0        1.526506   -0.794419   -0.610433
      5          1           0        1.575400   -0.193825    1.013625
      6          1           0        1.676274    0.949177   -0.308606
 ---------------------------------------------------------------------

 SCF Done:  E(RB2PLYPD3) =  -132.525510193     A.U. after   12 cycles
 E2(B2PLYPD3) =    -0.1829375070D+00 E(B2PLYPD3) =    -0.13270844769997D+03

 The electronic state is 1-A.
 Alpha  occ. eigenvalues --  -14.84931 -10.67161 -10.66853  -1.03586  -0.89776
 Alpha  occ. eigenvalues --   -0.61796  -0.53945  -0.52301  -0.45149  -0.38465
 Alpha  occ. eigenvalues --   -0.38192
 Alpha virt. eigenvalues --    0.03547   0.06195   0.07229   0.09882   0.11489
 Alpha virt. eigenvalues --    0.11846   0.15703   0.16012   0.17609   0.20143
 Alpha virt. eigenvalues --    0.20459   0.26392   0.32956   0.33803   0.34663

 Mulliken charges:
               1
     1  C   -0.066146
     2  C    0.008986
     3  N   -0.214178
     4  H    0.092005
     5  H    0.085659
     6  H    0.093674
 Sum of Mulliken charges =   0.00000

 Dipole moment (field-independent basis, Debye):
    X=              4.1654    Y=             -0.0553    Z=              0.0025  Tot=              4.1657
 Quadrupole moment (field-independent basis, Debye-Ang):
   XX=            -20.6267   YY=            -17.8470   ZZ=            -18.0285
   XY=              0.1541   XZ=              0.1074   YZ=              0.0351

 Normal termination of Gaussian 09 at Wed Aug 26 18:22:58 2020.
