 Gaussian 09, Revision D.01,
 Gaussian 09:  ES64L-G09RevD.01 24-Apr-2013

 --------------------
 #p B2PLYPD3/Def2QZVP
 --------------------

 ------------
 cyanomethane
 ------------
 Symbolic Z-matrix:
 Charge =  0 Multiplicity = 1

                         Standard orientation:
 ---------------------------------------------------------------------
 Center     Atomic      Atomic             Coordinates (Angstroms)
 Number     Number       Type             X           Y           Z
 ---------------------------------------------------------------------
      1          6           0        1.172993    0.000036    0.001970
      2          6           0       -0.277643   -0.002027   -0.014920
      3          7           0       -1.435489    0.004481    0.005717
      4          1           0        1.611532    0.945022   -0.389134
      5          1           0        1.537496   -0.837751   -0.592717
      6          1           0        1.527295   -0.126695    1.019535
 ---------------------------------------------------------------------

 SCF Done:  E(RB2PLYPD3) =  -132.534708038     A.U. after   12 cycles
 E2(B2PLYPD3) =    -0.1808726431D+00 E(B2PLYPD3) =    -0.13271558068128D+03

 The electronic state is 1-A.
 Alpha  occ. eigenvalues --  -14.84321 -10.67254 -10.66377  -1.04014  -0.89187
 Alpha  occ. eigenvalues --   -0.59951  -0.53961  -0.53452  -0.44845  -0.38966
 Alpha  occ. eigenvalues --   -0.38933
 Alpha virt. eigenvalues --    0.03722   0.07508   0.07889   0.10158   0.11434
 Alpha virt. eigenvalues --    0.11531   0.15446   0.16130   0.16668   0.20086
 Alpha virt. eigenvalues --    0.20131   0.25476   0.32659   0.34545   0.34572

 Mulliken charges:
               1
     1  C   -0.082569
     2  C    0.000296
     3  N   -0.207472
     4  H    0.095403
     5  H    0.097231
     6  H    0.097111
 Sum of Mulliken charges =   0.00000

 Dipole moment (field-independent basis, Debye):
    X=              4.1320    Y=             -0.0169    Z=              0.0062  Tot=              4.1320
 Quadrupole moment (field-independent basis, Debye-Ang):
   XX=            -20.9617   YY=            -17.7488   ZZ=            -17.8190
   XY=              0.0599   XZ=              0.0325   YZ=              0.0134

 Normal termination of Gaussian 09 at Thu Aug 27 00:11:50 2020.
