 Gaussian 09, Revision D.01,
 Gaussian 09:  ES64L-G09RevD.01 24-Apr-2013

 --------------------
 #p B2PLYPD3/Def2QZVP
 --------------------

 ------------
 cyanomethane
 ------------
 Symbolic Z-matrix:
 Charge =  0 Multiplicity = 1

                         Standard orientation:
 ---------------------------------------------------------------------
 Center     Atomic      Atomic             Coordinates (Angstroms)
 Number     Number       Type             X           Y           Z
 ---------------------------------------------------------------------
      1          6           0       -1.172354    0.015164    0.001826
      2          6           0        0.266013   -0.010327    0.025449
      3          7           0        1.432203    0.008781   -0.019603
      4          1           0       -1.423317   -0.409431    0.901260
      5          1           0       -1.556209   -0.674516   -0.775332
      6          1           0       -1.607851    0.993453   -0.152352
 ---------------------------------------------------------------------

 SCF Done:  E(RB2PLYPD3) =  -132.528564636     A.U. after   12 cycles
 E2(B2PLYPD3) =    -0.1814882934D+00 E(B2PLYPD3) =    -0.13271005292988D+03

 The electronic state is 1-A.
 Alpha  occ. eigenvalues --  -14.84462 -10.66506 -10.66419  -1.03654  -0.90198
 Alpha  occ. eigenvalues --   -0.60074  -0.55629  -0.53504  -0.44800  -0.38792
 Alpha  occ. eigenvalues --   -0.38513
 Alpha virt. eigenvalues --    0.03751   0.07251   0.08490   0.10067   0.11209
 Alpha virt. eigenvalues --    0.11563   0.15285   0.15598   0.17139   0.20139
 Alpha virt. eigenvalues --    0.20269   0.25725   0.32805   0.34303   0.35325

 Mulliken charges:
               1
     1  C   -0.082791
     2  C    0.001687
     3  N   -0.213917
     4  H    0.101461
     5  H    0.092351
     6  H    0.101209
 Sum of Mulliken charges =   0.00000

 Dipole moment (field-independent basis, Debye):
    X=             -4.1433    Y=             -0.0435    Z=              0.0444  Tot=              4.1438
 Quadrupole moment (field-independent basis, Debye-Ang):
   XX=            -21.0097   YY=            -17.6290   ZZ=            -17.8541
   XY=             -0.0526   XZ=              0.1747   YZ=             -0.0682

 Normal termination of Gaussian 09 at Wed Aug 26 15:45:43 2020.
