 Gaussian 09, Revision D.01,
 Gaussian 09:  ES64L-G09RevD.01 24-Apr-2013

 --------------------
 #p B2PLYPD3/Def2QZVP
 --------------------

 ------------
 cyanomethane
 ------------
 Symbolic Z-matrix:
 Charge =  0 Multiplicity = 1

                         Standard orientation:
 ---------------------------------------------------------------------
 Center     Atomic      Atomic             Coordinates (Angstroms)
 Number     Number       Type             X           Y           Z
 ---------------------------------------------------------------------
      1          6           0       -1.183628   -0.010555    0.011063
      2          6           0        0.283550    0.038599   -0.010635
      3          7           0        1.426439   -0.018280    0.002505
      4          1           0       -1.500281   -0.203052    1.018082
      5          1           0       -1.535863   -0.850940   -0.677136
      6          1           0       -1.548457    1.013695   -0.361050
 ---------------------------------------------------------------------

 SCF Done:  E(RB2PLYPD3) =  -132.530830690     A.U. after   12 cycles
 E2(B2PLYPD3) =    -0.1800581136D+00 E(B2PLYPD3) =    -0.13271088880308D+03

 The electronic state is 1-A.
 Alpha  occ. eigenvalues --  -14.83804 -10.68177 -10.65867  -1.04436  -0.88440
 Alpha  occ. eigenvalues --   -0.58500  -0.53925  -0.52967  -0.44621  -0.39268
 Alpha  occ. eigenvalues --   -0.39115
 Alpha virt. eigenvalues --    0.03532   0.07599   0.08123   0.10156   0.11542
 Alpha virt. eigenvalues --    0.11645   0.15222   0.15801   0.16336   0.19999
 Alpha virt. eigenvalues --    0.20077   0.25227   0.32163   0.33570   0.34497

 Mulliken charges:
               1
     1  C   -0.109715
     2  C   -0.002822
     3  N   -0.200774
     4  H    0.108069
     5  H    0.103504
     6  H    0.101738
 Sum of Mulliken charges =   0.00000

 Dipole moment (field-independent basis, Debye):
    X=             -4.0734    Y=              0.0146    Z=              0.0150  Tot=              4.0734
 Quadrupole moment (field-independent basis, Debye-Ang):
   XX=            -21.3548   YY=            -17.6178   ZZ=            -17.7370
   XY=              0.1182   XZ=             -0.0233   YZ=             -0.0137

 Normal termination of Gaussian 09 at Wed Aug 26 14:55:46 2020.
