 Gaussian 09, Revision D.01,
 Gaussian 09:  ES64L-G09RevD.01 24-Apr-2013

 --------------------
 #p B2PLYPD3/Def2QZVP
 --------------------

 ------------
 cyanomethane
 ------------
 Symbolic Z-matrix:
 Charge =  0 Multiplicity = 1

                         Standard orientation:
 ---------------------------------------------------------------------
 Center     Atomic      Atomic             Coordinates (Angstroms)
 Number     Number       Type             X           Y           Z
 ---------------------------------------------------------------------
      1          6           0        1.182644    0.004651   -0.004244
      2          6           0       -0.279430   -0.019662   -0.013932
      3          7           0       -1.440313    0.006748    0.005568
      4          1           0        1.515299    1.052160   -0.047921
      5          1           0        1.603412   -0.568461   -0.788904
      6          1           0        1.544199   -0.440870    0.906908
 ---------------------------------------------------------------------

 SCF Done:  E(RB2PLYPD3) =  -132.534065476     A.U. after   11 cycles
 E2(B2PLYPD3) =    -0.1809413024D+00 E(B2PLYPD3) =    -0.13271500677849D+03

 The electronic state is 1-A.
 Alpha  occ. eigenvalues --  -14.84406 -10.66870 -10.66503  -1.03845  -0.89403
 Alpha  occ. eigenvalues --   -0.60034  -0.54388  -0.53699  -0.44821  -0.39014
 Alpha  occ. eigenvalues --   -0.38887
 Alpha virt. eigenvalues --    0.03767   0.07838   0.08011   0.10201   0.11247
 Alpha virt. eigenvalues --    0.11443   0.15325   0.16161   0.16578   0.20078
 Alpha virt. eigenvalues --    0.20153   0.25276   0.32667   0.34462   0.35024

 Mulliken charges:
               1
     1  C   -0.077886
     2  C    0.000345
     3  N   -0.209618
     4  H    0.098627
     5  H    0.095100
     6  H    0.093432
 Sum of Mulliken charges =   0.00000

 Dipole moment (field-independent basis, Debye):
    X=              4.1492    Y=             -0.0288    Z=              0.0061  Tot=              4.1493
 Quadrupole moment (field-independent basis, Debye-Ang):
   XX=            -20.9316   YY=            -17.6566   ZZ=            -17.9029
   XY=             -0.0692   XZ=              0.0274   YZ=              0.0160

 Normal termination of Gaussian 09 at Wed Aug 26 11:54:28 2020.
