 Gaussian 09, Revision D.01,
 Gaussian 09:  ES64L-G09RevD.01 24-Apr-2013

 --------------------
 #p B2PLYPD3/Def2QZVP
 --------------------

 ------------
 cyanomethane
 ------------
 Symbolic Z-matrix:
 Charge =  0 Multiplicity = 1

                         Standard orientation:
 ---------------------------------------------------------------------
 Center     Atomic      Atomic             Coordinates (Angstroms)
 Number     Number       Type             X           Y           Z
 ---------------------------------------------------------------------
      1          6           0       -1.167066    0.021239    0.020450
      2          6           0        0.288794   -0.045238   -0.044671
      3          7           0        1.422376    0.014747    0.018494
      4          1           0       -1.477109    1.057000   -0.124418
      5          1           0       -1.557896   -0.395588    0.897257
      6          1           0       -1.651993   -0.620646   -0.756975
 ---------------------------------------------------------------------

 SCF Done:  E(RB2PLYPD3) =  -132.532388099     A.U. after   12 cycles
 E2(B2PLYPD3) =    -0.1790862660D+00 E(B2PLYPD3) =    -0.13271147436541D+03

 The electronic state is 1-A.
 Alpha  occ. eigenvalues --  -14.83767 -10.66896 -10.65779  -1.04895  -0.89164
 Alpha  occ. eigenvalues --   -0.60198  -0.54795  -0.52441  -0.44805  -0.39694
 Alpha  occ. eigenvalues --   -0.39339
 Alpha virt. eigenvalues --    0.03739   0.07877   0.08344   0.10199   0.11525
 Alpha virt. eigenvalues --    0.11846   0.15372   0.16254   0.17130   0.19910
 Alpha virt. eigenvalues --    0.20037   0.25691   0.32676   0.34556   0.35197

 Mulliken charges:
               1
     1  C   -0.078187
     2  C   -0.000358
     3  N   -0.196768
     4  H    0.099789
     5  H    0.093751
     6  H    0.081773
 Sum of Mulliken charges =   0.00000

 Dipole moment (field-independent basis, Debye):
    X=             -4.0911    Y=             -0.0509    Z=             -0.0135  Tot=              4.0914
 Quadrupole moment (field-independent basis, Debye-Ang):
   XX=            -20.8309   YY=            -17.5311   ZZ=            -17.9419
   XY=              0.1053   XZ=             -0.0990   YZ=             -0.0921

 Normal termination of Gaussian 09 at Wed Aug 26 16:23:53 2020.
