 Gaussian 09, Revision D.01,
 Gaussian 09:  ES64L-G09RevD.01 24-Apr-2013

 --------------------
 #p B2PLYPD3/Def2QZVP
 --------------------

 ------------
 cyanomethane
 ------------
 Symbolic Z-matrix:
 Charge =  0 Multiplicity = 1

                         Standard orientation:
 ---------------------------------------------------------------------
 Center     Atomic      Atomic             Coordinates (Angstroms)
 Number     Number       Type             X           Y           Z
 ---------------------------------------------------------------------
      1          6           0        1.196889   -0.007019   -0.030496
      2          6           0       -0.285615    0.024575   -0.041873
      3          7           0       -1.441684   -0.014285    0.031067
      4          1           0        1.638060   -0.118110    0.967244
      5          1           0        1.477201    0.894343   -0.277061
      6          1           0        1.508882   -0.781573   -0.473437
 ---------------------------------------------------------------------

 SCF Done:  E(RB2PLYPD3) =  -132.502995049     A.U. after   12 cycles
 E2(B2PLYPD3) =    -0.1803015293D+00 E(B2PLYPD3) =    -0.13268329657840D+03

 The electronic state is 1-A.
 Alpha  occ. eigenvalues --  -14.84393 -10.66468 -10.64774  -1.03954  -0.91165
 Alpha  occ. eigenvalues --   -0.60811  -0.59096  -0.52091  -0.44811  -0.39533
 Alpha  occ. eigenvalues --   -0.38847
 Alpha virt. eigenvalues --    0.03745   0.07999   0.09498   0.10147   0.10657
 Alpha virt. eigenvalues --    0.11661   0.15379   0.16300   0.16908   0.19939
 Alpha virt. eigenvalues --    0.20255   0.24884   0.32565   0.34204   0.37137

 Mulliken charges:
               1
     1  C   -0.064299
     2  C    0.002805
     3  N   -0.208972
     4  H    0.070205
     5  H    0.098523
     6  H    0.101738
 Sum of Mulliken charges =   0.00000

 Dipole moment (field-independent basis, Debye):
    X=              4.1637    Y=              0.0219    Z=              0.0008  Tot=              4.1638
 Quadrupole moment (field-independent basis, Debye-Ang):
   XX=            -20.6517   YY=            -17.4312   ZZ=            -18.0278
   XY=             -0.1121   XZ=              0.3888   YZ=              0.0707

 Normal termination of Gaussian 09 at Wed Aug 26 18:34:42 2020.
