 Gaussian 09, Revision D.01,
 Gaussian 09:  ES64L-G09RevD.01 24-Apr-2013

 --------------------
 #p B2PLYPD3/Def2QZVP
 --------------------

 ------------
 cyanomethane
 ------------
 Symbolic Z-matrix:
 Charge =  0 Multiplicity = 1

                         Standard orientation:
 ---------------------------------------------------------------------
 Center     Atomic      Atomic             Coordinates (Angstroms)
 Number     Number       Type             X           Y           Z
 ---------------------------------------------------------------------
      1          6           0       -1.198107   -0.021319   -0.013366
      2          6           0        0.282023    0.040747    0.044713
      3          7           0        1.445420   -0.023285   -0.027284
      4          1           0       -1.468779   -0.048069    0.970537
      5          1           0       -1.628738   -0.828059   -0.526822
      6          1           0       -1.523917    0.922556   -0.440813
 ---------------------------------------------------------------------

 SCF Done:  E(RB2PLYPD3) =  -132.526270542     A.U. after   13 cycles
 E2(B2PLYPD3) =    -0.1814044352D+00 E(B2PLYPD3) =    -0.13270767497748D+03

 The electronic state is 1-A.
 Alpha  occ. eigenvalues --  -14.84602 -10.66718 -10.66260  -1.03591  -0.89840
 Alpha  occ. eigenvalues --   -0.59919  -0.55062  -0.54121  -0.44806  -0.38970
 Alpha  occ. eigenvalues --   -0.38837
 Alpha virt. eigenvalues --    0.03726   0.07518   0.08817   0.09988   0.11086
 Alpha virt. eigenvalues --    0.11300   0.15203   0.15373   0.17339   0.20157
 Alpha virt. eigenvalues --    0.20229   0.25206   0.32615   0.34723   0.35379

 Mulliken charges:
               1
     1  C   -0.079464
     2  C    0.002426
     3  N   -0.212510
     4  H    0.097816
     5  H    0.097731
     6  H    0.094001
 Sum of Mulliken charges =   0.00000

 Dipole moment (field-independent basis, Debye):
    X=             -4.1470    Y=              0.0351    Z=              0.0649  Tot=              4.1477
 Quadrupole moment (field-independent basis, Debye-Ang):
   XX=            -20.9234   YY=            -17.7113   ZZ=            -17.8239
   XY=              0.1769   XZ=              0.1627   YZ=              0.0090

 Normal termination of Gaussian 09 at Wed Aug 26 21:40:48 2020.
