 Gaussian 09, Revision D.01,
 Gaussian 09:  ES64L-G09RevD.01 24-Apr-2013

 --------------------
 #p B2PLYPD3/Def2QZVP
 --------------------

 ------------
 cyanomethane
 ------------
 Symbolic Z-matrix:
 Charge =  0 Multiplicity = 1

                         Standard orientation:
 ---------------------------------------------------------------------
 Center     Atomic      Atomic             Coordinates (Angstroms)
 Number     Number       Type             X           Y           Z
 ---------------------------------------------------------------------
      1          6           0       -1.164021    0.024521   -0.026099
      2          6           0        0.276106    0.042053   -0.026688
      3          7           0        1.445381   -0.036115    0.025080
      4          1           0       -1.436427    1.009061   -0.102687
      5          1           0       -1.750163   -0.430937    1.011710
      6          1           0       -1.603592   -0.724761   -0.767860
 ---------------------------------------------------------------------

 SCF Done:  E(RB2PLYPD3) =  -132.505204969     A.U. after   12 cycles
 E2(B2PLYPD3) =    -0.1835281542D+00 E(B2PLYPD3) =    -0.13268873312316D+03

 The electronic state is 1-A.
 Alpha  occ. eigenvalues --  -14.84982 -10.68563 -10.66974  -1.03625  -0.88828
 Alpha  occ. eigenvalues --   -0.59860  -0.56050  -0.49239  -0.45110  -0.38922
 Alpha  occ. eigenvalues --   -0.37890
 Alpha virt. eigenvalues --    0.02513   0.05348   0.08083   0.09955   0.10844
 Alpha virt. eigenvalues --    0.12118   0.15230   0.16371   0.16992   0.19887
 Alpha virt. eigenvalues --    0.20449   0.25668   0.30299   0.32739   0.35205

 Mulliken charges:
               1
     1  C   -0.090526
     2  C    0.006232
     3  N   -0.210061
     4  H    0.112095
     5  H    0.080488
     6  H    0.101773
 Sum of Mulliken charges =   0.00000

 Dipole moment (field-independent basis, Debye):
    X=             -4.1064    Y=              0.0386    Z=             -0.0676  Tot=              4.1071
 Quadrupole moment (field-independent basis, Debye-Ang):
   XX=            -20.9128   YY=            -17.6501   ZZ=            -18.2904
   XY=              0.4288   XZ=             -0.2202   YZ=              0.1021

 Normal termination of Gaussian 09 at Wed Aug 26 21:08:49 2020.
