 Gaussian 09, Revision D.01,
 Gaussian 09:  ES64L-G09RevD.01 24-Apr-2013

 --------------------
 #p B2PLYPD3/Def2QZVP
 --------------------

 ------------
 cyanomethane
 ------------
 Symbolic Z-matrix:
 Charge =  0 Multiplicity = 1

                         Standard orientation:
 ---------------------------------------------------------------------
 Center     Atomic      Atomic             Coordinates (Angstroms)
 Number     Number       Type             X           Y           Z
 ---------------------------------------------------------------------
      1          6           0       -1.177367    0.000389    0.005741
      2          6           0        0.277936    0.013152   -0.002264
      3          7           0        1.428950   -0.002025    0.000833
      4          1           0       -1.526364   -0.221926    0.976767
      5          1           0       -1.484395   -0.817228   -0.666394
      6          1           0       -1.595304    0.972081   -0.337059
 ---------------------------------------------------------------------

 SCF Done:  E(RB2PLYPD3) =  -132.534500968     A.U. after   12 cycles
 E2(B2PLYPD3) =    -0.1801626282D+00 E(B2PLYPD3) =    -0.13271466359615D+03

 The electronic state is 1-A.
 Alpha  occ. eigenvalues --  -14.84019 -10.67112 -10.66073  -1.04218  -0.89324
 Alpha  occ. eigenvalues --   -0.59489  -0.54266  -0.53826  -0.44710  -0.39155
 Alpha  occ. eigenvalues --   -0.39021
 Alpha virt. eigenvalues --    0.03757   0.07825   0.08234   0.10191   0.11442
 Alpha virt. eigenvalues --    0.11590   0.15378   0.15948   0.16542   0.20061
 Alpha virt. eigenvalues --    0.20118   0.25368   0.32679   0.34243   0.34904

 Mulliken charges:
               1
     1  C   -0.090062
     2  C   -0.002474
     3  N   -0.205178
     4  H    0.100195
     5  H    0.098819
     6  H    0.098700
 Sum of Mulliken charges =   0.00000

 Dipole moment (field-independent basis, Debye):
    X=             -4.1152    Y=             -0.0173    Z=              0.0135  Tot=              4.1153
 Quadrupole moment (field-independent basis, Debye-Ang):
   XX=            -21.1005   YY=            -17.6328   ZZ=            -17.7806
   XY=             -0.0271   XZ=             -0.0444   YZ=             -0.0137

 Normal termination of Gaussian 09 at Wed Aug 26 09:46:10 2020.
