 Gaussian 09, Revision D.01,
 Gaussian 09:  ES64L-G09RevD.01 24-Apr-2013

 --------------------
 #p B2PLYPD3/Def2QZVP
 --------------------

 ------------
 cyanomethane
 ------------
 Symbolic Z-matrix:
 Charge =  0 Multiplicity = 1

                         Standard orientation:
 ---------------------------------------------------------------------
 Center     Atomic      Atomic             Coordinates (Angstroms)
 Number     Number       Type             X           Y           Z
 ---------------------------------------------------------------------
      1          6           0       -1.169339    0.009930    0.021139
      2          6           0        0.277826    0.008196    0.020920
      3          7           0        1.425503   -0.011803   -0.016915
      4          1           0       -1.640618   -0.812423   -0.691710
      5          1           0       -1.480493    0.965762   -0.406502
      6          1           0       -1.508333   -0.179476    0.964264
 ---------------------------------------------------------------------

 SCF Done:  E(RB2PLYPD3) =  -132.526250896     A.U. after   12 cycles
 E2(B2PLYPD3) =    -0.1801919582D+00 E(B2PLYPD3) =    -0.13270644285433D+03

 The electronic state is 1-A.
 Alpha  occ. eigenvalues --  -14.84000 -10.67249 -10.66001  -1.04391  -0.89399
 Alpha  occ. eigenvalues --   -0.59709  -0.55871  -0.51772  -0.44767  -0.39367
 Alpha  occ. eigenvalues --   -0.38816
 Alpha virt. eigenvalues --    0.03498   0.07085   0.08697   0.10176   0.11272
 Alpha virt. eigenvalues --    0.11925   0.15439   0.16038   0.16673   0.19985
 Alpha virt. eigenvalues --    0.20159   0.25511   0.32080   0.33635   0.35422

 Mulliken charges:
               1
     1  C   -0.090492
     2  C   -0.001634
     3  N   -0.203098
     4  H    0.087501
     5  H    0.101761
     6  H    0.105962
 Sum of Mulliken charges =   0.00000

 Dipole moment (field-independent basis, Debye):
    X=             -4.0954    Y=              0.0326    Z=              0.0307  Tot=              4.0956
 Quadrupole moment (field-independent basis, Debye-Ang):
   XX=            -21.0651   YY=            -17.7694   ZZ=            -17.6823
   XY=              0.1553   XZ=              0.1508   YZ=             -0.1305

 Normal termination of Gaussian 09 at Wed Aug 26 13:51:05 2020.
