 Gaussian 09, Revision D.01,
 Gaussian 09:  ES64L-G09RevD.01 24-Apr-2013

 --------------------
 #p B2PLYPD3/Def2QZVP
 --------------------

 ------------
 cyanomethane
 ------------
 Symbolic Z-matrix:
 Charge =  0 Multiplicity = 1

                         Standard orientation:
 ---------------------------------------------------------------------
 Center     Atomic      Atomic             Coordinates (Angstroms)
 Number     Number       Type             X           Y           Z
 ---------------------------------------------------------------------
      1          6           0        1.184713    0.003180   -0.014042
      2          6           0       -0.275633   -0.002739   -0.034731
      3          7           0       -1.439957    0.002016    0.026791
      4          1           0        1.451224   -0.527262   -0.860669
      5          1           0        1.619600   -0.539117    0.924111
      6          1           0        1.554391    1.049620    0.041658
 ---------------------------------------------------------------------

 SCF Done:  E(RB2PLYPD3) =  -132.526061369     A.U. after   12 cycles
 E2(B2PLYPD3) =    -0.1818043599D+00 E(B2PLYPD3) =    -0.13270786572903D+03

 The electronic state is 1-A.
 Alpha  occ. eigenvalues --  -14.84498 -10.67638 -10.66568  -1.03651  -0.89122
 Alpha  occ. eigenvalues --   -0.59105  -0.55683  -0.51997  -0.44783  -0.38905
 Alpha  occ. eigenvalues --   -0.38535
 Alpha virt. eigenvalues --    0.03454   0.06815   0.08456   0.10124   0.11005
 Alpha virt. eigenvalues --    0.11613   0.15240   0.15710   0.16600   0.20050
 Alpha virt. eigenvalues --    0.20228   0.25294   0.32153   0.33412   0.35138

 Mulliken charges:
               1
     1  C   -0.095123
     2  C    0.000323
     3  N   -0.211211
     4  H    0.109129
     5  H    0.093292
     6  H    0.103590
 Sum of Mulliken charges =   0.00000

 Dipole moment (field-independent basis, Debye):
    X=              4.1231    Y=             -0.0050    Z=             -0.0394  Tot=              4.1233
 Quadrupole moment (field-independent basis, Debye-Ang):
   XX=            -21.1646   YY=            -17.7254   ZZ=            -17.8296
   XY=              0.0160   XZ=              0.2720   YZ=              0.1220

 Normal termination of Gaussian 09 at Wed Aug 26 13:13:37 2020.
