 Gaussian 09, Revision D.01,
 Gaussian 09:  ES64L-G09RevD.01 24-Apr-2013

 --------------------
 #p B2PLYPD3/Def2QZVP
 --------------------

 ------------
 cyanomethane
 ------------
 Symbolic Z-matrix:
 Charge =  0 Multiplicity = 1

                         Standard orientation:
 ---------------------------------------------------------------------
 Center     Atomic      Atomic             Coordinates (Angstroms)
 Number     Number       Type             X           Y           Z
 ---------------------------------------------------------------------
      1          6           0       -1.177367    0.007855   -0.007145
      2          6           0        0.266232   -0.007042    0.037976
      3          7           0        1.436574    0.007830   -0.022940
      4          1           0       -1.456737   -0.344385    0.932553
      5          1           0       -1.527122   -0.724177   -0.744239
      6          1           0       -1.605347    1.008869   -0.212719
 ---------------------------------------------------------------------

 SCF Done:  E(RB2PLYPD3) =  -132.529644778     A.U. after   12 cycles
 E2(B2PLYPD3) =    -0.1820135608D+00 E(B2PLYPD3) =    -0.13271165833848D+03

 The electronic state is 1-A.
 Alpha  occ. eigenvalues --  -14.84604 -10.66828 -10.66643  -1.03442  -0.89854
 Alpha  occ. eigenvalues --   -0.59713  -0.54873  -0.53908  -0.44801  -0.38626
 Alpha  occ. eigenvalues --   -0.38470
 Alpha virt. eigenvalues --    0.03670   0.07166   0.08268   0.10058   0.11205
 Alpha virt. eigenvalues --    0.11408   0.15271   0.15473   0.16992   0.20164
 Alpha virt. eigenvalues --    0.20247   0.25660   0.32708   0.34399   0.34804

 Mulliken charges:
               1
     1  C   -0.087428
     2  C    0.002086
     3  N   -0.215524
     4  H    0.101029
     5  H    0.098288
     6  H    0.101549
 Sum of Mulliken charges =   0.00000

 Dipole moment (field-independent basis, Debye):
    X=             -4.1425    Y=             -0.0395    Z=              0.0521  Tot=              4.1430
 Quadrupole moment (field-independent basis, Debye-Ang):
   XX=            -21.0919   YY=            -17.6471   ZZ=            -17.8652
   XY=             -0.0555   XZ=              0.1358   YZ=             -0.0262

 Normal termination of Gaussian 09 at Wed Aug 26 15:47:32 2020.
