 Gaussian 09, Revision D.01,
 Gaussian 09:  ES64L-G09RevD.01 24-Apr-2013

 --------------------
 #p B2PLYPD3/Def2QZVP
 --------------------

 ------------
 cyanomethane
 ------------
 Symbolic Z-matrix:
 Charge =  0 Multiplicity = 1

                         Standard orientation:
 ---------------------------------------------------------------------
 Center     Atomic      Atomic             Coordinates (Angstroms)
 Number     Number       Type             X           Y           Z
 ---------------------------------------------------------------------
      1          6           0        1.146047   -0.026359    0.016652
      2          6           0       -0.284312    0.034241   -0.045382
      3          7           0       -1.419722   -0.020923    0.027826
      4          1           0        1.678193   -0.112278    1.005826
      5          1           0        1.486733    1.023857   -0.384682
      6          1           0        1.602714   -0.812403   -0.643553
 ---------------------------------------------------------------------

 SCF Done:  E(RB2PLYPD3) =  -132.523928284     A.U. after   12 cycles
 E2(B2PLYPD3) =    -0.1803241566D+00 E(B2PLYPD3) =    -0.13270425244095D+03

 The electronic state is 1-A.
 Alpha  occ. eigenvalues --  -14.83952 -10.68291 -10.65947  -1.04964  -0.88420
 Alpha  occ. eigenvalues --   -0.60573  -0.52930  -0.51593  -0.44989  -0.39429
 Alpha  occ. eigenvalues --   -0.38893
 Alpha virt. eigenvalues --    0.03442   0.06730   0.07449   0.09927   0.11820
 Alpha virt. eigenvalues --    0.12108   0.15412   0.15836   0.18101   0.19940
 Alpha virt. eigenvalues --    0.20413   0.26146   0.32120   0.33405   0.34609

 Mulliken charges:
               1
     1  C   -0.095142
     2  C    0.009177
     3  N   -0.195942
     4  H    0.097445
     5  H    0.086794
     6  H    0.097668
 Sum of Mulliken charges =   0.00000

 Dipole moment (field-independent basis, Debye):
    X=              4.0631    Y=              0.0424    Z=             -0.0362  Tot=              4.0635
 Quadrupole moment (field-independent basis, Debye-Ang):
   XX=            -20.8357   YY=            -17.7837   ZZ=            -17.9147
   XY=             -0.1936   XZ=              0.2732   YZ=              0.0686

 Normal termination of Gaussian 09 at Wed Aug 26 18:49:36 2020.
