 Gaussian 09, Revision D.01,
 Gaussian 09:  ES64L-G09RevD.01 24-Apr-2013

 --------------------
 #p B2PLYPD3/Def2QZVP
 --------------------

 ------------
 cyanomethane
 ------------
 Symbolic Z-matrix:
 Charge =  0 Multiplicity = 1

                         Standard orientation:
 ---------------------------------------------------------------------
 Center     Atomic      Atomic             Coordinates (Angstroms)
 Number     Number       Type             X           Y           Z
 ---------------------------------------------------------------------
      1          6           0        1.199292    0.005703   -0.012834
      2          6           0       -0.276224    0.003128   -0.032822
      3          7           0       -1.440164    0.013444    0.014776
      4          1           0        1.427539   -0.714596   -0.755512
      5          1           0        1.396397   -0.447811    1.011823
      6          1           0        1.718799    1.015312   -0.085802
 ---------------------------------------------------------------------

 SCF Done:  E(RB2PLYPD3) =  -132.524390983     A.U. after   13 cycles
 E2(B2PLYPD3) =    -0.1819432351D+00 E(B2PLYPD3) =    -0.13270633421838D+03

 The electronic state is 1-A.
 Alpha  occ. eigenvalues --  -14.84301 -10.68114 -10.66541  -1.03569  -0.88864
 Alpha  occ. eigenvalues --   -0.58387  -0.55003  -0.52621  -0.44586  -0.38860
 Alpha  occ. eigenvalues --   -0.38428
 Alpha virt. eigenvalues --    0.03491   0.07065   0.08504   0.10164   0.11048
 Alpha virt. eigenvalues --    0.11642   0.14793   0.15011   0.17048   0.20107
 Alpha virt. eigenvalues --    0.20267   0.24964   0.31937   0.32965   0.35165

 Mulliken charges:
               1
     1  C   -0.112052
     2  C    0.001316
     3  N   -0.213088
     4  H    0.111495
     5  H    0.103616
     6  H    0.108714
 Sum of Mulliken charges =   0.00000

 Dipole moment (field-independent basis, Debye):
    X=              4.1366    Y=             -0.0454    Z=              0.0062  Tot=              4.1369
 Quadrupole moment (field-independent basis, Debye-Ang):
   XX=            -21.3572   YY=            -17.6383   ZZ=            -17.8704
   XY=              0.2875   XZ=              0.0786   YZ=              0.0768

 Normal termination of Gaussian 09 at Wed Aug 26 19:19:09 2020.
