 Gaussian 09, Revision D.01,
 Gaussian 09:  ES64L-G09RevD.01 24-Apr-2013

 --------------------
 #p B2PLYPD3/Def2QZVP
 --------------------

 ------------
 cyanomethane
 ------------
 Symbolic Z-matrix:
 Charge =  0 Multiplicity = 1

                         Standard orientation:
 ---------------------------------------------------------------------
 Center     Atomic      Atomic             Coordinates (Angstroms)
 Number     Number       Type             X           Y           Z
 ---------------------------------------------------------------------
      1          6           0       -1.182753   -0.026145   -0.020786
      2          6           0        0.286208    0.071879    0.016773
      3          7           0        1.412496   -0.024126   -0.001651
      4          1           0       -1.547519   -0.218530    0.961406
      5          1           0       -1.337335   -0.787188   -0.612011
      6          1           0       -1.623347    0.900201   -0.313758
 ---------------------------------------------------------------------

 SCF Done:  E(RB2PLYPD3) =  -132.524020624     A.U. after   11 cycles
 E2(B2PLYPD3) =    -0.1779431954D+00 E(B2PLYPD3) =    -0.13270196381986D+03

 The electronic state is 1-A.
 Alpha  occ. eigenvalues --  -14.83351 -10.65537 -10.65351  -1.05017  -0.90388
 Alpha  occ. eigenvalues --   -0.59052  -0.57190  -0.53725  -0.44532  -0.39874
 Alpha  occ. eigenvalues --   -0.39600
 Alpha virt. eigenvalues --    0.03975   0.08743   0.09205   0.10353   0.11506
 Alpha virt. eigenvalues --    0.11682   0.15307   0.16250   0.16328   0.19891
 Alpha virt. eigenvalues --    0.20062   0.25480   0.32953   0.34687   0.36451

 Mulliken charges:
               1
     1  C   -0.084963
     2  C   -0.009834
     3  N   -0.195773
     4  H    0.088780
     5  H    0.109739
     6  H    0.092051
 Sum of Mulliken charges =   0.00000

 Dipole moment (field-independent basis, Debye):
    X=             -4.0819    Y=              0.0332    Z=              0.0262  Tot=              4.0821
 Quadrupole moment (field-independent basis, Debye-Ang):
   XX=            -20.9789   YY=            -17.4781   ZZ=            -17.6637
   XY=             -0.0444   XZ=             -0.1429   YZ=              0.0903

 Normal termination of Gaussian 09 at Wed Aug 26 16:32:34 2020.
