 Gaussian 09, Revision D.01,
 Gaussian 09:  ES64L-G09RevD.01 24-Apr-2013

 --------------------
 #p B2PLYPD3/Def2QZVP
 --------------------

 ------------
 cyanomethane
 ------------
 Symbolic Z-matrix:
 Charge =  0 Multiplicity = 1

                         Standard orientation:
 ---------------------------------------------------------------------
 Center     Atomic      Atomic             Coordinates (Angstroms)
 Number     Number       Type             X           Y           Z
 ---------------------------------------------------------------------
      1          6           0       -1.177700   -0.008543    0.010478
      2          6           0        0.273882   -0.004783    0.008333
      3          7           0        1.429464    0.004189   -0.009136
      4          1           0       -1.476784   -0.383090    0.917296
      5          1           0       -1.561492   -0.606545   -0.824363
      6          1           0       -1.545063    1.040270   -0.141850
 ---------------------------------------------------------------------

 SCF Done:  E(RB2PLYPD3) =  -132.531967323     A.U. after   11 cycles
 E2(B2PLYPD3) =    -0.1804638790D+00 E(B2PLYPD3) =    -0.13271243120239D+03

 The electronic state is 1-A.
 Alpha  occ. eigenvalues --  -14.84128 -10.66824 -10.66159  -1.04036  -0.89675
 Alpha  occ. eigenvalues --   -0.59490  -0.55579  -0.53220  -0.44711  -0.39100
 Alpha  occ. eigenvalues --   -0.38834
 Alpha virt. eigenvalues --    0.03757   0.07586   0.08537   0.10179   0.11252
 Alpha virt. eigenvalues --    0.11618   0.15414   0.16005   0.16327   0.20071
 Alpha virt. eigenvalues --    0.20160   0.25414   0.32690   0.34000   0.35299

 Mulliken charges:
               1
     1  C   -0.088036
     2  C   -0.002615
     3  N   -0.207919
     4  H    0.104943
     5  H    0.097581
     6  H    0.096047
 Sum of Mulliken charges =   0.00000

 Dipole moment (field-independent basis, Debye):
    X=             -4.1199    Y=             -0.0094    Z=              0.0123  Tot=              4.1199
 Quadrupole moment (field-independent basis, Debye-Ang):
   XX=            -21.1133   YY=            -17.7298   ZZ=            -17.6674
   XY=             -0.0309   XZ=              0.1184   YZ=             -0.0433

 Normal termination of Gaussian 09 at Wed Aug 26 10:25:01 2020.
