 Gaussian 09, Revision D.01,
 Gaussian 09:  ES64L-G09RevD.01 24-Apr-2013

 --------------------
 #p B2PLYPD3/Def2QZVP
 --------------------

 ------------
 cyanomethane
 ------------
 Symbolic Z-matrix:
 Charge =  0 Multiplicity = 1

                         Standard orientation:
 ---------------------------------------------------------------------
 Center     Atomic      Atomic             Coordinates (Angstroms)
 Number     Number       Type             X           Y           Z
 ---------------------------------------------------------------------
      1          6           0       -1.176029    0.003428    0.003859
      2          6           0        0.277566    0.001162   -0.016077
      3          7           0        1.429983    0.000824    0.009958
      4          1           0       -1.564367   -0.080328    1.017786
      5          1           0       -1.505617   -0.892182   -0.564739
      6          1           0       -1.549121    0.939203   -0.449442
 ---------------------------------------------------------------------

 SCF Done:  E(RB2PLYPD3) =  -132.534697373     A.U. after   11 cycles
 E2(B2PLYPD3) =    -0.1804628104D+00 E(B2PLYPD3) =    -0.13271516018382D+03

 The electronic state is 1-A.
 Alpha  occ. eigenvalues --  -14.84082 -10.67459 -10.66131  -1.04164  -0.89059
 Alpha  occ. eigenvalues --   -0.59415  -0.54060  -0.53488  -0.44733  -0.39064
 Alpha  occ. eigenvalues --   -0.38972
 Alpha virt. eigenvalues --    0.03702   0.07739   0.07928   0.10158   0.11463
 Alpha virt. eigenvalues --    0.11599   0.15370   0.15971   0.16497   0.20059
 Alpha virt. eigenvalues --    0.20123   0.25410   0.32672   0.34182   0.34570

 Mulliken charges:
               1
     1  C   -0.093172
     2  C   -0.001469
     3  N   -0.205473
     4  H    0.099220
     5  H    0.099847
     6  H    0.101046
 Sum of Mulliken charges =   0.00000

 Dipole moment (field-independent basis, Debye):
    X=             -4.1107    Y=             -0.0083    Z=             -0.0001  Tot=              4.1107
 Quadrupole moment (field-independent basis, Debye-Ang):
   XX=            -21.1358   YY=            -17.6390   ZZ=            -17.8103
   XY=             -0.0192   XZ=             -0.1248   YZ=             -0.0097

 Normal termination of Gaussian 09 at Wed Aug 26 10:20:23 2020.
