 Gaussian 09, Revision D.01,
 Gaussian 09:  ES64L-G09RevD.01 24-Apr-2013

 --------------------
 #p B2PLYPD3/Def2QZVP
 --------------------

 ------------
 cyanomethane
 ------------
 Symbolic Z-matrix:
 Charge =  0 Multiplicity = 1

                         Standard orientation:
 ---------------------------------------------------------------------
 Center     Atomic      Atomic             Coordinates (Angstroms)
 Number     Number       Type             X           Y           Z
 ---------------------------------------------------------------------
      1          6           0        1.187657    0.011615   -0.012410
      2          6           0       -0.288026   -0.071310    0.020648
      3          7           0       -1.416235    0.036317   -0.007232
      4          1           0        1.541497    0.039786    0.932452
      5          1           0        1.485640    0.919912   -0.463195
      6          1           0        1.488719   -0.855742   -0.468060
 ---------------------------------------------------------------------

 SCF Done:  E(RB2PLYPD3) =  -132.526247858     A.U. after   12 cycles
 E2(B2PLYPD3) =    -0.1781707656D+00 E(B2PLYPD3) =    -0.13270441862340D+03

 The electronic state is 1-A.
 Alpha  occ. eigenvalues --  -14.83484 -10.65466 -10.65384  -1.04867  -0.90347
 Alpha  occ. eigenvalues --   -0.59392  -0.56226  -0.54449  -0.44571  -0.39772
 Alpha  occ. eigenvalues --   -0.39627
 Alpha virt. eigenvalues --    0.03871   0.08756   0.09551   0.10217   0.11259
 Alpha virt. eigenvalues --    0.11612   0.15254   0.15883   0.16809   0.19887
 Alpha virt. eigenvalues --    0.20090   0.25393   0.33375   0.35050   0.35829

 Mulliken charges:
               1
     1  C   -0.076954
     2  C   -0.008483
     3  N   -0.197075
     4  H    0.088560
     5  H    0.096801
     6  H    0.097152
 Sum of Mulliken charges =   0.00000

 Dipole moment (field-independent basis, Debye):
    X=              4.0848    Y=             -0.0508    Z=              0.0555  Tot=              4.0855
 Quadrupole moment (field-independent basis, Debye-Ang):
   XX=            -20.9781   YY=            -17.3548   ZZ=            -17.7766
   XY=              0.2192   XZ=              0.1057   YZ=              0.0404

 Normal termination of Gaussian 09 at Wed Aug 26 22:36:39 2020.
