 Gaussian 09, Revision D.01,
 Gaussian 09:  ES64L-G09RevD.01 24-Apr-2013

 --------------------
 #p B2PLYPD3/Def2QZVP
 --------------------

 ------------
 cyanomethane
 ------------
 Symbolic Z-matrix:
 Charge =  0 Multiplicity = 1

                         Standard orientation:
 ---------------------------------------------------------------------
 Center     Atomic      Atomic             Coordinates (Angstroms)
 Number     Number       Type             X           Y           Z
 ---------------------------------------------------------------------
      1          6           0       -1.167505   -0.039626    0.000793
      2          6           0        0.297660    0.063095   -0.014525
      3          7           0        1.433673   -0.028485    0.009024
      4          1           0       -1.624791    0.057651    0.993669
      5          1           0       -1.590630   -0.871904   -0.458941
      6          1           0       -1.601217    0.872838   -0.515504
 ---------------------------------------------------------------------

 SCF Done:  E(RB2PLYPD3) =  -132.529198724     A.U. after   12 cycles
 E2(B2PLYPD3) =    -0.1796264959D+00 E(B2PLYPD3) =    -0.13270882521961D+03

 The electronic state is 1-A.
 Alpha  occ. eigenvalues --  -14.84084 -10.67142 -10.66168  -1.04894  -0.88771
 Alpha  occ. eigenvalues --   -0.60879  -0.54200  -0.51716  -0.45018  -0.39827
 Alpha  occ. eigenvalues --   -0.39292
 Alpha virt. eigenvalues --    0.03678   0.07713   0.07893   0.10025   0.11494
 Alpha virt. eigenvalues --    0.11822   0.15563   0.16032   0.18050   0.19924
 Alpha virt. eigenvalues --    0.20186   0.25623   0.32560   0.33888   0.35620

 Mulliken charges:
               1
     1  C   -0.068126
     2  C    0.005564
     3  N   -0.196524
     4  H    0.085377
     5  H    0.096084
     6  H    0.077625
 Sum of Mulliken charges =   0.00000

 Dipole moment (field-independent basis, Debye):
    X=             -4.1005    Y=              0.0588    Z=             -0.0059  Tot=              4.1009
 Quadrupole moment (field-independent basis, Debye-Ang):
   XX=            -20.5882   YY=            -17.7858   ZZ=            -17.9300
   XY=              0.1119   XZ=             -0.0998   YZ=              0.1080

 Normal termination of Gaussian 09 at Wed Aug 26 18:36:35 2020.
