 Gaussian 09, Revision D.01,
 Gaussian 09:  ES64L-G09RevD.01 24-Apr-2013

 --------------------
 #p B2PLYPD3/Def2QZVP
 --------------------

 ------------
 cyanomethane
 ------------
 Symbolic Z-matrix:
 Charge =  0 Multiplicity = 1

                         Standard orientation:
 ---------------------------------------------------------------------
 Center     Atomic      Atomic             Coordinates (Angstroms)
 Number     Number       Type             X           Y           Z
 ---------------------------------------------------------------------
      1          6           0        1.179711   -0.004937   -0.009174
      2          6           0       -0.279710    0.012630   -0.004662
      3          7           0       -1.437093   -0.007195    0.001783
      4          1           0        1.543883    1.001504   -0.205687
      5          1           0        1.579817   -0.698641   -0.721680
      6          1           0        1.535945   -0.298655    0.997901
 ---------------------------------------------------------------------

 SCF Done:  E(RB2PLYPD3) =  -132.534901486     A.U. after   12 cycles
 E2(B2PLYPD3) =    -0.1807359415D+00 E(B2PLYPD3) =    -0.13271563742710D+03

 The electronic state is 1-A.
 Alpha  occ. eigenvalues --  -14.84288 -10.67159 -10.66370  -1.03994  -0.89193
 Alpha  occ. eigenvalues --   -0.59789  -0.54366  -0.53389  -0.44804  -0.39090
 Alpha  occ. eigenvalues --   -0.38904
 Alpha virt. eigenvalues --    0.03746   0.07762   0.07970   0.10168   0.11316
 Alpha virt. eigenvalues --    0.11528   0.15385   0.16034   0.16662   0.20075
 Alpha virt. eigenvalues --    0.20134   0.25309   0.32664   0.34176   0.35050

 Mulliken charges:
               1
     1  C   -0.083359
     2  C   -0.000541
     3  N   -0.207511
     4  H    0.097280
     5  H    0.099367
     6  H    0.094764
 Sum of Mulliken charges =   0.00000

 Dipole moment (field-independent basis, Debye):
    X=              4.1348    Y=              0.0105    Z=              0.0063  Tot=              4.1348
 Quadrupole moment (field-independent basis, Debye-Ang):
   XX=            -20.9929   YY=            -17.7333   ZZ=            -17.8020
   XY=             -0.0575   XZ=              0.0062   YZ=              0.0309

 Normal termination of Gaussian 09 at Wed Aug 26 10:14:19 2020.
