 Gaussian 09, Revision D.01,
 Gaussian 09:  ES64L-G09RevD.01 24-Apr-2013

 --------------------
 #p B2PLYPD3/Def2QZVP
 --------------------

 ------------
 cyanomethane
 ------------
 Symbolic Z-matrix:
 Charge =  0 Multiplicity = 1

                         Standard orientation:
 ---------------------------------------------------------------------
 Center     Atomic      Atomic             Coordinates (Angstroms)
 Number     Number       Type             X           Y           Z
 ---------------------------------------------------------------------
      1          6           0        1.163139   -0.001815   -0.023900
      2          6           0       -0.270079    0.027463   -0.053215
      3          7           0       -1.420242   -0.019598    0.039285
      4          1           0        1.670859   -0.111536    0.963170
      5          1           0        1.406011    0.937467   -0.298924
      6          1           0        1.506466   -0.842631   -0.476551
 ---------------------------------------------------------------------

 SCF Done:  E(RB2PLYPD3) =  -132.515191538     A.U. after   12 cycles
 E2(B2PLYPD3) =    -0.1805412238D+00 E(B2PLYPD3) =    -0.13269573276207D+03

 The electronic state is 1-A.
 Alpha  occ. eigenvalues --  -14.84176 -10.66101 -10.65498  -1.04225  -0.90878
 Alpha  occ. eigenvalues --   -0.61170  -0.58225  -0.51328  -0.44824  -0.39327
 Alpha  occ. eigenvalues --   -0.38484
 Alpha virt. eigenvalues --    0.03635   0.07181   0.09165   0.09996   0.10970
 Alpha virt. eigenvalues --    0.12023   0.15429   0.16249   0.17158   0.19921
 Alpha virt. eigenvalues --    0.20326   0.25909   0.32959   0.33868   0.36692

 Mulliken charges:
               1
     1  C   -0.067299
     2  C    0.003633
     3  N   -0.207807
     4  H    0.073450
     5  H    0.100190
     6  H    0.097833
 Sum of Mulliken charges =   0.00000

 Dipole moment (field-independent basis, Debye):
    X=              4.1152    Y=              0.0177    Z=             -0.0059  Tot=              4.1152
 Quadrupole moment (field-independent basis, Debye-Ang):
   XX=            -20.8054   YY=            -17.3081   ZZ=            -18.1395
   XY=             -0.2306   XZ=              0.4952   YZ=              0.0376

 Normal termination of Gaussian 09 at Wed Aug 26 21:30:51 2020.
