 Gaussian 09, Revision D.01,
 Gaussian 09:  ES64L-G09RevD.01 24-Apr-2013

 --------------------
 #p B2PLYPD3/Def2QZVP
 --------------------

 ------------
 cyanomethane
 ------------
 Symbolic Z-matrix:
 Charge =  0 Multiplicity = 1

                         Standard orientation:
 ---------------------------------------------------------------------
 Center     Atomic      Atomic             Coordinates (Angstroms)
 Number     Number       Type             X           Y           Z
 ---------------------------------------------------------------------
      1          6           0       -1.173419    0.007196    0.012284
      2          6           0        0.277433   -0.025767   -0.025231
      3          7           0        1.446321    0.010401    0.010724
      4          1           0       -1.613290   -0.537098   -0.860439
      5          1           0       -1.551402    1.038681   -0.045145
      6          1           0       -1.583644   -0.462963    0.908195
 ---------------------------------------------------------------------

 SCF Done:  E(RB2PLYPD3) =  -132.532444990     A.U. after   11 cycles
 E2(B2PLYPD3) =    -0.1821087941D+00 E(B2PLYPD3) =    -0.13271455378408D+03

 The electronic state is 1-A.
 Alpha  occ. eigenvalues --  -14.84779 -10.67523 -10.66862  -1.03608  -0.88950
 Alpha  occ. eigenvalues --   -0.60383  -0.53695  -0.52910  -0.44997  -0.38781
 Alpha  occ. eigenvalues --   -0.38649
 Alpha virt. eigenvalues --    0.03643   0.07210   0.07291   0.10104   0.11354
 Alpha virt. eigenvalues --    0.11427   0.15427   0.16242   0.16792   0.20120
 Alpha virt. eigenvalues --    0.20161   0.25545   0.32428   0.34229   0.34712

 Mulliken charges:
               1
     1  C   -0.076593
     2  C    0.004523
     3  N   -0.211658
     4  H    0.090549
     5  H    0.096546
     6  H    0.096634
 Sum of Mulliken charges =   0.00000

 Dipole moment (field-independent basis, Debye):
    X=             -4.1512    Y=             -0.0107    Z=             -0.0137  Tot=              4.1512
 Quadrupole moment (field-independent basis, Debye-Ang):
   XX=            -20.8461   YY=            -17.8636   ZZ=            -17.9004
   XY=             -0.0202   XZ=             -0.0342   YZ=             -0.0364

 Normal termination of Gaussian 09 at Wed Aug 26 12:24:03 2020.
