 Gaussian 09, Revision D.01,
 Gaussian 09:  ES64L-G09RevD.01 24-Apr-2013

 --------------------
 #p B2PLYPD3/Def2QZVP
 --------------------

 ------------
 cyanomethane
 ------------
 Symbolic Z-matrix:
 Charge =  0 Multiplicity = 1

                         Standard orientation:
 ---------------------------------------------------------------------
 Center     Atomic      Atomic             Coordinates (Angstroms)
 Number     Number       Type             X           Y           Z
 ---------------------------------------------------------------------
      1          6           0       -1.176206    0.007651    0.003263
      2          6           0        0.274820   -0.000252    0.017770
      3          7           0        1.429675    0.001141   -0.011657
      4          1           0       -1.499053   -0.434248    0.938560
      5          1           0       -1.540660   -0.649564   -0.845690
      6          1           0       -1.559702    1.031432   -0.137471
 ---------------------------------------------------------------------

 SCF Done:  E(RB2PLYPD3) =  -132.533481438     A.U. after   12 cycles
 E2(B2PLYPD3) =    -0.1807478939D+00 E(B2PLYPD3) =    -0.13271422933199D+03

 The electronic state is 1-A.
 Alpha  occ. eigenvalues --  -14.84121 -10.67599 -10.66164  -1.04053  -0.89062
 Alpha  occ. eigenvalues --   -0.59151  -0.54521  -0.53126  -0.44714  -0.39015
 Alpha  occ. eigenvalues --   -0.38814
 Alpha virt. eigenvalues --    0.03641   0.07469   0.08067   0.10153   0.11383
 Alpha virt. eigenvalues --    0.11647   0.15358   0.15813   0.16456   0.20070
 Alpha virt. eigenvalues --    0.20143   0.25435   0.32609   0.33807   0.34724

 Mulliken charges:
               1
     1  C   -0.097358
     2  C   -0.001225
     3  N   -0.206905
     4  H    0.103384
     5  H    0.098375
     6  H    0.103730
 Sum of Mulliken charges =   0.00000

 Dipole moment (field-independent basis, Debye):
    X=             -4.1083    Y=             -0.0122    Z=              0.0202  Tot=              4.1084
 Quadrupole moment (field-independent basis, Debye-Ang):
   XX=            -21.2093   YY=            -17.6701   ZZ=            -17.7658
   XY=             -0.0098   XZ=              0.0947   YZ=             -0.0476

 Normal termination of Gaussian 09 at Wed Aug 26 23:56:09 2020.
