 Gaussian 09, Revision D.01,
 Gaussian 09:  ES64L-G09RevD.01 24-Apr-2013

 --------------------
 #p B2PLYPD3/Def2QZVP
 --------------------

 ------------
 cyanomethane
 ------------
 Symbolic Z-matrix:
 Charge =  0 Multiplicity = 1

                         Standard orientation:
 ---------------------------------------------------------------------
 Center     Atomic      Atomic             Coordinates (Angstroms)
 Number     Number       Type             X           Y           Z
 ---------------------------------------------------------------------
      1          6           0       -1.179924    0.000173    0.003896
      2          6           0        0.271033   -0.010365   -0.008240
      3          7           0        1.426617    0.005183    0.001765
      4          1           0       -1.484655   -0.352480    0.945565
      5          1           0       -1.535249   -0.629986   -0.776517
      6          1           0       -1.513066    1.007341   -0.155342
 ---------------------------------------------------------------------

 SCF Done:  E(RB2PLYPD3) =  -132.534337301     A.U. after   11 cycles
 E2(B2PLYPD3) =    -0.1801895214D+00 E(B2PLYPD3) =    -0.13271452682233D+03

 The electronic state is 1-A.
 Alpha  occ. eigenvalues --  -14.84056 -10.66270 -10.66077  -1.04005  -0.90088
 Alpha  occ. eigenvalues --   -0.59434  -0.55261  -0.54700  -0.44649  -0.39002
 Alpha  occ. eigenvalues --   -0.38957
 Alpha virt. eigenvalues --    0.03901   0.08226   0.08455   0.10189   0.11353
 Alpha virt. eigenvalues --    0.11421   0.15443   0.15993   0.16138   0.20123
 Alpha virt. eigenvalues --    0.20141   0.25424   0.32964   0.34827   0.35104

 Mulliken charges:
               1
     1  C   -0.084325
     2  C   -0.004140
     3  N   -0.209070
     4  H    0.100713
     5  H    0.098186
     6  H    0.098636
 Sum of Mulliken charges =   0.00000

 Dipole moment (field-independent basis, Debye):
    X=             -4.1241    Y=             -0.0073    Z=              0.0000  Tot=              4.1241
 Quadrupole moment (field-independent basis, Debye-Ang):
   XX=            -21.1318   YY=            -17.6591   ZZ=            -17.6465
   XY=             -0.0240   XZ=              0.0240   YZ=             -0.0088

 Normal termination of Gaussian 09 at Wed Aug 26 15:38:56 2020.
