 Gaussian 09, Revision D.01,
 Gaussian 09:  ES64L-G09RevD.01 24-Apr-2013

 --------------------
 #p B2PLYPD3/Def2QZVP
 --------------------

 ------------
 cyanomethane
 ------------
 Symbolic Z-matrix:
 Charge =  0 Multiplicity = 1

                         Standard orientation:
 ---------------------------------------------------------------------
 Center     Atomic      Atomic             Coordinates (Angstroms)
 Number     Number       Type             X           Y           Z
 ---------------------------------------------------------------------
      1          6           0        1.177049    0.016979    0.024031
      2          6           0       -0.281055    0.033465   -0.036230
      3          7           0       -1.421615   -0.012573    0.014790
      4          1           0        1.493999   -0.657867   -0.830241
      5          1           0        1.464033   -0.505245    0.893394
      6          1           0        1.617310    0.948459   -0.093495
 ---------------------------------------------------------------------

 SCF Done:  E(RB2PLYPD3) =  -132.531081945     A.U. after   12 cycles
 E2(B2PLYPD3) =    -0.1793743477D+00 E(B2PLYPD3) =    -0.13271045629250D+03

 The electronic state is 1-A.
 Alpha  occ. eigenvalues --  -14.83753 -10.66673 -10.65815  -1.04556  -0.89594
 Alpha  occ. eigenvalues --   -0.59692  -0.55915  -0.52766  -0.44665  -0.39586
 Alpha  occ. eigenvalues --   -0.38996
 Alpha virt. eigenvalues --    0.03774   0.08084   0.08613   0.10208   0.11235
 Alpha virt. eigenvalues --    0.11936   0.15420   0.15669   0.17029   0.19953
 Alpha virt. eigenvalues --    0.20143   0.25453   0.32583   0.33778   0.35965

 Mulliken charges:
               1
     1  C   -0.087607
     2  C   -0.002321
     3  N   -0.201592
     4  H    0.088445
     5  H    0.101290
     6  H    0.101786
 Sum of Mulliken charges =   0.00000

 Dipole moment (field-independent basis, Debye):
    X=              4.1007    Y=             -0.0118    Z=             -0.0236  Tot=              4.1008
 Quadrupole moment (field-independent basis, Debye-Ang):
   XX=            -21.0574   YY=            -17.5539   ZZ=            -17.7854
   XY=             -0.0268   XZ=              0.0433   YZ=             -0.0854

 Normal termination of Gaussian 09 at Wed Aug 26 23:51:11 2020.
