 Gaussian 09, Revision D.01,
 Gaussian 09:  ES64L-G09RevD.01 24-Apr-2013

 --------------------
 #p B2PLYPD3/Def2QZVP
 --------------------

 ------------
 cyanomethane
 ------------
 Symbolic Z-matrix:
 Charge =  0 Multiplicity = 1

                         Standard orientation:
 ---------------------------------------------------------------------
 Center     Atomic      Atomic             Coordinates (Angstroms)
 Number     Number       Type             X           Y           Z
 ---------------------------------------------------------------------
      1          6           0        1.146401   -0.006310   -0.000313
      2          6           0       -0.254664    0.077244   -0.023265
      3          7           0       -1.432358   -0.031152    0.010699
      4          1           0        1.667805    0.990677   -0.130872
      5          1           0        1.507011   -0.753732   -0.745427
      6          1           0        1.501264   -0.444486    0.942877
 ---------------------------------------------------------------------

 SCF Done:  E(RB2PLYPD3) =  -132.525564090     A.U. after   12 cycles
 E2(B2PLYPD3) =    -0.1836002236D+00 E(B2PLYPD3) =    -0.13270916431343D+03

 The electronic state is 1-A.
 Alpha  occ. eigenvalues --  -14.85026 -10.67401 -10.66926  -1.03235  -0.89657
 Alpha  occ. eigenvalues --   -0.60969  -0.53977  -0.52831  -0.45058  -0.38237
 Alpha  occ. eigenvalues --   -0.37943
 Alpha virt. eigenvalues --    0.03510   0.06549   0.06629   0.09924   0.11246
 Alpha virt. eigenvalues --    0.11841   0.15699   0.16202   0.16607   0.20015
 Alpha virt. eigenvalues --    0.20362   0.26460   0.32435   0.33835   0.34805

 Mulliken charges:
               1
     1  C   -0.080433
     2  C    0.009204
     3  N   -0.217720
     4  H    0.096022
     5  H    0.096957
     6  H    0.095970
 Sum of Mulliken charges =   0.00000

 Dipole moment (field-independent basis, Debye):
    X=              4.1358    Y=             -0.0239    Z=              0.0191  Tot=              4.1359
 Quadrupole moment (field-independent basis, Debye-Ang):
   XX=            -20.9393   YY=            -17.6601   ZZ=            -18.0810
   XY=             -0.1542   XZ=              0.1080   YZ=              0.0094

 Normal termination of Gaussian 09 at Wed Aug 26 19:03:07 2020.
