 Gaussian 09, Revision D.01,
 Gaussian 09:  ES64L-G09RevD.01 24-Apr-2013

 --------------------
 #p B2PLYPD3/Def2QZVP
 --------------------

 ------------
 cyanomethane
 ------------
 Symbolic Z-matrix:
 Charge =  0 Multiplicity = 1

                         Standard orientation:
 ---------------------------------------------------------------------
 Center     Atomic      Atomic             Coordinates (Angstroms)
 Number     Number       Type             X           Y           Z
 ---------------------------------------------------------------------
      1          6           0       -1.193061    0.007937   -0.001437
      2          6           0        0.287397    0.012820    0.025091
      3          7           0        1.430464   -0.007172   -0.021800
      4          1           0       -1.622550   -0.605507   -0.852032
      5          1           0       -1.537477    1.032626   -0.056223
      6          1           0       -1.419236   -0.501464    0.918930
 ---------------------------------------------------------------------

 SCF Done:  E(RB2PLYPD3) =  -132.531291833     A.U. after   12 cycles
 E2(B2PLYPD3) =    -0.1798152389D+00 E(B2PLYPD3) =    -0.13271110707149D+03

 The electronic state is 1-A.
 Alpha  occ. eigenvalues --  -14.83798 -10.67599 -10.65910  -1.04415  -0.88812
 Alpha  occ. eigenvalues --   -0.58506  -0.55074  -0.52780  -0.44589  -0.39417
 Alpha  occ. eigenvalues --   -0.39152
 Alpha virt. eigenvalues --    0.03627   0.07683   0.08813   0.10228   0.11337
 Alpha virt. eigenvalues --    0.11614   0.15148   0.15403   0.16900   0.20019
 Alpha virt. eigenvalues --    0.20101   0.24951   0.32450   0.33973   0.34971

 Mulliken charges:
               1
     1  C   -0.102245
     2  C   -0.005467
     3  N   -0.201140
     4  H    0.097627
     5  H    0.106260
     6  H    0.104966
 Sum of Mulliken charges =   0.00000

 Dipole moment (field-independent basis, Debye):
    X=             -4.0995    Y=             -0.0047    Z=              0.0461  Tot=              4.0998
 Quadrupole moment (field-independent basis, Debye-Ang):
   XX=            -21.2346   YY=            -17.5755   ZZ=            -17.7904
   XY=              0.0711   XZ=              0.2525   YZ=             -0.0573

 Normal termination of Gaussian 09 at Wed Aug 26 14:30:38 2020.
