 Gaussian 09, Revision D.01,
 Gaussian 09:  ES64L-G09RevD.01 24-Apr-2013

 --------------------
 #p B2PLYPD3/Def2QZVP
 --------------------

 ------------
 cyanomethane
 ------------
 Symbolic Z-matrix:
 Charge =  0 Multiplicity = 1

                         Standard orientation:
 ---------------------------------------------------------------------
 Center     Atomic      Atomic             Coordinates (Angstroms)
 Number     Number       Type             X           Y           Z
 ---------------------------------------------------------------------
      1          6           0       -1.182863    0.012301   -0.000606
      2          6           0        0.276553   -0.027889    0.006928
      3          7           0        1.441774    0.012940   -0.002387
      4          1           0       -1.567270   -0.024159    1.042787
      5          1           0       -1.547393   -0.917071   -0.554053
      6          1           0       -1.539901    0.944184   -0.509957
 ---------------------------------------------------------------------

 SCF Done:  E(RB2PLYPD3) =  -132.530883466     A.U. after   12 cycles
 E2(B2PLYPD3) =    -0.1819676282D+00 E(B2PLYPD3) =    -0.13271285109428D+03

 The electronic state is 1-A.
 Alpha  occ. eigenvalues --  -14.84508 -10.68282 -10.66608  -1.03640  -0.88483
 Alpha  occ. eigenvalues --   -0.59083  -0.53540  -0.53008  -0.44799  -0.38751
 Alpha  occ. eigenvalues --   -0.38637
 Alpha virt. eigenvalues --    0.03516   0.07257   0.07405   0.10123   0.11370
 Alpha virt. eigenvalues --    0.11409   0.15223   0.15832   0.16417   0.20112
 Alpha virt. eigenvalues --    0.20144   0.25325   0.32185   0.33697   0.34241

 Mulliken charges:
               1
     1  C   -0.100846
     2  C    0.002361
     3  N   -0.210626
     4  H    0.102584
     5  H    0.100701
     6  H    0.105827
 Sum of Mulliken charges =   0.00000

 Dipole moment (field-independent basis, Debye):
    X=             -4.1232    Y=             -0.0162    Z=              0.0119  Tot=              4.1232
 Quadrupole moment (field-independent basis, Debye-Ang):
   XX=            -21.2197   YY=            -17.7489   ZZ=            -17.8463
   XY=             -0.0609   XZ=             -0.0305   YZ=             -0.0244

 Normal termination of Gaussian 09 at Wed Aug 26 15:14:18 2020.
