 Gaussian 09, Revision D.01,
 Gaussian 09:  ES64L-G09RevD.01 24-Apr-2013

 --------------------
 #p B2PLYPD3/Def2QZVP
 --------------------

 ------------
 cyanomethane
 ------------
 Symbolic Z-matrix:
 Charge =  0 Multiplicity = 1

                         Standard orientation:
 ---------------------------------------------------------------------
 Center     Atomic      Atomic             Coordinates (Angstroms)
 Number     Number       Type             X           Y           Z
 ---------------------------------------------------------------------
      1          6           0       -1.173833   -0.004084    0.003340
      2          6           0        0.291335    0.026655    0.001114
      3          7           0        1.435513   -0.008362    0.002410
      4          1           0       -1.615160   -0.235704    1.028123
      5          1           0       -1.502392   -0.839555   -0.714037
      6          1           0       -1.636049    0.998365   -0.357680
 ---------------------------------------------------------------------

 SCF Done:  E(RB2PLYPD3) =  -132.527997379     A.U. after   12 cycles
 E2(B2PLYPD3) =    -0.1805554165D+00 E(B2PLYPD3) =    -0.13270855279542D+03

 The electronic state is 1-A.
 Alpha  occ. eigenvalues --  -14.84046 -10.68955 -10.66163  -1.04571  -0.87687
 Alpha  occ. eigenvalues --   -0.59123  -0.52450  -0.52218  -0.44846  -0.39262
 Alpha  occ. eigenvalues --   -0.39183
 Alpha virt. eigenvalues --    0.03394   0.07154   0.07363   0.10191   0.11677
 Alpha virt. eigenvalues --    0.11779   0.15231   0.16231   0.16799   0.19993
 Alpha virt. eigenvalues --    0.20041   0.25239   0.32020   0.33513   0.33880

 Mulliken charges:
               1
     1  C   -0.103489
     2  C    0.002022
     3  N   -0.198154
     4  H    0.100336
     5  H    0.101279
     6  H    0.098005
 Sum of Mulliken charges =   0.00000

 Dipole moment (field-independent basis, Debye):
    X=             -4.0915    Y=             -0.0028    Z=             -0.0014  Tot=              4.0915
 Quadrupole moment (field-independent basis, Debye-Ang):
   XX=            -21.0649   YY=            -17.7965   ZZ=            -17.8565
   XY=             -0.0070   XZ=             -0.0772   YZ=              0.0049

 Normal termination of Gaussian 09 at Wed Aug 26 12:50:01 2020.
