 Gaussian 09, Revision D.01,
 Gaussian 09:  ES64L-G09RevD.01 24-Apr-2013

 --------------------
 #p B2PLYPD3/Def2QZVP
 --------------------

 ------------
 cyanomethane
 ------------
 Symbolic Z-matrix:
 Charge =  0 Multiplicity = 1

                         Standard orientation:
 ---------------------------------------------------------------------
 Center     Atomic      Atomic             Coordinates (Angstroms)
 Number     Number       Type             X           Y           Z
 ---------------------------------------------------------------------
      1          6           0       -1.187681    0.004752   -0.003752
      2          6           0        0.275873    0.017906   -0.007993
      3          7           0        1.438327   -0.012928    0.005771
      4          1           0       -1.489292    1.022123   -0.215452
      5          1           0       -1.560235   -0.334526    1.007956
      6          1           0       -1.547912   -0.733046   -0.762426
 ---------------------------------------------------------------------

 SCF Done:  E(RB2PLYPD3) =  -132.531864162     A.U. after   12 cycles
 E2(B2PLYPD3) =    -0.1814888301D+00 E(B2PLYPD3) =    -0.13271335299208D+03

 The electronic state is 1-A.
 Alpha  occ. eigenvalues --  -14.84340 -10.67888 -10.66437  -1.03704  -0.88819
 Alpha  occ. eigenvalues --   -0.58789  -0.54651  -0.52927  -0.44699  -0.38851
 Alpha  occ. eigenvalues --   -0.38683
 Alpha virt. eigenvalues --    0.03588   0.07307   0.08052   0.10155   0.11190
 Alpha virt. eigenvalues --    0.11510   0.15178   0.15825   0.16211   0.20084
 Alpha virt. eigenvalues --    0.20178   0.25187   0.32346   0.33748   0.34588

 Mulliken charges:
               1
     1  C   -0.101000
     2  C   -0.000693
     3  N   -0.210368
     4  H    0.107843
     5  H    0.100820
     6  H    0.103398
 Sum of Mulliken charges =   0.00000

 Dipole moment (field-independent basis, Debye):
    X=             -4.1214    Y=              0.0121    Z=             -0.0039  Tot=              4.1214
 Quadrupole moment (field-independent basis, Debye-Ang):
   XX=            -21.2829   YY=            -17.6565   ZZ=            -17.8295
   XY=              0.1415   XZ=             -0.0649   YZ=             -0.0051

 Normal termination of Gaussian 09 at Thu Aug 27 00:06:52 2020.
