 Gaussian 09, Revision D.01,
 Gaussian 09:  ES64L-G09RevD.01 24-Apr-2013

 --------------------
 #p B2PLYPD3/Def2QZVP
 --------------------

 ------------
 cyanomethane
 ------------
 Symbolic Z-matrix:
 Charge =  0 Multiplicity = 1

                         Standard orientation:
 ---------------------------------------------------------------------
 Center     Atomic      Atomic             Coordinates (Angstroms)
 Number     Number       Type             X           Y           Z
 ---------------------------------------------------------------------
      1          6           0        1.174806   -0.009189    0.008167
      2          6           0       -0.301841    0.067408   -0.022084
      3          7           0       -1.441253   -0.023218    0.008951
      4          1           0        1.562052   -0.595792   -0.891434
      5          1           0        1.513557   -0.600162    0.895347
      6          1           0        1.775368    1.009168    0.016926
 ---------------------------------------------------------------------

 SCF Done:  E(RB2PLYPD3) =  -132.525412685     A.U. after   12 cycles
 E2(B2PLYPD3) =    -0.1806022266D+00 E(B2PLYPD3) =    -0.13270601491157D+03

 The electronic state is 1-A.
 Alpha  occ. eigenvalues --  -14.84193 -10.68967 -10.66369  -1.04735  -0.87392
 Alpha  occ. eigenvalues --   -0.59526  -0.52273  -0.51593  -0.44989  -0.39447
 Alpha  occ. eigenvalues --   -0.39355
 Alpha virt. eigenvalues --    0.03357   0.06866   0.07461   0.10221   0.11595
 Alpha virt. eigenvalues --    0.11796   0.15213   0.16492   0.17165   0.19923
 Alpha virt. eigenvalues --    0.20025   0.25203   0.31502   0.33647   0.34434

 Mulliken charges:
               1
     1  C   -0.093856
     2  C    0.005853
     3  N   -0.196424
     4  H    0.093966
     5  H    0.099061
     6  H    0.091400
 Sum of Mulliken charges =   0.00000

 Dipole moment (field-independent basis, Debye):
    X=              4.0936    Y=             -0.0170    Z=             -0.0083  Tot=              4.0936
 Quadrupole moment (field-independent basis, Debye-Ang):
   XX=            -20.7974   YY=            -17.8532   ZZ=            -17.9878
   XY=             -0.0703   XZ=              0.0297   YZ=             -0.0159

 Normal termination of Gaussian 09 at Wed Aug 26 23:23:56 2020.
