 Gaussian 09, Revision D.01,
 Gaussian 09:  ES64L-G09RevD.01 24-Apr-2013

 --------------------
 #p B2PLYPD3/Def2QZVP
 --------------------

 ------------
 cyanomethane
 ------------
 Symbolic Z-matrix:
 Charge =  0 Multiplicity = 1

                         Standard orientation:
 ---------------------------------------------------------------------
 Center     Atomic      Atomic             Coordinates (Angstroms)
 Number     Number       Type             X           Y           Z
 ---------------------------------------------------------------------
      1          6           0       -1.185277   -0.004462    0.019450
      2          6           0        0.276801    0.022712   -0.046718
      3          7           0        1.447008   -0.014957    0.010600
      4          1           0       -1.727262   -0.543122   -0.812795
      5          1           0       -1.515917    1.033089    0.008469
      6          1           0       -1.435019   -0.494775    0.893737
 ---------------------------------------------------------------------

 SCF Done:  E(RB2PLYPD3) =  -132.528064986     A.U. after   12 cycles
 E2(B2PLYPD3) =    -0.1821041219D+00 E(B2PLYPD3) =    -0.13271016910748D+03

 The electronic state is 1-A.
 Alpha  occ. eigenvalues --  -14.84751 -10.67089 -10.66883  -1.03463  -0.89379
 Alpha  occ. eigenvalues --   -0.59963  -0.55275  -0.52627  -0.44883  -0.38773
 Alpha  occ. eigenvalues --   -0.38608
 Alpha virt. eigenvalues --    0.03714   0.07021   0.08021   0.10193   0.11141
 Alpha virt. eigenvalues --    0.11428   0.15210   0.15841   0.16861   0.20095
 Alpha virt. eigenvalues --    0.20210   0.25386   0.32039   0.34366   0.35266

 Mulliken charges:
               1
     1  C   -0.082699
     2  C    0.004042
     3  N   -0.214432
     4  H    0.089852
     5  H    0.098419
     6  H    0.104818
 Sum of Mulliken charges =   0.00000

 Dipole moment (field-independent basis, Debye):
    X=             -4.1572    Y=              0.0134    Z=              0.0132  Tot=              4.1573
 Quadrupole moment (field-independent basis, Debye-Ang):
   XX=            -20.9111   YY=            -17.7465   ZZ=            -17.9444
   XY=              0.1525   XZ=              0.0944   YZ=             -0.0793

 Normal termination of Gaussian 09 at Wed Aug 26 22:28:46 2020.
