 Gaussian 09, Revision D.01,
 Gaussian 09:  ES64L-G09RevD.01 24-Apr-2013

 --------------------
 #p B2PLYPD3/Def2QZVP
 --------------------

 ------------
 cyanomethane
 ------------
 Symbolic Z-matrix:
 Charge =  0 Multiplicity = 1

                         Standard orientation:
 ---------------------------------------------------------------------
 Center     Atomic      Atomic             Coordinates (Angstroms)
 Number     Number       Type             X           Y           Z
 ---------------------------------------------------------------------
      1          6           0       -1.188105   -0.003617    0.007386
      2          6           0        0.286898    0.033386    0.003249
      3          7           0        1.434637   -0.014717   -0.008070
      4          1           0       -1.458595   -0.431072    0.896608
      5          1           0       -1.588555   -0.625449   -0.791763
      6          1           0       -1.588070    0.980925   -0.112167
 ---------------------------------------------------------------------

 SCF Done:  E(RB2PLYPD3) =  -132.532386826     A.U. after   12 cycles
 E2(B2PLYPD3) =    -0.1796570517D+00 E(B2PLYPD3) =    -0.13271204387720D+03

 The electronic state is 1-A.
 Alpha  occ. eigenvalues --  -14.84032 -10.66386 -10.66118  -1.04310  -0.89637
 Alpha  occ. eigenvalues --   -0.59609  -0.55480  -0.53540  -0.44730  -0.39414
 Alpha  occ. eigenvalues --   -0.39253
 Alpha virt. eigenvalues --    0.03847   0.08060   0.08821   0.10249   0.11232
 Alpha virt. eigenvalues --    0.11502   0.15353   0.16077   0.16716   0.20007
 Alpha virt. eigenvalues --    0.20112   0.25066   0.32718   0.34734   0.35583

 Mulliken charges:
               1
     1  C   -0.077487
     2  C   -0.003988
     3  N   -0.203649
     4  H    0.099625
     5  H    0.090679
     6  H    0.094819
 Sum of Mulliken charges =   0.00000

 Dipole moment (field-independent basis, Debye):
    X=             -4.1329    Y=              0.0050    Z=              0.0205  Tot=              4.1329
 Quadrupole moment (field-independent basis, Debye-Ang):
   XX=            -20.9058   YY=            -17.6618   ZZ=            -17.7665
   XY=              0.0793   XZ=              0.1272   YZ=             -0.0600

 Normal termination of Gaussian 09 at Wed Aug 26 12:33:06 2020.
