 Gaussian 09, Revision D.01,
 Gaussian 09:  ES64L-G09RevD.01 24-Apr-2013

 --------------------
 #p B2PLYPD3/Def2QZVP
 --------------------

 ------------
 cyanomethane
 ------------
 Symbolic Z-matrix:
 Charge =  0 Multiplicity = 1

                         Standard orientation:
 ---------------------------------------------------------------------
 Center     Atomic      Atomic             Coordinates (Angstroms)
 Number     Number       Type             X           Y           Z
 ---------------------------------------------------------------------
      1          6           0        1.182091    0.014340    0.005546
      2          6           0       -0.283628   -0.046250    0.007076
      3          7           0       -1.422303    0.022492   -0.008818
      4          1           0        1.537599    0.997199   -0.355244
      5          1           0        1.564781   -0.792254   -0.668658
      6          1           0        1.462964   -0.170932    1.009894
 ---------------------------------------------------------------------

 SCF Done:  E(RB2PLYPD3) =  -132.533504332     A.U. after   12 cycles
 E2(B2PLYPD3) =    -0.1794191760D+00 E(B2PLYPD3) =    -0.13271292350837D+03

 The electronic state is 1-A.
 Alpha  occ. eigenvalues --  -14.83691 -10.67336 -10.65720  -1.04583  -0.89026
 Alpha  occ. eigenvalues --   -0.58669  -0.54774  -0.53377  -0.44609  -0.39397
 Alpha  occ. eigenvalues --   -0.39276
 Alpha virt. eigenvalues --    0.03675   0.07830   0.08692   0.10181   0.11494
 Alpha virt. eigenvalues --    0.11646   0.15310   0.15651   0.16635   0.20024
 Alpha virt. eigenvalues --    0.20046   0.25332   0.32689   0.34248   0.34796

 Mulliken charges:
               1
     1  C   -0.099507
     2  C   -0.005629
     3  N   -0.199700
     4  H    0.102872
     5  H    0.097422
     6  H    0.104542
 Sum of Mulliken charges =   0.00000

 Dipole moment (field-independent basis, Debye):
    X=              4.0790    Y=             -0.0354    Z=              0.0228  Tot=              4.0792
 Quadrupole moment (field-independent basis, Debye-Ang):
   XX=            -21.2289   YY=            -17.6427   ZZ=            -17.6534
   XY=              0.1174   XZ=             -0.1096   YZ=             -0.0311

 Normal termination of Gaussian 09 at Wed Aug 26 11:14:10 2020.
