 Gaussian 09, Revision D.01,
 Gaussian 09:  ES64L-G09RevD.01 24-Apr-2013

 --------------------
 #p B2PLYPD3/Def2QZVP
 --------------------

 ------------
 cyanomethane
 ------------
 Symbolic Z-matrix:
 Charge =  0 Multiplicity = 1

                         Standard orientation:
 ---------------------------------------------------------------------
 Center     Atomic      Atomic             Coordinates (Angstroms)
 Number     Number       Type             X           Y           Z
 ---------------------------------------------------------------------
      1          6           0       -1.140150   -0.031805   -0.011762
      2          6           0        0.282860    0.008911   -0.064136
      3          7           0        1.420667    0.007829    0.032680
      4          1           0       -1.707518    1.039946    0.225686
      5          1           0       -1.491930   -0.621289    0.823974
      6          1           0       -1.601480   -0.336096   -0.823034
 ---------------------------------------------------------------------

 SCF Done:  E(RB2PLYPD3) =  -132.513451706     A.U. after   11 cycles
 E2(B2PLYPD3) =    -0.1800057189D+00 E(B2PLYPD3) =    -0.13269345742527D+03

 The electronic state is 1-A.
 Alpha  occ. eigenvalues --  -14.84132 -10.66821 -10.66051  -1.04949  -0.89733
 Alpha  occ. eigenvalues --   -0.62081  -0.55300  -0.50659  -0.45097  -0.39684
 Alpha  occ. eigenvalues --   -0.38846
 Alpha virt. eigenvalues --    0.03159   0.06453   0.08674   0.10112   0.11414
 Alpha virt. eigenvalues --    0.12313   0.15742   0.16979   0.17204   0.19851
 Alpha virt. eigenvalues --    0.20193   0.26120   0.31221   0.34296   0.35365

 Mulliken charges:
               1
     1  C   -0.070481
     2  C    0.009157
     3  N   -0.197993
     4  H    0.072707
     5  H    0.091041
     6  H    0.095569
 Sum of Mulliken charges =   0.00000

 Dipole moment (field-independent basis, Debye):
    X=             -4.0768    Y=             -0.0770    Z=             -0.0485  Tot=              4.0778
 Quadrupole moment (field-independent basis, Debye-Ang):
   XX=            -20.5344   YY=            -17.9456   ZZ=            -17.7784
   XY=             -0.0587   XZ=             -0.1613   YZ=             -0.0091

 Normal termination of Gaussian 09 at Wed Aug 26 23:51:33 2020.
