 Gaussian 09, Revision D.01,
 Gaussian 09:  ES64L-G09RevD.01 24-Apr-2013

 --------------------
 #p B2PLYPD3/Def2QZVP
 --------------------

 ------------
 cyanomethane
 ------------
 Symbolic Z-matrix:
 Charge =  0 Multiplicity = 1

                         Standard orientation:
 ---------------------------------------------------------------------
 Center     Atomic      Atomic             Coordinates (Angstroms)
 Number     Number       Type             X           Y           Z
 ---------------------------------------------------------------------
      1          6           0        1.159385   -0.000277    0.001751
      2          6           0       -0.265342    0.002279   -0.037356
      3          7           0       -1.434630   -0.001908    0.017723
      4          1           0        1.551199    1.025368   -0.053137
      5          1           0        1.583882   -0.588201   -0.770659
      6          1           0        1.543075   -0.435825    0.913362
 ---------------------------------------------------------------------

 SCF Done:  E(RB2PLYPD3) =  -132.532015546     A.U. after   11 cycles
 E2(B2PLYPD3) =    -0.1818413362D+00 E(B2PLYPD3) =    -0.13271385688228D+03

 The electronic state is 1-A.
 Alpha  occ. eigenvalues --  -14.84680 -10.66666 -10.66507  -1.03617  -0.89991
 Alpha  occ. eigenvalues --   -0.61093  -0.54453  -0.53599  -0.44966  -0.38661
 Alpha  occ. eigenvalues --   -0.38521
 Alpha virt. eigenvalues --    0.03760   0.07256   0.07643   0.10072   0.11303
 Alpha virt. eigenvalues --    0.11602   0.15649   0.16396   0.16559   0.20127
 Alpha virt. eigenvalues --    0.20226   0.25983   0.32956   0.34543   0.34936

 Mulliken charges:
               1
     1  C   -0.067422
     2  C    0.004177
     3  N   -0.213730
     4  H    0.093680
     5  H    0.092108
     6  H    0.091187
 Sum of Mulliken charges =   0.00000

 Dipole moment (field-independent basis, Debye):
    X=              4.1543    Y=             -0.0192    Z=             -0.0096  Tot=              4.1544
 Quadrupole moment (field-independent basis, Debye-Ang):
   XX=            -20.8132   YY=            -17.7109   ZZ=            -17.9210
   XY=             -0.0768   XZ=              0.1011   YZ=              0.0206

 Normal termination of Gaussian 09 at Wed Aug 26 15:10:45 2020.
