 Gaussian 09, Revision D.01,
 Gaussian 09:  ES64L-G09RevD.01 24-Apr-2013

 --------------------
 #p B2PLYPD3/Def2QZVP
 --------------------

 ------------
 cyanomethane
 ------------
 Symbolic Z-matrix:
 Charge =  0 Multiplicity = 1

                         Standard orientation:
 ---------------------------------------------------------------------
 Center     Atomic      Atomic             Coordinates (Angstroms)
 Number     Number       Type             X           Y           Z
 ---------------------------------------------------------------------
      1          6           0       -1.177857    0.020490   -0.000371
      2          6           0        0.298373   -0.033254    0.036103
      3          7           0        1.427686   -0.001653   -0.021149
      4          1           0       -1.748969   -0.755916   -0.759125
      5          1           0       -1.366920    1.068644   -0.318008
      6          1           0       -1.601007   -0.224571    1.010786
 ---------------------------------------------------------------------

 SCF Done:  E(RB2PLYPD3) =  -132.520492275     A.U. after   12 cycles
 E2(B2PLYPD3) =    -0.1796406831D+00 E(B2PLYPD3) =    -0.13270013295796D+03

 The electronic state is 1-A.
 Alpha  occ. eigenvalues --  -14.83602 -10.69115 -10.65745  -1.05088  -0.87568
 Alpha  occ. eigenvalues --   -0.58429  -0.53935  -0.50786  -0.44712  -0.39680
 Alpha  occ. eigenvalues --   -0.39355
 Alpha virt. eigenvalues --    0.03189   0.06717   0.08274   0.10335   0.11720
 Alpha virt. eigenvalues --    0.12029   0.14952   0.15904   0.17175   0.19892
 Alpha virt. eigenvalues --    0.20065   0.25147   0.31193   0.33326   0.34334

 Mulliken charges:
               1
     1  C   -0.112808
     2  C   -0.002209
     3  N   -0.190979
     4  H    0.093186
     5  H    0.111376
     6  H    0.101435
 Sum of Mulliken charges =   0.00000

 Dipole moment (field-independent basis, Debye):
    X=             -4.0635    Y=              0.0238    Z=              0.0593  Tot=              4.0640
 Quadrupole moment (field-independent basis, Debye-Ang):
   XX=            -21.1137   YY=            -17.7094   ZZ=            -17.8651
   XY=              0.2732   XZ=              0.0976   YZ=             -0.1054

 Normal termination of Gaussian 09 at Wed Aug 26 21:33:54 2020.
