 Gaussian 09, Revision D.01,
 Gaussian 09:  ES64L-G09RevD.01 24-Apr-2013

 --------------------
 #p B2PLYPD3/Def2QZVP
 --------------------

 ------------
 cyanomethane
 ------------
 Symbolic Z-matrix:
 Charge =  0 Multiplicity = 1

                         Standard orientation:
 ---------------------------------------------------------------------
 Center     Atomic      Atomic             Coordinates (Angstroms)
 Number     Number       Type             X           Y           Z
 ---------------------------------------------------------------------
      1          6           0        1.182331    0.000551   -0.002877
      2          6           0       -0.278558   -0.017878    0.001442
      3          7           0       -1.428057    0.009219   -0.002693
      4          1           0        1.536025    0.947577   -0.409754
      5          1           0        1.543092   -0.820897   -0.581701
      6          1           0        1.494643   -0.087255    1.018914
 ---------------------------------------------------------------------

 SCF Done:  E(RB2PLYPD3) =  -132.535594327     A.U. after   11 cycles
 E2(B2PLYPD3) =    -0.1798666226D+00 E(B2PLYPD3) =    -0.13271546094972D+03

 The electronic state is 1-A.
 Alpha  occ. eigenvalues --  -14.83945 -10.66771 -10.65994  -1.04232  -0.89530
 Alpha  occ. eigenvalues --   -0.59238  -0.54756  -0.54192  -0.44656  -0.39200
 Alpha  occ. eigenvalues --   -0.39111
 Alpha virt. eigenvalues --    0.03822   0.08128   0.08462   0.10204   0.11384
 Alpha virt. eigenvalues --    0.11513   0.15376   0.15920   0.16406   0.20067
 Alpha virt. eigenvalues --    0.20108   0.25271   0.32861   0.34592   0.34982

 Mulliken charges:
               1
     1  C   -0.088323
     2  C   -0.004723
     3  N   -0.204997
     4  H    0.098882
     5  H    0.099917
     6  H    0.099243
 Sum of Mulliken charges =   0.00000

 Dipole moment (field-independent basis, Debye):
    X=              4.1157    Y=             -0.0130    Z=              0.0133  Tot=              4.1157
 Quadrupole moment (field-independent basis, Debye-Ang):
   XX=            -21.1219   YY=            -17.6526   ZZ=            -17.6917
   XY=              0.0505   XZ=             -0.0324   YZ=              0.0169

 Normal termination of Gaussian 09 at Thu Aug 27 00:11:23 2020.
