 Gaussian 09, Revision D.01,
 Gaussian 09:  ES64L-G09RevD.01 24-Apr-2013

 --------------------
 #p B2PLYPD3/Def2QZVP
 --------------------

 ------------
 cyanomethane
 ------------
 Symbolic Z-matrix:
 Charge =  0 Multiplicity = 1

                         Standard orientation:
 ---------------------------------------------------------------------
 Center     Atomic      Atomic             Coordinates (Angstroms)
 Number     Number       Type             X           Y           Z
 ---------------------------------------------------------------------
      1          6           0        1.176791    0.042159   -0.018841
      2          6           0       -0.295372   -0.071776    0.006244
      3          7           0       -1.422752    0.037188   -0.002417
      4          1           0        1.602849    1.077255   -0.082379
      5          1           0        1.543017   -0.690936   -0.805560
      6          1           0        1.524883   -0.468933    0.980445
 ---------------------------------------------------------------------

 SCF Done:  E(RB2PLYPD3) =  -132.523820565     A.U. after   12 cycles
 E2(B2PLYPD3) =    -0.1797605092D+00 E(B2PLYPD3) =    -0.13270358107446D+03

 The electronic state is 1-A.
 Alpha  occ. eigenvalues --  -14.83621 -10.68862 -10.65693  -1.05005  -0.87639
 Alpha  occ. eigenvalues --   -0.58571  -0.53764  -0.51339  -0.44725  -0.39742
 Alpha  occ. eigenvalues --   -0.39128
 Alpha virt. eigenvalues --    0.03293   0.07267   0.07990   0.09988   0.11515
 Alpha virt. eigenvalues --    0.12114   0.15053   0.15335   0.17709   0.19966
 Alpha virt. eigenvalues --    0.20089   0.25656   0.32122   0.32720   0.34655

 Mulliken charges:
               1
     1  C   -0.110122
     2  C    0.000717
     3  N   -0.192770
     4  H    0.112438
     5  H    0.098978
     6  H    0.090759
 Sum of Mulliken charges =   0.00000

 Dipole moment (field-independent basis, Debye):
    X=              4.0451    Y=             -0.0838    Z=              0.0201  Tot=              4.0461
 Quadrupole moment (field-independent basis, Debye-Ang):
   XX=            -21.2213   YY=            -17.4577   ZZ=            -18.0117
   XY=              0.2083   XZ=              0.0131   YZ=              0.0410

 Normal termination of Gaussian 09 at Wed Aug 26 21:37:02 2020.
