 Gaussian 09, Revision D.01,
 Gaussian 09:  ES64L-G09RevD.01 24-Apr-2013

 --------------------
 #p B2PLYPD3/Def2QZVP
 --------------------

 ------------
 cyanomethane
 ------------
 Symbolic Z-matrix:
 Charge =  0 Multiplicity = 1

                         Standard orientation:
 ---------------------------------------------------------------------
 Center     Atomic      Atomic             Coordinates (Angstroms)
 Number     Number       Type             X           Y           Z
 ---------------------------------------------------------------------
      1          6           0       -1.167090   -0.001836    0.004729
      2          6           0        0.277820    0.003037   -0.012731
      3          7           0        1.430161   -0.004186    0.003995
      4          1           0       -1.525903    1.032668   -0.144489
      5          1           0       -1.544082   -0.370319    0.944503
      6          1           0       -1.605520   -0.640254   -0.779967
 ---------------------------------------------------------------------

 SCF Done:  E(RB2PLYPD3) =  -132.535100067     A.U. after   11 cycles
 E2(B2PLYPD3) =    -0.1803841063D+00 E(B2PLYPD3) =    -0.13271548417293D+03

 The electronic state is 1-A.
 Alpha  occ. eigenvalues --  -14.84160 -10.67136 -10.66186  -1.04252  -0.89275
 Alpha  occ. eigenvalues --   -0.60152  -0.53932  -0.53430  -0.44838  -0.39076
 Alpha  occ. eigenvalues --   -0.39040
 Alpha virt. eigenvalues --    0.03747   0.07649   0.07880   0.10156   0.11557
 Alpha virt. eigenvalues --    0.11605   0.15496   0.16292   0.16652   0.20066
 Alpha virt. eigenvalues --    0.20110   0.25588   0.32813   0.34402   0.34744

 Mulliken charges:
               1
     1  C   -0.081117
     2  C   -0.000028
     3  N   -0.204910
     4  H    0.095927
     5  H    0.096547
     6  H    0.093580
 Sum of Mulliken charges =   0.00000

 Dipole moment (field-independent basis, Debye):
    X=             -4.1218    Y=              0.0002    Z=              0.0046  Tot=              4.1218
 Quadrupole moment (field-independent basis, Debye-Ang):
   XX=            -20.9317   YY=            -17.7126   ZZ=            -17.8204
   XY=              0.0869   XZ=             -0.0087   YZ=             -0.0174

 Normal termination of Gaussian 09 at Thu Aug 27 00:02:41 2020.
