 Gaussian 09, Revision D.01,
 Gaussian 09:  ES64L-G09RevD.01 24-Apr-2013

 --------------------
 #p B2PLYPD3/Def2QZVP
 --------------------

 ------------
 cyanomethane
 ------------
 Symbolic Z-matrix:
 Charge =  0 Multiplicity = 1

                         Standard orientation:
 ---------------------------------------------------------------------
 Center     Atomic      Atomic             Coordinates (Angstroms)
 Number     Number       Type             X           Y           Z
 ---------------------------------------------------------------------
      1          6           0        1.183542   -0.010895   -0.000242
      2          6           0       -0.287881    0.019952   -0.005210
      3          7           0       -1.433011   -0.005754    0.003961
      4          1           0        1.504952   -0.755227   -0.683690
      5          1           0        1.557326   -0.230955    0.985016
      6          1           0        1.594838    0.972115   -0.296342
 ---------------------------------------------------------------------

 SCF Done:  E(RB2PLYPD3) =  -132.535488527     A.U. after   11 cycles
 E2(B2PLYPD3) =    -0.1795785713D+00 E(B2PLYPD3) =    -0.13271506709783D+03

 The electronic state is 1-A.
 Alpha  occ. eigenvalues --  -14.83945 -10.66974 -10.66031  -1.04449  -0.89138
 Alpha  occ. eigenvalues --   -0.59503  -0.54586  -0.53426  -0.44734  -0.39420
 Alpha  occ. eigenvalues --   -0.39309
 Alpha virt. eigenvalues --    0.03800   0.08048   0.08430   0.10233   0.11421
 Alpha virt. eigenvalues --    0.11538   0.15336   0.16335   0.16498   0.20021
 Alpha virt. eigenvalues --    0.20057   0.25115   0.32663   0.34591   0.35120

 Mulliken charges:
               1
     1  C   -0.082851
     2  C   -0.004058
     3  N   -0.201370
     4  H    0.099520
     5  H    0.095934
     6  H    0.092825
 Sum of Mulliken charges =   0.00000

 Dipole moment (field-independent basis, Debye):
    X=              4.1217    Y=              0.0008    Z=             -0.0011  Tot=              4.1217
 Quadrupole moment (field-independent basis, Debye-Ang):
   XX=            -20.9620   YY=            -17.7136   ZZ=            -17.7369
   XY=              0.0144   XZ=              0.0563   YZ=              0.0378

 Normal termination of Gaussian 09 at Wed Aug 26 23:54:23 2020.
