 Gaussian 09, Revision D.01,
 Gaussian 09:  ES64L-G09RevD.01 24-Apr-2013

 --------------------
 #p B2PLYPD3/Def2QZVP
 --------------------

 ------------
 cyanomethane
 ------------
 Symbolic Z-matrix:
 Charge =  0 Multiplicity = 1

                         Standard orientation:
 ---------------------------------------------------------------------
 Center     Atomic      Atomic             Coordinates (Angstroms)
 Number     Number       Type             X           Y           Z
 ---------------------------------------------------------------------
      1          6           0       -1.210198   -0.034641   -0.012947
      2          6           0        0.301996    0.072727   -0.012683
      3          7           0        1.434274   -0.035667    0.008572
      4          1           0       -1.539708   -0.026567    1.002421
      5          1           0       -1.529065   -0.913596   -0.482750
      6          1           0       -1.521938    0.961321   -0.425897
 ---------------------------------------------------------------------

 SCF Done:  E(RB2PLYPD3) =  -132.527849377     A.U. after   12 cycles
 E2(B2PLYPD3) =    -0.1792237734D+00 E(B2PLYPD3) =    -0.13270707315002D+03

 The electronic state is 1-A.
 Alpha  occ. eigenvalues --  -14.83670 -10.67380 -10.65791  -1.04632  -0.88564
 Alpha  occ. eigenvalues --   -0.58534  -0.55342  -0.52553  -0.44544  -0.39814
 Alpha  occ. eigenvalues --   -0.39396
 Alpha virt. eigenvalues --    0.03654   0.08547   0.08600   0.10055   0.11146
 Alpha virt. eigenvalues --    0.11542   0.14968   0.15488   0.17114   0.19826
 Alpha virt. eigenvalues --    0.20103   0.24765   0.32291   0.33716   0.35538

 Mulliken charges:
               1
     1  C   -0.095275
     2  C   -0.007722
     3  N   -0.197179
     4  H    0.094769
     5  H    0.108574
     6  H    0.096833
 Sum of Mulliken charges =   0.00000

 Dipole moment (field-independent basis, Debye):
    X=             -4.0965    Y=              0.0558    Z=              0.0423  Tot=              4.0971
 Quadrupole moment (field-independent basis, Debye-Ang):
   XX=            -21.1838   YY=            -17.3940   ZZ=            -17.9344
   XY=              0.2080   XZ=             -0.2010   YZ=              0.0843

 Normal termination of Gaussian 09 at Wed Aug 26 23:54:08 2020.
