 Gaussian 09, Revision D.01,
 Gaussian 09:  ES64L-G09RevD.01 24-Apr-2013

 --------------------
 #p B2PLYPD3/Def2QZVP
 --------------------

 ------------
 cyanomethane
 ------------
 Symbolic Z-matrix:
 Charge =  0 Multiplicity = 1

                         Standard orientation:
 ---------------------------------------------------------------------
 Center     Atomic      Atomic             Coordinates (Angstroms)
 Number     Number       Type             X           Y           Z
 ---------------------------------------------------------------------
      1          6           0        1.174052   -0.008518    0.003538
      2          6           0       -0.280651    0.020337   -0.036078
      3          7           0       -1.421444   -0.008949    0.021988
      4          1           0        1.573147   -0.184006    1.010874
      5          1           0        1.524949    0.976243   -0.328783
      6          1           0        1.491606   -0.800509   -0.640767
 ---------------------------------------------------------------------

 SCF Done:  E(RB2PLYPD3) =  -132.534725680     A.U. after   12 cycles
 E2(B2PLYPD3) =    -0.1794771194D+00 E(B2PLYPD3) =    -0.13271420279940D+03

 The electronic state is 1-A.
 Alpha  occ. eigenvalues --  -14.83778 -10.67006 -10.65781  -1.04564  -0.89304
 Alpha  occ. eigenvalues --   -0.59346  -0.54823  -0.53349  -0.44682  -0.39355
 Alpha  occ. eigenvalues --   -0.39215
 Alpha virt. eigenvalues --    0.03745   0.07833   0.08543   0.10152   0.11511
 Alpha virt. eigenvalues --    0.11684   0.15469   0.15822   0.16726   0.20014
 Alpha virt. eigenvalues --    0.20083   0.25504   0.32964   0.34361   0.34882

 Mulliken charges:
               1
     1  C   -0.091116
     2  C   -0.004029
     3  N   -0.200599
     4  H    0.096559
     5  H    0.097695
     6  H    0.101490
 Sum of Mulliken charges =   0.00000

 Dipole moment (field-independent basis, Debye):
    X=              4.0875    Y=              0.0099    Z=             -0.0258  Tot=              4.0876
 Quadrupole moment (field-independent basis, Debye-Ang):
   XX=            -21.1094   YY=            -17.5952   ZZ=            -17.7428
   XY=             -0.0442   XZ=              0.2054   YZ=              0.0383

 Normal termination of Gaussian 09 at Wed Aug 26 12:24:55 2020.
