 Gaussian 09, Revision D.01,
 Gaussian 09:  ES64L-G09RevD.01 24-Apr-2013

 --------------------
 #p B2PLYPD3/Def2QZVP
 --------------------

 ------------
 cyanomethane
 ------------
 Symbolic Z-matrix:
 Charge =  0 Multiplicity = 1

                         Standard orientation:
 ---------------------------------------------------------------------
 Center     Atomic      Atomic             Coordinates (Angstroms)
 Number     Number       Type             X           Y           Z
 ---------------------------------------------------------------------
      1          6           0        1.192081   -0.010506   -0.006863
      2          6           0       -0.280853   -0.020373   -0.003798
      3          7           0       -1.439517    0.010917   -0.001361
      4          1           0        1.544152    0.983818   -0.281169
      5          1           0        1.583133   -0.708658   -0.617314
      6          1           0        1.481962   -0.166299    0.971974
 ---------------------------------------------------------------------

 SCF Done:  E(RB2PLYPD3) =  -132.528591100     A.U. after   12 cycles
 E2(B2PLYPD3) =    -0.1803303999D+00 E(B2PLYPD3) =    -0.13270892150013D+03

 The electronic state is 1-A.
 Alpha  occ. eigenvalues --  -14.84293 -10.66406 -10.65869  -1.03890  -0.90178
 Alpha  occ. eigenvalues --   -0.60036  -0.55936  -0.54012  -0.44745  -0.39230
 Alpha  occ. eigenvalues --   -0.38954
 Alpha virt. eigenvalues --    0.03894   0.08194   0.08772   0.10236   0.11051
 Alpha virt. eigenvalues --    0.11410   0.15361   0.15879   0.16742   0.20072
 Alpha virt. eigenvalues --    0.20173   0.25023   0.32730   0.34612   0.35892

 Mulliken charges:
               1
     1  C   -0.071056
     2  C   -0.001750
     3  N   -0.209639
     4  H    0.091336
     5  H    0.096704
     6  H    0.094405
 Sum of Mulliken charges =   0.00000

 Dipole moment (field-independent basis, Debye):
    X=              4.1574    Y=             -0.0132    Z=              0.0274  Tot=              4.1575
 Quadrupole moment (field-independent basis, Debye-Ang):
   XX=            -20.8896   YY=            -17.6849   ZZ=            -17.7510
   XY=              0.0512   XZ=             -0.0193   YZ=              0.0559

 Normal termination of Gaussian 09 at Wed Aug 26 15:17:07 2020.
