 Gaussian 09, Revision D.01,
 Gaussian 09:  ES64L-G09RevD.01 24-Apr-2013

 --------------------
 #p B2PLYPD3/Def2QZVP
 --------------------

 ------------
 cyanomethane
 ------------
 Symbolic Z-matrix:
 Charge =  0 Multiplicity = 1

                         Standard orientation:
 ---------------------------------------------------------------------
 Center     Atomic      Atomic             Coordinates (Angstroms)
 Number     Number       Type             X           Y           Z
 ---------------------------------------------------------------------
      1          6           0       -1.136899    0.034229    0.020322
      2          6           0        0.251555   -0.056587    0.029499
      3          7           0        1.432804    0.024466   -0.016541
      4          1           0       -1.590458   -0.079006    1.011066
      5          1           0       -1.570629   -0.923942   -0.657201
      6          1           0       -1.556478    0.965838   -0.537006
 ---------------------------------------------------------------------

 SCF Done:  E(RB2PLYPD3) =  -132.510455412     A.U. after   12 cycles
 E2(B2PLYPD3) =    -0.1846961063D+00 E(B2PLYPD3) =    -0.13269515151820D+03

 The electronic state is 1-A.
 Alpha  occ. eigenvalues --  -14.85124 -10.68824 -10.66979  -1.03223  -0.89064
 Alpha  occ. eigenvalues --   -0.60574  -0.54002  -0.50886  -0.45124  -0.38192
 Alpha  occ. eigenvalues --   -0.37425
 Alpha virt. eigenvalues --    0.03015   0.05066   0.06583   0.09825   0.11344
 Alpha virt. eigenvalues --    0.12052   0.15488   0.15665   0.17165   0.20206
 Alpha virt. eigenvalues --    0.20308   0.26537   0.30561   0.33284   0.34266

 Mulliken charges:
               1
     1  C   -0.101776
     2  C    0.014618
     3  N   -0.216872
     4  H    0.108811
     5  H    0.087891
     6  H    0.107327
 Sum of Mulliken charges =   0.00000

 Dipole moment (field-independent basis, Debye):
    X=             -4.1066    Y=             -0.0127    Z=              0.0263  Tot=              4.1068
 Quadrupole moment (field-independent basis, Debye-Ang):
   XX=            -21.1166   YY=            -17.9802   ZZ=            -17.8624
   XY=             -0.1252   XZ=              0.0597   YZ=             -0.1132

 Normal termination of Gaussian 09 at Wed Aug 26 22:12:26 2020.
