 Gaussian 09, Revision D.01,
 Gaussian 09:  ES64L-G09RevD.01 24-Apr-2013

 --------------------
 #p B2PLYPD3/Def2QZVP
 --------------------

 ------------
 cyanomethane
 ------------
 Symbolic Z-matrix:
 Charge =  0 Multiplicity = 1

                         Standard orientation:
 ---------------------------------------------------------------------
 Center     Atomic      Atomic             Coordinates (Angstroms)
 Number     Number       Type             X           Y           Z
 ---------------------------------------------------------------------
      1          6           0       -1.161595    0.001266    0.002014
      2          6           0        0.278761   -0.000234   -0.023492
      3          7           0        1.432489    0.004339    0.013273
      4          1           0       -1.571060   -0.357821    0.953688
      5          1           0       -1.526373   -0.673824   -0.751400
      6          1           0       -1.632993    0.995081   -0.166332
 ---------------------------------------------------------------------

 SCF Done:  E(RB2PLYPD3) =  -132.533852124     A.U. after   12 cycles
 E2(B2PLYPD3) =    -0.1806304284D+00 E(B2PLYPD3) =    -0.13271448255247D+03

 The electronic state is 1-A.
 Alpha  occ. eigenvalues --  -14.84302 -10.67060 -10.66321  -1.04249  -0.89317
 Alpha  occ. eigenvalues --   -0.60655  -0.53892  -0.53032  -0.44941  -0.39077
 Alpha  occ. eigenvalues --   -0.39001
 Alpha virt. eigenvalues --    0.03716   0.07310   0.07919   0.10119   0.11513
 Alpha virt. eigenvalues --    0.11688   0.15582   0.16247   0.17082   0.20048
 Alpha virt. eigenvalues --    0.20156   0.25708   0.32858   0.34526   0.34720

 Mulliken charges:
               1
     1  C   -0.073106
     2  C    0.002255
     3  N   -0.205182
     4  H    0.091225
     5  H    0.093379
     6  H    0.091430
 Sum of Mulliken charges =   0.00000

 Dipole moment (field-independent basis, Debye):
    X=             -4.1306    Y=             -0.0272    Z=             -0.0151  Tot=              4.1307
 Quadrupole moment (field-independent basis, Debye-Ang):
   XX=            -20.7749   YY=            -17.7792   ZZ=            -17.8600
   XY=             -0.0492   XZ=             -0.1064   YZ=              0.0253

 Normal termination of Gaussian 09 at Wed Aug 26 15:25:33 2020.
