 Gaussian 09, Revision D.01,
 Gaussian 09:  ES64L-G09RevD.01 24-Apr-2013

 --------------------
 #p B2PLYPD3/Def2QZVP
 --------------------

 ------------
 cyanomethane
 ------------
 Symbolic Z-matrix:
 Charge =  0 Multiplicity = 1

                         Standard orientation:
 ---------------------------------------------------------------------
 Center     Atomic      Atomic             Coordinates (Angstroms)
 Number     Number       Type             X           Y           Z
 ---------------------------------------------------------------------
      1          6           0        1.176268   -0.002173    0.009380
      2          6           0       -0.284284   -0.019471   -0.001135
      3          7           0       -1.436309    0.012252    0.001394
      4          1           0        1.588656    1.044913   -0.100197
      5          1           0        1.533216   -0.571896   -0.854282
      6          1           0        1.580390   -0.428919    0.895257
 ---------------------------------------------------------------------

 SCF Done:  E(RB2PLYPD3) =  -132.533950935     A.U. after   12 cycles
 E2(B2PLYPD3) =    -0.1804223598D+00 E(B2PLYPD3) =    -0.13271437329512D+03

 The electronic state is 1-A.
 Alpha  occ. eigenvalues --  -14.84211 -10.67328 -10.66291  -1.04236  -0.88979
 Alpha  occ. eigenvalues --   -0.59944  -0.54167  -0.52906  -0.44847  -0.39243
 Alpha  occ. eigenvalues --   -0.39043
 Alpha virt. eigenvalues --    0.03673   0.07536   0.08127   0.10174   0.11385
 Alpha virt. eigenvalues --    0.11612   0.15409   0.16144   0.16853   0.20042
 Alpha virt. eigenvalues --    0.20104   0.25319   0.32634   0.34058   0.34985

 Mulliken charges:
               1
     1  C   -0.081862
     2  C   -0.000147
     3  N   -0.204234
     4  H    0.093172
     5  H    0.094857
     6  H    0.098214
 Sum of Mulliken charges =   0.00000

 Dipole moment (field-independent basis, Debye):
    X=              4.1266    Y=             -0.0297    Z=             -0.0074  Tot=              4.1268
 Quadrupole moment (field-independent basis, Debye-Ang):
   XX=            -20.9145   YY=            -17.7941   ZZ=            -17.7836
   XY=              0.0749   XZ=              0.0239   YZ=             -0.0202

 Normal termination of Gaussian 09 at Thu Aug 27 00:13:23 2020.
