 Gaussian 09, Revision D.01,
 Gaussian 09:  ES64L-G09RevD.01 24-Apr-2013

 --------------------
 #p B2PLYPD3/Def2QZVP
 --------------------

 ------------
 cyanomethane
 ------------
 Symbolic Z-matrix:
 Charge =  0 Multiplicity = 1

                         Standard orientation:
 ---------------------------------------------------------------------
 Center     Atomic      Atomic             Coordinates (Angstroms)
 Number     Number       Type             X           Y           Z
 ---------------------------------------------------------------------
      1          6           0        1.185311   -0.009368    0.029575
      2          6           0       -0.302435    0.015888   -0.057669
      3          7           0       -1.438658   -0.009991    0.036421
      4          1           0        1.718690   -0.312026    0.948297
      5          1           0        1.531523    1.064460   -0.246934
      6          1           0        1.523138   -0.721619   -0.787745
 ---------------------------------------------------------------------

 SCF Done:  E(RB2PLYPD3) =  -132.524327909     A.U. after   12 cycles
 E2(B2PLYPD3) =    -0.1803091413D+00 E(B2PLYPD3) =    -0.13270463705005D+03

 The electronic state is 1-A.
 Alpha  occ. eigenvalues --  -14.84018 -10.68721 -10.66209  -1.04768  -0.87536
 Alpha  occ. eigenvalues --   -0.59575  -0.52444  -0.51869  -0.44877  -0.39486
 Alpha  occ. eigenvalues --   -0.39380
 Alpha virt. eigenvalues --    0.03386   0.06950   0.08039   0.09977   0.11632
 Alpha virt. eigenvalues --    0.11692   0.15291   0.15433   0.17823   0.19974
 Alpha virt. eigenvalues --    0.20328   0.25208   0.32129   0.33271   0.33944

 Mulliken charges:
               1
     1  C   -0.103706
     2  C    0.006366
     3  N   -0.195754
     4  H    0.103676
     5  H    0.094193
     6  H    0.095224
 Sum of Mulliken charges =   0.00000

 Dipole moment (field-independent basis, Debye):
    X=              4.0829    Y=              0.0001    Z=             -0.0567  Tot=              4.0833
 Quadrupole moment (field-independent basis, Debye-Ang):
   XX=            -20.9456   YY=            -17.7867   ZZ=            -17.9220
   XY=             -0.1347   XZ=              0.3534   YZ=             -0.0043

 Normal termination of Gaussian 09 at Wed Aug 26 20:31:22 2020.
