 Gaussian 09, Revision D.01,
 Gaussian 09:  ES64L-G09RevD.01 24-Apr-2013

 --------------------
 #p B2PLYPD3/Def2QZVP
 --------------------

 ------------
 cyanomethane
 ------------
 Symbolic Z-matrix:
 Charge =  0 Multiplicity = 1

                         Standard orientation:
 ---------------------------------------------------------------------
 Center     Atomic      Atomic             Coordinates (Angstroms)
 Number     Number       Type             X           Y           Z
 ---------------------------------------------------------------------
      1          6           0       -1.180596    0.003692   -0.007685
      2          6           0        0.276438    0.000784    0.016987
      3          7           0        1.437902    0.000146   -0.006982
      4          1           0       -1.560951   -0.085961    1.010013
      5          1           0       -1.527750   -0.864308   -0.573653
      6          1           0       -1.551667    0.922395   -0.443295
 ---------------------------------------------------------------------

 SCF Done:  E(RB2PLYPD3) =  -132.534980691     A.U. after   11 cycles
 E2(B2PLYPD3) =    -0.1810663110D+00 E(B2PLYPD3) =    -0.13271604700147D+03

 The electronic state is 1-A.
 Alpha  occ. eigenvalues --  -14.84375 -10.67133 -10.66449  -1.03818  -0.89283
 Alpha  occ. eigenvalues --   -0.59667  -0.54326  -0.53717  -0.44792  -0.38931
 Alpha  occ. eigenvalues --   -0.38827
 Alpha virt. eigenvalues --    0.03751   0.07804   0.07834   0.10167   0.11319
 Alpha virt. eigenvalues --    0.11425   0.15362   0.16054   0.16457   0.20110
 Alpha virt. eigenvalues --    0.20138   0.25351   0.32649   0.34403   0.34832

 Mulliken charges:
               1
     1  C   -0.084586
     2  C   -0.000558
     3  N   -0.209753
     4  H    0.095882
     5  H    0.098878
     6  H    0.100136
 Sum of Mulliken charges =   0.00000

 Dipole moment (field-independent basis, Debye):
    X=             -4.1384    Y=             -0.0051    Z=              0.0172  Tot=              4.1385
 Quadrupole moment (field-independent basis, Debye-Ang):
   XX=            -21.0394   YY=            -17.7064   ZZ=            -17.8195
   XY=             -0.0048   XZ=             -0.0026   YZ=             -0.0088

 Normal termination of Gaussian 09 at Wed Aug 26 22:59:32 2020.
