 Gaussian 09, Revision D.01,
 Gaussian 09:  ES64L-G09RevD.01 24-Apr-2013

 --------------------
 #p B2PLYPD3/Def2QZVP
 --------------------

 ------------
 cyanomethane
 ------------
 Symbolic Z-matrix:
 Charge =  0 Multiplicity = 1

                         Standard orientation:
 ---------------------------------------------------------------------
 Center     Atomic      Atomic             Coordinates (Angstroms)
 Number     Number       Type             X           Y           Z
 ---------------------------------------------------------------------
      1          6           0        1.180003    0.038189   -0.000632
      2          6           0       -0.284135    0.040597   -0.017265
      3          7           0       -1.449360   -0.030349    0.000972
      4          1           0        1.534875    0.984146    0.005544
      5          1           0        1.717245   -0.654888   -0.843467
      6          1           0        1.518193   -0.589530    0.938503
 ---------------------------------------------------------------------

 SCF Done:  E(RB2PLYPD3) =  -132.512993490     A.U. after   12 cycles
 E2(B2PLYPD3) =    -0.1826334349D+00 E(B2PLYPD3) =    -0.13269562692487D+03

 The electronic state is 1-A.
 Alpha  occ. eigenvalues --  -14.84753 -10.68535 -10.66896  -1.03705  -0.88437
 Alpha  occ. eigenvalues --   -0.59901  -0.55447  -0.49882  -0.44985  -0.39138
 Alpha  occ. eigenvalues --   -0.38192
 Alpha virt. eigenvalues --    0.03087   0.05796   0.08207   0.10127   0.10733
 Alpha virt. eigenvalues --    0.12042   0.15190   0.15934   0.17240   0.19893
 Alpha virt. eigenvalues --    0.20338   0.25194   0.31228   0.32205   0.34841

 Mulliken charges:
               1
     1  C   -0.092128
     2  C    0.005962
     3  N   -0.209182
     4  H    0.112908
     5  H    0.089768
     6  H    0.092671
 Sum of Mulliken charges =   0.00000

 Dipole moment (field-independent basis, Debye):
    X=              4.1321    Y=              0.0090    Z=              0.0359  Tot=              4.1323
 Quadrupole moment (field-independent basis, Debye-Ang):
   XX=            -20.9615   YY=            -17.6141   ZZ=            -18.2343
   XY=             -0.3368   XZ=             -0.0438   YZ=             -0.0294

 Normal termination of Gaussian 09 at Wed Aug 26 22:48:10 2020.
