 Gaussian 09, Revision D.01,
 Gaussian 09:  ES64L-G09RevD.01 24-Apr-2013

 --------------------
 #p B2PLYPD3/Def2QZVP
 --------------------

 ------------
 cyanomethane
 ------------
 Symbolic Z-matrix:
 Charge =  0 Multiplicity = 1

                         Standard orientation:
 ---------------------------------------------------------------------
 Center     Atomic      Atomic             Coordinates (Angstroms)
 Number     Number       Type             X           Y           Z
 ---------------------------------------------------------------------
      1          6           0       -1.165636    0.013020   -0.000365
      2          6           0        0.271476    0.002831    0.019004
      3          7           0        1.428978    0.000338   -0.012390
      4          1           0       -1.500558   -0.379648    0.963388
      5          1           0       -1.543478   -0.731931   -0.783443
      6          1           0       -1.593853    1.014108   -0.205050
 ---------------------------------------------------------------------

 SCF Done:  E(RB2PLYPD3) =  -132.531909501     A.U. after   12 cycles
 E2(B2PLYPD3) =    -0.1811497741D+00 E(B2PLYPD3) =    -0.13271305927541D+03

 The electronic state is 1-A.
 Alpha  occ. eigenvalues --  -14.84244 -10.67705 -10.66260  -1.04017  -0.89102
 Alpha  occ. eigenvalues --   -0.59647  -0.54267  -0.52776  -0.44806  -0.38934
 Alpha  occ. eigenvalues --   -0.38641
 Alpha virt. eigenvalues --    0.03589   0.07160   0.07771   0.10108   0.11431
 Alpha virt. eigenvalues --    0.11769   0.15471   0.15728   0.16816   0.20079
 Alpha virt. eigenvalues --    0.20174   0.25698   0.32623   0.33589   0.34707

 Mulliken charges:
               1
     1  C   -0.094116
     2  C    0.001567
     3  N   -0.207779
     4  H    0.100374
     5  H    0.096315
     6  H    0.103638
 Sum of Mulliken charges =   0.00000

 Dipole moment (field-independent basis, Debye):
    X=             -4.1128    Y=             -0.0213    Z=              0.0310  Tot=              4.1129
 Quadrupole moment (field-independent basis, Debye-Ang):
   XX=            -21.1204   YY=            -17.6603   ZZ=            -17.8602
   XY=             -0.0031   XZ=              0.0831   YZ=             -0.0521

 Normal termination of Gaussian 09 at Wed Aug 26 15:51:26 2020.
