 Gaussian 09, Revision D.01,
 Gaussian 09:  ES64L-G09RevD.01 24-Apr-2013

 --------------------
 #p B2PLYPD3/Def2QZVP
 --------------------

 ------------
 cyanomethane
 ------------
 Symbolic Z-matrix:
 Charge =  0 Multiplicity = 1

                         Standard orientation:
 ---------------------------------------------------------------------
 Center     Atomic      Atomic             Coordinates (Angstroms)
 Number     Number       Type             X           Y           Z
 ---------------------------------------------------------------------
      1          6           0        1.189017   -0.015287    0.011798
      2          6           0       -0.286818   -0.029434   -0.000598
      3          7           0       -1.436671    0.020018   -0.001359
      4          1           0        1.586561    0.918725   -0.502403
      5          1           0        1.516198   -0.818798   -0.531430
      6          1           0        1.540743    0.028277    0.976141
 ---------------------------------------------------------------------

 SCF Done:  E(RB2PLYPD3) =  -132.528610569     A.U. after   11 cycles
 E2(B2PLYPD3) =    -0.1799048158D+00 E(B2PLYPD3) =    -0.13270851538483D+03

 The electronic state is 1-A.
 Alpha  occ. eigenvalues --  -14.84113 -10.66470 -10.66197  -1.04231  -0.89633
 Alpha  occ. eigenvalues --   -0.59689  -0.56345  -0.52595  -0.44753  -0.39489
 Alpha  occ. eigenvalues --   -0.39059
 Alpha virt. eigenvalues --    0.03722   0.07858   0.08949   0.10220   0.11036
 Alpha virt. eigenvalues --    0.11621   0.15349   0.16218   0.16586   0.19978
 Alpha virt. eigenvalues --    0.20143   0.25009   0.32519   0.33962   0.36105

 Mulliken charges:
               1
     1  C   -0.076840
     2  C   -0.003326
     3  N   -0.204425
     4  H    0.086016
     5  H    0.099756
     6  H    0.098819
 Sum of Mulliken charges =   0.00000

 Dipole moment (field-independent basis, Debye):
    X=              4.1332    Y=             -0.0277    Z=              0.0041  Tot=              4.1333
 Quadrupole moment (field-independent basis, Debye-Ang):
   XX=            -20.9149   YY=            -17.7666   ZZ=            -17.6888
   XY=              0.1765   XZ=             -0.0168   YZ=              0.1067

 Normal termination of Gaussian 09 at Wed Aug 26 12:36:46 2020.
