 Gaussian 09, Revision D.01,
 Gaussian 09:  ES64L-G09RevD.01 24-Apr-2013

 --------------------
 #p B2PLYPD3/Def2QZVP
 --------------------

 ------------
 cyanomethane
 ------------
 Symbolic Z-matrix:
 Charge =  0 Multiplicity = 1

                         Standard orientation:
 ---------------------------------------------------------------------
 Center     Atomic      Atomic             Coordinates (Angstroms)
 Number     Number       Type             X           Y           Z
 ---------------------------------------------------------------------
      1          6           0        1.170725    0.000812   -0.005873
      2          6           0       -0.275884    0.019740    0.003747
      3          7           0       -1.435264   -0.010180    0.000649
      4          1           0        1.585105   -0.256046    0.971531
      5          1           0        1.555217    0.953863   -0.278194
      6          1           0        1.537477   -0.749866   -0.685118
 ---------------------------------------------------------------------

 SCF Done:  E(RB2PLYPD3) =  -132.534640855     A.U. after   11 cycles
 E2(B2PLYPD3) =    -0.1807978034D+00 E(B2PLYPD3) =    -0.13271543865852D+03

 The electronic state is 1-A.
 Alpha  occ. eigenvalues --  -14.84382 -10.66642 -10.66416  -1.03969  -0.89648
 Alpha  occ. eigenvalues --   -0.60443  -0.54644  -0.53468  -0.44879  -0.39020
 Alpha  occ. eigenvalues --   -0.38876
 Alpha virt. eigenvalues --    0.03805   0.07648   0.08025   0.10152   0.11321
 Alpha virt. eigenvalues --    0.11563   0.15526   0.16427   0.16528   0.20073
 Alpha virt. eigenvalues --    0.20163   0.25563   0.32875   0.34593   0.35105

 Mulliken charges:
               1
     1  C   -0.071836
     2  C    0.000742
     3  N   -0.208686
     4  H    0.090306
     5  H    0.095146
     6  H    0.094328
 Sum of Mulliken charges =   0.00000

 Dipole moment (field-independent basis, Debye):
    X=              4.1435    Y=              0.0066    Z=              0.0019  Tot=              4.1435
 Quadrupole moment (field-independent basis, Debye-Ang):
   XX=            -20.8493   YY=            -17.7166   ZZ=            -17.8488
   XY=             -0.0703   XZ=              0.0473   YZ=              0.0016

 Normal termination of Gaussian 09 at Wed Aug 26 23:58:38 2020.
