 Gaussian 09, Revision D.01,
 Gaussian 09:  ES64L-G09RevD.01 24-Apr-2013

 --------------------
 #p B2PLYPD3/Def2QZVP
 --------------------

 ------------
 cyanomethane
 ------------
 Symbolic Z-matrix:
 Charge =  0 Multiplicity = 1

                         Standard orientation:
 ---------------------------------------------------------------------
 Center     Atomic      Atomic             Coordinates (Angstroms)
 Number     Number       Type             X           Y           Z
 ---------------------------------------------------------------------
      1          6           0        1.180372   -0.009294    0.006222
      2          6           0       -0.285077    0.013394   -0.023746
      3          7           0       -1.434557   -0.003877    0.012385
      4          1           0        1.555865   -0.265787    0.989629
      5          1           0        1.583627    0.992935   -0.255076
      6          1           0        1.530631   -0.724608   -0.716106
 ---------------------------------------------------------------------

 SCF Done:  E(RB2PLYPD3) =  -132.535359407     A.U. after   12 cycles
 E2(B2PLYPD3) =    -0.1801161047D+00 E(B2PLYPD3) =    -0.13271547551196D+03

 The electronic state is 1-A.
 Alpha  occ. eigenvalues --  -14.84102 -10.67206 -10.66178  -1.04287  -0.89021
 Alpha  occ. eigenvalues --   -0.59618  -0.54256  -0.53319  -0.44784  -0.39268
 Alpha  occ. eigenvalues --   -0.39158
 Alpha virt. eigenvalues --    0.03742   0.07808   0.08193   0.10187   0.11407
 Alpha virt. eigenvalues --    0.11541   0.15371   0.16170   0.16646   0.20041
 Alpha virt. eigenvalues --    0.20077   0.25254   0.32646   0.34433   0.34924

 Mulliken charges:
               1
     1  C   -0.084035
     2  C   -0.002009
     3  N   -0.203490
     4  H    0.097841
     5  H    0.093317
     6  H    0.098376
 Sum of Mulliken charges =   0.00000

 Dipole moment (field-independent basis, Debye):
    X=              4.1215    Y=              0.0012    Z=             -0.0160  Tot=              4.1215
 Quadrupole moment (field-independent basis, Debye-Ang):
   XX=            -20.9743   YY=            -17.7618   ZZ=            -17.7436
   XY=              0.0084   XZ=              0.0838   YZ=              0.0264

 Normal termination of Gaussian 09 at Thu Aug 27 00:13:20 2020.
