 Gaussian 09, Revision D.01,
 Gaussian 09:  ES64L-G09RevD.01 24-Apr-2013

 --------------------
 #p B2PLYPD3/Def2QZVP
 --------------------

 ------------
 cyanomethane
 ------------
 Symbolic Z-matrix:
 Charge =  0 Multiplicity = 1

                         Standard orientation:
 ---------------------------------------------------------------------
 Center     Atomic      Atomic             Coordinates (Angstroms)
 Number     Number       Type             X           Y           Z
 ---------------------------------------------------------------------
      1          6           0        1.166265   -0.006924    0.005011
      2          6           0       -0.273418    0.000105   -0.017085
      3          7           0       -1.431579    0.002053    0.005595
      4          1           0        1.581446    1.019828   -0.235256
      5          1           0        1.570090   -0.716891   -0.713469
      6          1           0        1.512435   -0.276392    0.982011
 ---------------------------------------------------------------------

 SCF Done:  E(RB2PLYPD3) =  -132.533800299     A.U. after   12 cycles
 E2(B2PLYPD3) =    -0.1809165796D+00 E(B2PLYPD3) =    -0.13271471687881D+03

 The electronic state is 1-A.
 Alpha  occ. eigenvalues --  -14.84309 -10.67174 -10.66323  -1.04024  -0.89376
 Alpha  occ. eigenvalues --   -0.60135  -0.54246  -0.53244  -0.44853  -0.38943
 Alpha  occ. eigenvalues --   -0.38822
 Alpha virt. eigenvalues --    0.03714   0.07394   0.07846   0.10136   0.11472
 Alpha virt. eigenvalues --    0.11602   0.15522   0.16303   0.16464   0.20099
 Alpha virt. eigenvalues --    0.20131   0.25670   0.32650   0.34211   0.34857

 Mulliken charges:
               1
     1  C   -0.082461
     2  C    0.000832
     3  N   -0.207876
     4  H    0.093695
     5  H    0.096993
     6  H    0.098817
 Sum of Mulliken charges =   0.00000

 Dipole moment (field-independent basis, Debye):
    X=              4.1258    Y=             -0.0157    Z=              0.0073  Tot=              4.1258
 Quadrupole moment (field-independent basis, Debye-Ang):
   XX=            -20.9742   YY=            -17.7484   ZZ=            -17.7979
   XY=              0.0075   XZ=              0.0159   YZ=              0.0113

 Normal termination of Gaussian 09 at Wed Aug 26 09:31:29 2020.
