 Gaussian 09, Revision D.01,
 Gaussian 09:  ES64L-G09RevD.01 24-Apr-2013

 --------------------
 #p B2PLYPD3/Def2QZVP
 --------------------

 ------------
 cyanomethane
 ------------
 Symbolic Z-matrix:
 Charge =  0 Multiplicity = 1

                         Standard orientation:
 ---------------------------------------------------------------------
 Center     Atomic      Atomic             Coordinates (Angstroms)
 Number     Number       Type             X           Y           Z
 ---------------------------------------------------------------------
      1          6           0        1.177029   -0.022903   -0.021697
      2          6           0       -0.298361   -0.016730    0.019417
      3          7           0       -1.441048    0.026480   -0.000700
      4          1           0        1.777000    1.039848   -0.218246
      5          1           0        1.394363   -0.698534   -0.718769
      6          1           0        1.643961   -0.288870    0.955602
 ---------------------------------------------------------------------

 SCF Done:  E(RB2PLYPD3) =  -132.512587617     A.U. after   12 cycles
 E2(B2PLYPD3) =    -0.1803473193D+00 E(B2PLYPD3) =    -0.13269293493647D+03

 The electronic state is 1-A.
 Alpha  occ. eigenvalues --  -14.84151 -10.67897 -10.66280  -1.04706  -0.88733
 Alpha  occ. eigenvalues --   -0.59667  -0.55686  -0.50077  -0.44939  -0.39742
 Alpha  occ. eigenvalues --   -0.39049
 Alpha virt. eigenvalues --    0.03100   0.06491   0.08771   0.10345   0.11192
 Alpha virt. eigenvalues --    0.11972   0.15168   0.16202   0.17544   0.19861
 Alpha virt. eigenvalues --    0.20306   0.25080   0.30976   0.33101   0.35619

 Mulliken charges:
               1
     1  C   -0.089127
     2  C    0.001206
     3  N   -0.197842
     4  H    0.086390
     5  H    0.110400
     6  H    0.088974
 Sum of Mulliken charges =   0.00000

 Dipole moment (field-independent basis, Debye):
    X=              4.1144    Y=             -0.0894    Z=              0.0365  Tot=              4.1155
 Quadrupole moment (field-independent basis, Debye-Ang):
   XX=            -20.6998   YY=            -17.8584   ZZ=            -17.9247
   XY=              0.3126   XZ=              0.2138   YZ=              0.1924

 Normal termination of Gaussian 09 at Wed Aug 26 23:18:39 2020.
