 Gaussian 09, Revision D.01,
 Gaussian 09:  ES64L-G09RevD.01 24-Apr-2013

 --------------------
 #p B2PLYPD3/Def2QZVP
 --------------------

 ------------
 cyanomethane
 ------------
 Symbolic Z-matrix:
 Charge =  0 Multiplicity = 1

                         Standard orientation:
 ---------------------------------------------------------------------
 Center     Atomic      Atomic             Coordinates (Angstroms)
 Number     Number       Type             X           Y           Z
 ---------------------------------------------------------------------
      1          6           0        1.170204   -0.002264    0.006606
      2          6           0       -0.274206    0.007995   -0.010057
      3          7           0       -1.436824   -0.004295    0.004822
      4          1           0        1.555701    1.041531   -0.046037
      5          1           0        1.559828   -0.560594   -0.858470
      6          1           0        1.566253   -0.485256    0.891461
 ---------------------------------------------------------------------

 SCF Done:  E(RB2PLYPD3) =  -132.534046719     A.U. after   11 cycles
 E2(B2PLYPD3) =    -0.1813350706D+00 E(B2PLYPD3) =    -0.13271538178983D+03

 The electronic state is 1-A.
 Alpha  occ. eigenvalues --  -14.84460 -10.67309 -10.66504  -1.03846  -0.89226
 Alpha  occ. eigenvalues --   -0.60151  -0.53800  -0.53466  -0.44881  -0.38842
 Alpha  occ. eigenvalues --   -0.38770
 Alpha virt. eigenvalues --    0.03708   0.07507   0.07535   0.10122   0.11429
 Alpha virt. eigenvalues --    0.11514   0.15470   0.16221   0.16557   0.20109
 Alpha virt. eigenvalues --    0.20153   0.25583   0.32659   0.34259   0.34669

 Mulliken charges:
               1
     1  C   -0.081725
     2  C    0.001618
     3  N   -0.209578
     4  H    0.096651
     5  H    0.095232
     6  H    0.097802
 Sum of Mulliken charges =   0.00000

 Dipole moment (field-independent basis, Debye):
    X=              4.1365    Y=             -0.0081    Z=             -0.0068  Tot=              4.1366
 Quadrupole moment (field-independent basis, Debye-Ang):
   XX=            -20.9632   YY=            -17.7425   ZZ=            -17.8613
   XY=             -0.0633   XZ=              0.0284   YZ=             -0.0151

 Normal termination of Gaussian 09 at Wed Aug 26 21:48:39 2020.
