 Gaussian 09, Revision D.01,
 Gaussian 09:  ES64L-G09RevD.01 24-Apr-2013

 --------------------
 #p B2PLYPD3/Def2QZVP
 --------------------

 ------------
 cyanomethane
 ------------
 Symbolic Z-matrix:
 Charge =  0 Multiplicity = 1

                         Standard orientation:
 ---------------------------------------------------------------------
 Center     Atomic      Atomic             Coordinates (Angstroms)
 Number     Number       Type             X           Y           Z
 ---------------------------------------------------------------------
      1          6           0       -1.172072    0.000000   -0.001640
      2          6           0        0.280116    0.043739    0.001788
      3          7           0        1.447133   -0.035605   -0.002987
      4          1           0       -1.450090    0.921577   -0.408656
      5          1           0       -1.574276   -0.088661    0.974454
      6          1           0       -1.753831   -0.846122   -0.545773
 ---------------------------------------------------------------------

 SCF Done:  E(RB2PLYPD3) =  -132.522566993     A.U. after   13 cycles
 E2(B2PLYPD3) =    -0.1822357957D+00 E(B2PLYPD3) =    -0.13270480278827D+03

 The electronic state is 1-A.
 Alpha  occ. eigenvalues --  -14.84853 -10.67021 -10.66937  -1.03695  -0.89469
 Alpha  occ. eigenvalues --   -0.60915  -0.54980  -0.51698  -0.45069  -0.38868
 Alpha  occ. eigenvalues --   -0.38632
 Alpha virt. eigenvalues --    0.03375   0.06559   0.08274   0.09940   0.11159
 Alpha virt. eigenvalues --    0.11686   0.15274   0.15949   0.17697   0.20027
 Alpha virt. eigenvalues --    0.20550   0.25613   0.32284   0.34044   0.35102

 Mulliken charges:
               1
     1  C   -0.072261
     2  C    0.007512
     3  N   -0.211399
     4  H    0.096883
     5  H    0.091096
     6  H    0.088169
 Sum of Mulliken charges =   0.00000

 Dipole moment (field-independent basis, Debye):
    X=             -4.1580    Y=              0.0715    Z=              0.0472  Tot=              4.1589
 Quadrupole moment (field-independent basis, Debye-Ang):
   XX=            -20.6299   YY=            -17.8141   ZZ=            -18.0410
   XY=              0.3586   XZ=             -0.0529   YZ=             -0.1044

 Normal termination of Gaussian 09 at Wed Aug 26 20:19:59 2020.
