 Gaussian 09, Revision D.01,
 Gaussian 09:  ES64L-G09RevD.01 24-Apr-2013

 --------------------
 #p B2PLYPD3/Def2QZVP
 --------------------

 ------------
 cyanomethane
 ------------
 Symbolic Z-matrix:
 Charge =  0 Multiplicity = 1

                         Standard orientation:
 ---------------------------------------------------------------------
 Center     Atomic      Atomic             Coordinates (Angstroms)
 Number     Number       Type             X           Y           Z
 ---------------------------------------------------------------------
      1          6           0        1.183833   -0.012904   -0.015201
      2          6           0       -0.283908   -0.006168   -0.028280
      3          7           0       -1.441287    0.006765    0.022096
      4          1           0        1.488492   -0.690841   -0.715784
      5          1           0        1.627147   -0.283248    1.022031
      6          1           0        1.573822    1.041161   -0.200041
 ---------------------------------------------------------------------

 SCF Done:  E(RB2PLYPD3) =  -132.526117833     A.U. after   12 cycles
 E2(B2PLYPD3) =    -0.1811829457D+00 E(B2PLYPD3) =    -0.13270730077822D+03

 The electronic state is 1-A.
 Alpha  occ. eigenvalues --  -14.84380 -10.67737 -10.66471  -1.03972  -0.88838
 Alpha  occ. eigenvalues --   -0.59408  -0.55388  -0.51589  -0.44832  -0.39203
 Alpha  occ. eigenvalues --   -0.38737
 Alpha virt. eigenvalues --    0.03471   0.06842   0.08486   0.10170   0.11032
 Alpha virt. eigenvalues --    0.11732   0.15271   0.16104   0.16619   0.19979
 Alpha virt. eigenvalues --    0.20198   0.25163   0.32182   0.33209   0.35131

 Mulliken charges:
               1
     1  C   -0.090474
     2  C    0.000074
     3  N   -0.206739
     4  H    0.108325
     5  H    0.092370
     6  H    0.096443
 Sum of Mulliken charges =   0.00000

 Dipole moment (field-independent basis, Debye):
    X=              4.1240    Y=             -0.0062    Z=             -0.0286  Tot=              4.1241
 Quadrupole moment (field-independent basis, Debye-Ang):
   XX=            -21.0308   YY=            -17.7570   ZZ=            -17.8512
   XY=              0.0848   XZ=              0.2341   YZ=              0.1289

 Normal termination of Gaussian 09 at Wed Aug 26 12:51:37 2020.
