 Gaussian 09, Revision D.01,
 Gaussian 09:  ES64L-G09RevD.01 24-Apr-2013

 --------------------
 #p B2PLYPD3/Def2QZVP
 --------------------

 ------------
 cyanomethane
 ------------
 Symbolic Z-matrix:
 Charge =  0 Multiplicity = 1

                         Standard orientation:
 ---------------------------------------------------------------------
 Center     Atomic      Atomic             Coordinates (Angstroms)
 Number     Number       Type             X           Y           Z
 ---------------------------------------------------------------------
      1          6           0       -1.167679    0.029369   -0.016344
      2          6           0        0.279340    0.038221    0.005435
      3          7           0        1.440979   -0.033164    0.001968
      4          1           0       -1.462935    1.049719   -0.022605
      5          1           0       -1.677813   -0.570974    0.914938
      6          1           0       -1.616067   -0.652139   -0.840656
 ---------------------------------------------------------------------

 SCF Done:  E(RB2PLYPD3) =  -132.516105420     A.U. after   12 cycles
 E2(B2PLYPD3) =    -0.1825179591D+00 E(B2PLYPD3) =    -0.13269862337864D+03

 The electronic state is 1-A.
 Alpha  occ. eigenvalues --  -14.84616 -10.68706 -10.66660  -1.03878  -0.88406
 Alpha  occ. eigenvalues --   -0.59618  -0.55389  -0.49789  -0.44975  -0.39062
 Alpha  occ. eigenvalues --   -0.38172
 Alpha virt. eigenvalues --    0.03117   0.05716   0.07892   0.10041   0.10944
 Alpha virt. eigenvalues --    0.12189   0.15107   0.16537   0.16726   0.19845
 Alpha virt. eigenvalues --    0.20357   0.25537   0.31383   0.32608   0.35006

 Mulliken charges:
               1
     1  C   -0.090815
     2  C    0.003772
     3  N   -0.207344
     4  H    0.111562
     5  H    0.085511
     6  H    0.097314
 Sum of Mulliken charges =   0.00000

 Dipole moment (field-independent basis, Debye):
    X=             -4.1138    Y=              0.0041    Z=             -0.0125  Tot=              4.1138
 Quadrupole moment (field-independent basis, Debye-Ang):
   XX=            -21.0082   YY=            -17.5092   ZZ=            -18.3039
   XY=              0.4738   XZ=             -0.0502   YZ=              0.0597

 Normal termination of Gaussian 09 at Wed Aug 26 19:30:59 2020.
