 Gaussian 09, Revision D.01,
 Gaussian 09:  ES64L-G09RevD.01 24-Apr-2013

 --------------------
 #p B2PLYPD3/Def2QZVP
 --------------------

 ------------
 cyanomethane
 ------------
 Symbolic Z-matrix:
 Charge =  0 Multiplicity = 1

                         Standard orientation:
 ---------------------------------------------------------------------
 Center     Atomic      Atomic             Coordinates (Angstroms)
 Number     Number       Type             X           Y           Z
 ---------------------------------------------------------------------
      1          6           0       -1.178732    0.020560    0.018943
      2          6           0        0.313173   -0.040626   -0.059104
      3          7           0        1.435682    0.008397    0.026912
      4          1           0       -1.489609    1.068706   -0.261871
      5          1           0       -1.615543   -0.253266    0.996055
      6          1           0       -1.751266   -0.753825   -0.681597
 ---------------------------------------------------------------------

 SCF Done:  E(RB2PLYPD3) =  -132.523533189     A.U. after   12 cycles
 E2(B2PLYPD3) =    -0.1792018245D+00 E(B2PLYPD3) =    -0.13270273501333D+03

 The electronic state is 1-A.
 Alpha  occ. eigenvalues --  -14.83719 -10.68902 -10.65902  -1.05383  -0.87160
 Alpha  occ. eigenvalues --   -0.59413  -0.53102  -0.50672  -0.44900  -0.40044
 Alpha  occ. eigenvalues --   -0.39674
 Alpha virt. eigenvalues --    0.03384   0.07102   0.07975   0.10250   0.11645
 Alpha virt. eigenvalues --    0.11920   0.15089   0.16677   0.17266   0.19803
 Alpha virt. eigenvalues --    0.19981   0.25058   0.31465   0.33982   0.34329

 Mulliken charges:
               1
     1  C   -0.093831
     2  C    0.001448
     3  N   -0.186971
     4  H    0.099806
     5  H    0.096694
     6  H    0.082853
 Sum of Mulliken charges =   0.00000

 Dipole moment (field-independent basis, Debye):
    X=             -4.0719    Y=             -0.0166    Z=             -0.0035  Tot=              4.0720
 Quadrupole moment (field-independent basis, Debye-Ang):
   XX=            -20.7782   YY=            -17.6948   ZZ=            -18.0543
   XY=              0.1473   XZ=             -0.2255   YZ=             -0.1129

 Normal termination of Gaussian 09 at Wed Aug 26 19:50:20 2020.
