 Gaussian 09, Revision D.01,
 Gaussian 09:  ES64L-G09RevD.01 24-Apr-2013

 --------------------
 #p B2PLYPD3/Def2QZVP
 --------------------

 ------------
 cyanomethane
 ------------
 Symbolic Z-matrix:
 Charge =  0 Multiplicity = 1

                         Standard orientation:
 ---------------------------------------------------------------------
 Center     Atomic      Atomic             Coordinates (Angstroms)
 Number     Number       Type             X           Y           Z
 ---------------------------------------------------------------------
      1          6           0       -1.193485    0.015782   -0.001205
      2          6           0        0.292522   -0.019315   -0.038046
      3          7           0        1.436410    0.008294    0.020588
      4          1           0       -1.545777    1.024994    0.066722
      5          1           0       -1.555922   -0.565776    0.884391
      6          1           0       -1.547392   -0.496078   -0.859718
 ---------------------------------------------------------------------

 SCF Done:  E(RB2PLYPD3) =  -132.533799083     A.U. after   11 cycles
 E2(B2PLYPD3) =    -0.1797005676D+00 E(B2PLYPD3) =    -0.13271349965050D+03

 The electronic state is 1-A.
 Alpha  occ. eigenvalues --  -14.83954 -10.67227 -10.66064  -1.04397  -0.88848
 Alpha  occ. eigenvalues --   -0.59020  -0.54985  -0.52959  -0.44696  -0.39523
 Alpha  occ. eigenvalues --   -0.39255
 Alpha virt. eigenvalues --    0.03689   0.07982   0.08652   0.10209   0.11207
 Alpha virt. eigenvalues --    0.11565   0.15219   0.15904   0.16785   0.19959
 Alpha virt. eigenvalues --    0.20087   0.24926   0.32590   0.34076   0.35366

 Mulliken charges:
               1
     1  C   -0.087784
     2  C   -0.004765
     3  N   -0.201154
     4  H    0.102507
     5  H    0.093182
     6  H    0.098014
 Sum of Mulliken charges =   0.00000

 Dipole moment (field-independent basis, Debye):
    X=             -4.1202    Y=             -0.0273    Z=             -0.0319  Tot=              4.1204
 Quadrupole moment (field-independent basis, Debye-Ang):
   XX=            -21.0276   YY=            -17.6243   ZZ=            -17.8220
   XY=              0.0007   XZ=             -0.1248   YZ=              0.0472

 Normal termination of Gaussian 09 at Wed Aug 26 15:29:06 2020.
