 Gaussian 09, Revision D.01,
 Gaussian 09:  ES64L-G09RevD.01 24-Apr-2013

 --------------------
 #p B2PLYPD3/Def2QZVP
 --------------------

 ------------
 cyanomethane
 ------------
 Symbolic Z-matrix:
 Charge =  0 Multiplicity = 1

                         Standard orientation:
 ---------------------------------------------------------------------
 Center     Atomic      Atomic             Coordinates (Angstroms)
 Number     Number       Type             X           Y           Z
 ---------------------------------------------------------------------
      1          6           0       -1.162482   -0.012014    0.009164
      2          6           0        0.286851   -0.010232   -0.035331
      3          7           0        1.421755    0.008275    0.013373
      4          1           0       -1.587607    1.053100   -0.011693
      5          1           0       -1.503219   -0.461613    0.897711
      6          1           0       -1.607675   -0.515939   -0.822629
 ---------------------------------------------------------------------

 SCF Done:  E(RB2PLYPD3) =  -132.533011804     A.U. after   11 cycles
 E2(B2PLYPD3) =    -0.1789799102D+00 E(B2PLYPD3) =    -0.13271199171401D+03

 The electronic state is 1-A.
 Alpha  occ. eigenvalues --  -14.83743 -10.66914 -10.65748  -1.04939  -0.89249
 Alpha  occ. eigenvalues --   -0.60290  -0.54570  -0.52626  -0.44819  -0.39652
 Alpha  occ. eigenvalues --   -0.39375
 Alpha virt. eigenvalues --    0.03711   0.07735   0.08445   0.10201   0.11602
 Alpha virt. eigenvalues --    0.11888   0.15559   0.16631   0.16750   0.19947
 Alpha virt. eigenvalues --    0.20043   0.25598   0.32770   0.34113   0.35432

 Mulliken charges:
               1
     1  C   -0.077631
     2  C   -0.002016
     3  N   -0.195849
     4  H    0.087094
     5  H    0.096764
     6  H    0.091639
 Sum of Mulliken charges =   0.00000

 Dipole moment (field-independent basis, Debye):
    X=             -4.0942    Y=             -0.0305    Z=             -0.0147  Tot=              4.0944
 Quadrupole moment (field-independent basis, Debye-Ang):
   XX=            -20.8189   YY=            -17.7436   ZZ=            -17.7279
   XY=             -0.0423   XZ=             -0.0207   YZ=             -0.0203

 Normal termination of Gaussian 09 at Wed Aug 26 10:31:29 2020.
