 Gaussian 09, Revision D.01,
 Gaussian 09:  ES64L-G09RevD.01 24-Apr-2013

 --------------------
 #p B2PLYPD3/Def2QZVP
 --------------------

 ------------
 cyanomethane
 ------------
 Symbolic Z-matrix:
 Charge =  0 Multiplicity = 1

                         Standard orientation:
 ---------------------------------------------------------------------
 Center     Atomic      Atomic             Coordinates (Angstroms)
 Number     Number       Type             X           Y           Z
 ---------------------------------------------------------------------
      1          6           0        1.176035   -0.016173    0.003298
      2          6           0       -0.280867   -0.005545   -0.002752
      3          7           0       -1.436874    0.007580    0.002701
      4          1           0        1.517820   -0.824654   -0.590050
      5          1           0        1.581206   -0.058450    1.012808
      6          1           0        1.588084    0.960350   -0.444946
 ---------------------------------------------------------------------

 SCF Done:  E(RB2PLYPD3) =  -132.532433763     A.U. after   11 cycles
 E2(B2PLYPD3) =    -0.1807780519D+00 E(B2PLYPD3) =    -0.13271321181518D+03

 The electronic state is 1-A.
 Alpha  occ. eigenvalues --  -14.84287 -10.67418 -10.66359  -1.04085  -0.89033
 Alpha  occ. eigenvalues --   -0.59829  -0.54820  -0.52385  -0.44840  -0.39178
 Alpha  occ. eigenvalues --   -0.38848
 Alpha virt. eigenvalues --    0.03649   0.07308   0.08127   0.10170   0.11273
 Alpha virt. eigenvalues --    0.11686   0.15385   0.16265   0.16578   0.20032
 Alpha virt. eigenvalues --    0.20147   0.25345   0.32402   0.33787   0.35231

 Mulliken charges:
               1
     1  C   -0.084367
     2  C    0.000010
     3  N   -0.206169
     4  H    0.102100
     5  H    0.097893
     6  H    0.090533
 Sum of Mulliken charges =   0.00000

 Dipole moment (field-independent basis, Debye):
    X=              4.1277    Y=             -0.0135    Z=              0.0005  Tot=              4.1278
 Quadrupole moment (field-independent basis, Debye-Ang):
   XX=            -20.9733   YY=            -17.7951   ZZ=            -17.7833
   XY=              0.0963   XZ=              0.0512   YZ=              0.0833

 Normal termination of Gaussian 09 at Wed Aug 26 09:34:00 2020.
