 Gaussian 09, Revision D.01,
 Gaussian 09:  ES64L-G09RevD.01 24-Apr-2013

 --------------------
 #p B2PLYPD3/Def2QZVP
 --------------------

 ------------
 cyanomethane
 ------------
 Symbolic Z-matrix:
 Charge =  0 Multiplicity = 1

                         Standard orientation:
 ---------------------------------------------------------------------
 Center     Atomic      Atomic             Coordinates (Angstroms)
 Number     Number       Type             X           Y           Z
 ---------------------------------------------------------------------
      1          6           0        1.178122    0.022655   -0.015607
      2          6           0       -0.296602    0.038632   -0.037131
      3          7           0       -1.442857   -0.032185    0.030459
      4          1           0        1.759883   -0.360548    0.980447
      5          1           0        1.459560    0.978739   -0.170262
      6          1           0        1.591434   -0.760618   -0.706965
 ---------------------------------------------------------------------

 SCF Done:  E(RB2PLYPD3) =  -132.513975582     A.U. after   12 cycles
 E2(B2PLYPD3) =    -0.1810505859D+00 E(B2PLYPD3) =    -0.13269502616815D+03

 The electronic state is 1-A.
 Alpha  occ. eigenvalues --  -14.84374 -10.67953 -10.66458  -1.04439  -0.88577
 Alpha  occ. eigenvalues --   -0.59766  -0.56119  -0.49629  -0.44993  -0.39640
 Alpha  occ. eigenvalues --   -0.38734
 Alpha virt. eigenvalues --    0.03016   0.06277   0.08796   0.10090   0.10888
 Alpha virt. eigenvalues --    0.12077   0.15267   0.16394   0.17335   0.19777
 Alpha virt. eigenvalues --    0.20372   0.25183   0.31396   0.32995   0.35542

 Mulliken charges:
               1
     1  C   -0.084524
     2  C    0.002238
     3  N   -0.200157
     4  H    0.080268
     5  H    0.107332
     6  H    0.094843
 Sum of Mulliken charges =   0.00000

 Dipole moment (field-independent basis, Debye):
    X=              4.1106    Y=              0.0255    Z=             -0.0613  Tot=              4.1111
 Quadrupole moment (field-independent basis, Debye-Ang):
   XX=            -20.7298   YY=            -17.5753   ZZ=            -18.2513
   XY=             -0.4047   XZ=              0.3029   YZ=              0.0382

 Normal termination of Gaussian 09 at Wed Aug 26 21:18:49 2020.
