 Gaussian 09, Revision D.01,
 Gaussian 09:  ES64L-G09RevD.01 24-Apr-2013

 --------------------
 #p B2PLYPD3/Def2QZVP
 --------------------

 ------------
 cyanomethane
 ------------
 Symbolic Z-matrix:
 Charge =  0 Multiplicity = 1

                         Standard orientation:
 ---------------------------------------------------------------------
 Center     Atomic      Atomic             Coordinates (Angstroms)
 Number     Number       Type             X           Y           Z
 ---------------------------------------------------------------------
      1          6           0        1.169110   -0.013389    0.000251
      2          6           0       -0.278688    0.024003    0.005274
      3          7           0       -1.440009   -0.012277   -0.007036
      4          1           0        1.578864    1.007617   -0.254275
      5          1           0        1.632329   -0.722657   -0.708542
      6          1           0        1.526340   -0.262703    0.978921
 ---------------------------------------------------------------------

 SCF Done:  E(RB2PLYPD3) =  -132.532333218     A.U. after   12 cycles
 E2(B2PLYPD3) =    -0.1813896933D+00 E(B2PLYPD3) =    -0.13271372291153D+03

 The electronic state is 1-A.
 Alpha  occ. eigenvalues --  -14.84534 -10.67390 -10.66598  -1.03930  -0.89072
 Alpha  occ. eigenvalues --   -0.60448  -0.53826  -0.52824  -0.44962  -0.38947
 Alpha  occ. eigenvalues --   -0.38806
 Alpha virt. eigenvalues --    0.03662   0.07113   0.07735   0.10095   0.11443
 Alpha virt. eigenvalues --    0.11550   0.15495   0.16059   0.17084   0.20096
 Alpha virt. eigenvalues --    0.20173   0.25581   0.32525   0.34140   0.34824

 Mulliken charges:
               1
     1  C   -0.077582
     2  C    0.003640
     3  N   -0.208436
     4  H    0.090781
     5  H    0.094914
     6  H    0.096683
 Sum of Mulliken charges =   0.00000

 Dipole moment (field-independent basis, Debye):
    X=              4.1390    Y=              0.0120    Z=              0.0273  Tot=              4.1391
 Quadrupole moment (field-independent basis, Debye-Ang):
   XX=            -20.8353   YY=            -17.8391   ZZ=            -17.8629
   XY=             -0.0939   XZ=             -0.0716   YZ=             -0.0027

 Normal termination of Gaussian 09 at Wed Aug 26 11:02:39 2020.
