 Gaussian 09, Revision D.01,
 Gaussian 09:  ES64L-G09RevD.01 24-Apr-2013

 --------------------
 #p B2PLYPD3/Def2QZVP
 --------------------

 ------------
 cyanomethane
 ------------
 Symbolic Z-matrix:
 Charge =  0 Multiplicity = 1

                         Standard orientation:
 ---------------------------------------------------------------------
 Center     Atomic      Atomic             Coordinates (Angstroms)
 Number     Number       Type             X           Y           Z
 ---------------------------------------------------------------------
      1          6           0       -1.188806   -0.010831    0.013321
      2          6           0        0.290575    0.007414   -0.036949
      3          7           0        1.430307   -0.001197    0.018631
      4          1           0       -1.545663   -0.073806    0.976435
      5          1           0       -1.519269   -0.837826   -0.552431
      6          1           0       -1.557823    0.940518   -0.412655
 ---------------------------------------------------------------------

 SCF Done:  E(RB2PLYPD3) =  -132.532631496     A.U. after   11 cycles
 E2(B2PLYPD3) =    -0.1790402705D+00 E(B2PLYPD3) =    -0.13271167176688D+03

 The electronic state is 1-A.
 Alpha  occ. eigenvalues --  -14.83799 -10.66496 -10.65875  -1.04596  -0.89444
 Alpha  occ. eigenvalues --   -0.59577  -0.55020  -0.53689  -0.44682  -0.39603
 Alpha  occ. eigenvalues --   -0.39438
 Alpha virt. eigenvalues --    0.03865   0.08334   0.08774   0.10201   0.11346
 Alpha virt. eigenvalues --    0.11552   0.15365   0.16073   0.16703   0.19993
 Alpha virt. eigenvalues --    0.20048   0.25043   0.32722   0.34600   0.35489

 Mulliken charges:
               1
     1  C   -0.080371
     2  C   -0.005500
     3  N   -0.199541
     4  H    0.096237
     5  H    0.097414
     6  H    0.091762
 Sum of Mulliken charges =   0.00000

 Dipole moment (field-independent basis, Debye):
    X=             -4.1121    Y=             -0.0025    Z=             -0.0098  Tot=              4.1121
 Quadrupole moment (field-independent basis, Debye-Ang):
   XX=            -20.9650   YY=            -17.6058   ZZ=            -17.7507
   XY=             -0.0129   XZ=             -0.1597   YZ=              0.0404

 Normal termination of Gaussian 09 at Wed Aug 26 14:39:15 2020.
