 Gaussian 09, Revision D.01,
 Gaussian 09:  ES64L-G09RevD.01 24-Apr-2013

 --------------------
 #p B2PLYPD3/Def2QZVP
 --------------------

 ------------
 cyanomethane
 ------------
 Symbolic Z-matrix:
 Charge =  0 Multiplicity = 1

                         Standard orientation:
 ---------------------------------------------------------------------
 Center     Atomic      Atomic             Coordinates (Angstroms)
 Number     Number       Type             X           Y           Z
 ---------------------------------------------------------------------
      1          6           0       -1.171997    0.009027    0.011781
      2          6           0        0.282196    0.002697    0.027008
      3          7           0        1.437803    0.000624   -0.016670
      4          1           0       -1.546647   -0.407858    0.912347
      5          1           0       -1.560608   -0.672265   -0.837503
      6          1           0       -1.618555    1.005416   -0.190884
 ---------------------------------------------------------------------

 SCF Done:  E(RB2PLYPD3) =  -132.531117529     A.U. after   12 cycles
 E2(B2PLYPD3) =    -0.1809970981D+00 E(B2PLYPD3) =    -0.13271211462658D+03

 The electronic state is 1-A.
 Alpha  occ. eigenvalues --  -14.84359 -10.67657 -10.66432  -1.04117  -0.88835
 Alpha  occ. eigenvalues --   -0.60044  -0.54436  -0.52050  -0.44907  -0.39191
 Alpha  occ. eigenvalues --   -0.38797
 Alpha virt. eigenvalues --    0.03549   0.07075   0.08003   0.10142   0.11274
 Alpha virt. eigenvalues --    0.11772   0.15429   0.16149   0.16929   0.20016
 Alpha virt. eigenvalues --    0.20160   0.25428   0.32473   0.33441   0.35145

 Mulliken charges:
               1
     1  C   -0.083693
     2  C    0.002050
     3  N   -0.205577
     4  H    0.099901
     5  H    0.089700
     6  H    0.097619
 Sum of Mulliken charges =   0.00000

 Dipole moment (field-independent basis, Debye):
    X=             -4.1264    Y=             -0.0148    Z=              0.0243  Tot=              4.1265
 Quadrupole moment (field-independent basis, Debye-Ang):
   XX=            -20.9093   YY=            -17.8010   ZZ=            -17.8550
   XY=             -0.0148   XZ=              0.1223   YZ=             -0.0904

 Normal termination of Gaussian 09 at Wed Aug 26 16:00:40 2020.
