 Gaussian 09, Revision D.01,
 Gaussian 09:  ES64L-G09RevD.01 24-Apr-2013

 --------------------
 #p B2PLYPD3/Def2QZVP
 --------------------

 ------------
 cyanomethane
 ------------
 Symbolic Z-matrix:
 Charge =  0 Multiplicity = 1

                         Standard orientation:
 ---------------------------------------------------------------------
 Center     Atomic      Atomic             Coordinates (Angstroms)
 Number     Number       Type             X           Y           Z
 ---------------------------------------------------------------------
      1          6           0        1.183939    0.001512   -0.009471
      2          6           0       -0.301267    0.025045   -0.062349
      3          7           0       -1.439094   -0.011785    0.042066
      4          1           0        1.679818   -0.461879    0.942049
      5          1           0        1.607625    1.003954   -0.031151
      6          1           0        1.490184   -0.618917   -0.774438
 ---------------------------------------------------------------------

 SCF Done:  E(RB2PLYPD3) =  -132.524918825     A.U. after   12 cycles
 E2(B2PLYPD3) =    -0.1799657688D+00 E(B2PLYPD3) =    -0.13270488459359D+03

 The electronic state is 1-A.
 Alpha  occ. eigenvalues --  -14.84129 -10.67482 -10.66222  -1.04675  -0.88561
 Alpha  occ. eigenvalues --   -0.59696  -0.55378  -0.50959  -0.44920  -0.39779
 Alpha  occ. eigenvalues --   -0.39222
 Alpha virt. eigenvalues --    0.03302   0.07137   0.08906   0.10139   0.11085
 Alpha virt. eigenvalues --    0.11801   0.15397   0.16180   0.17321   0.19856
 Alpha virt. eigenvalues --    0.20195   0.25142   0.32323   0.33443   0.35689

 Mulliken charges:
               1
     1  C   -0.080688
     2  C    0.000095
     3  N   -0.197094
     4  H    0.082604
     5  H    0.095382
     6  H    0.099701
 Sum of Mulliken charges =   0.00000

 Dipole moment (field-independent basis, Debye):
    X=              4.1045    Y=              0.0066    Z=             -0.0720  Tot=              4.1051
 Quadrupole moment (field-independent basis, Debye-Ang):
   XX=            -20.7370   YY=            -17.7081   ZZ=            -17.9701
   XY=             -0.0724   XZ=              0.3773   YZ=              0.1454

 Normal termination of Gaussian 09 at Wed Aug 26 20:00:46 2020.
