 Gaussian 09, Revision D.01,
 Gaussian 09:  ES64L-G09RevD.01 24-Apr-2013

 --------------------
 #p B2PLYPD3/Def2QZVP
 --------------------

 ------------
 cyanomethane
 ------------
 Symbolic Z-matrix:
 Charge =  0 Multiplicity = 1

                         Standard orientation:
 ---------------------------------------------------------------------
 Center     Atomic      Atomic             Coordinates (Angstroms)
 Number     Number       Type             X           Y           Z
 ---------------------------------------------------------------------
      1          6           0        1.179651    0.003430   -0.007681
      2          6           0       -0.265963   -0.011832    0.034024
      3          7           0       -1.433148    0.011141   -0.018017
      4          1           0        1.495024   -0.094597    0.998765
      5          1           0        1.588074    0.921438   -0.440460
      6          1           0        1.466812   -0.854419   -0.590243
 ---------------------------------------------------------------------

 SCF Done:  E(RB2PLYPD3) =  -132.531938583     A.U. after   12 cycles
 E2(B2PLYPD3) =    -0.1815737236D+00 E(B2PLYPD3) =    -0.13271351230687D+03

 The electronic state is 1-A.
 Alpha  occ. eigenvalues --  -14.84449 -10.66696 -10.66484  -1.03538  -0.89908
 Alpha  occ. eigenvalues --   -0.59527  -0.55078  -0.54210  -0.44729  -0.38632
 Alpha  occ. eigenvalues --   -0.38610
 Alpha virt. eigenvalues --    0.03756   0.07505   0.08292   0.10094   0.11248
 Alpha virt. eigenvalues --    0.11363   0.15379   0.15476   0.16621   0.20169
 Alpha virt. eigenvalues --    0.20209   0.25589   0.32815   0.34652   0.34701

 Mulliken charges:
               1
     1  C   -0.088612
     2  C   -0.000043
     3  N   -0.214670
     4  H    0.100699
     5  H    0.100036
     6  H    0.102590
 Sum of Mulliken charges =   0.00000

 Dipole moment (field-independent basis, Debye):
    X=              4.1336    Y=             -0.0234    Z=              0.0315  Tot=              4.1337
 Quadrupole moment (field-independent basis, Debye-Ang):
   XX=            -21.1655   YY=            -17.6994   ZZ=            -17.7306
   XY=              0.1343   XZ=             -0.0915   YZ=              0.0166

 Normal termination of Gaussian 09 at Wed Aug 26 15:36:10 2020.
