 Gaussian 09, Revision D.01,
 Gaussian 09:  ES64L-G09RevD.01 24-Apr-2013

 --------------------
 #p B2PLYPD3/Def2QZVP
 --------------------

 ------------
 cyanomethane
 ------------
 Symbolic Z-matrix:
 Charge =  0 Multiplicity = 1

                         Standard orientation:
 ---------------------------------------------------------------------
 Center     Atomic      Atomic             Coordinates (Angstroms)
 Number     Number       Type             X           Y           Z
 ---------------------------------------------------------------------
      1          6           0        1.178736   -0.001112   -0.006661
      2          6           0       -0.282955    0.020447   -0.002013
      3          7           0       -1.427776   -0.007029    0.000226
      4          1           0        1.533448   -0.540869   -0.864508
      5          1           0        1.497683   -0.534746    0.900780
      6          1           0        1.588611    1.008808    0.014191
 ---------------------------------------------------------------------

 SCF Done:  E(RB2PLYPD3) =  -132.535979575     A.U. after   11 cycles
 E2(B2PLYPD3) =    -0.1796247966D+00 E(B2PLYPD3) =    -0.13271560437149D+03

 The electronic state is 1-A.
 Alpha  occ. eigenvalues --  -14.83871 -10.67098 -10.65931  -1.04450  -0.89176
 Alpha  occ. eigenvalues --   -0.59385  -0.54358  -0.53673  -0.44696  -0.39359
 Alpha  occ. eigenvalues --   -0.39195
 Alpha virt. eigenvalues --    0.03776   0.08119   0.08227   0.10215   0.11449
 Alpha virt. eigenvalues --    0.11650   0.15377   0.16077   0.16554   0.20023
 Alpha virt. eigenvalues --    0.20084   0.25277   0.32796   0.34279   0.35046

 Mulliken charges:
               1
     1  C   -0.088717
     2  C   -0.004096
     3  N   -0.201673
     4  H    0.099727
     5  H    0.096975
     6  H    0.097784
 Sum of Mulliken charges =   0.00000

 Dipole moment (field-independent basis, Debye):
    X=              4.1102    Y=             -0.0020    Z=              0.0056  Tot=              4.1103
 Quadrupole moment (field-independent basis, Debye-Ang):
   XX=            -21.0608   YY=            -17.6713   ZZ=            -17.7270
   XY=             -0.0069   XZ=             -0.0097   YZ=              0.0255

 Normal termination of Gaussian 09 at Wed Aug 26 10:16:50 2020.
