 Gaussian 09, Revision D.01,
 Gaussian 09:  ES64L-G09RevD.01 24-Apr-2013

 --------------------
 #p B2PLYPD3/Def2QZVP
 --------------------

 ------------
 cyanomethane
 ------------
 Symbolic Z-matrix:
 Charge =  0 Multiplicity = 1

                         Standard orientation:
 ---------------------------------------------------------------------
 Center     Atomic      Atomic             Coordinates (Angstroms)
 Number     Number       Type             X           Y           Z
 ---------------------------------------------------------------------
      1          6           0       -1.166003   -0.003621    0.003329
      2          6           0        0.273868    0.024460   -0.002954
      3          7           0        1.430993   -0.013216   -0.001356
      4          1           0       -1.545808    1.023142   -0.042668
      5          1           0       -1.528373   -0.487389    0.895065
      6          1           0       -1.589955   -0.568274   -0.845157
 ---------------------------------------------------------------------

 SCF Done:  E(RB2PLYPD3) =  -132.534588765     A.U. after   11 cycles
 E2(B2PLYPD3) =    -0.1808137154D+00 E(B2PLYPD3) =    -0.13271540248011D+03

 The electronic state is 1-A.
 Alpha  occ. eigenvalues --  -14.84297 -10.67020 -10.66305  -1.04053  -0.89446
 Alpha  occ. eigenvalues --   -0.60235  -0.54249  -0.53380  -0.44858  -0.38948
 Alpha  occ. eigenvalues --   -0.38875
 Alpha virt. eigenvalues --    0.03745   0.07494   0.07874   0.10118   0.11441
 Alpha virt. eigenvalues --    0.11621   0.15537   0.16202   0.16642   0.20064
 Alpha virt. eigenvalues --    0.20162   0.25693   0.32852   0.34452   0.34739

 Mulliken charges:
               1
     1  C   -0.079732
     2  C    0.000689
     3  N   -0.207607
     4  H    0.096079
     5  H    0.096986
     6  H    0.093586
 Sum of Mulliken charges =   0.00000

 Dipole moment (field-independent basis, Debye):
    X=             -4.1266    Y=              0.0067    Z=              0.0086  Tot=              4.1266
 Quadrupole moment (field-independent basis, Debye-Ang):
   XX=            -20.9421   YY=            -17.7050   ZZ=            -17.8372
   XY=              0.1157   XZ=              0.0376   YZ=             -0.0239

 Normal termination of Gaussian 09 at Thu Aug 27 00:11:08 2020.
