 Gaussian 09, Revision D.01,
 Gaussian 09:  ES64L-G09RevD.01 24-Apr-2013

 --------------------
 #p B2PLYPD3/Def2QZVP
 --------------------

 ------------
 cyanomethane
 ------------
 Symbolic Z-matrix:
 Charge =  0 Multiplicity = 1

                         Standard orientation:
 ---------------------------------------------------------------------
 Center     Atomic      Atomic             Coordinates (Angstroms)
 Number     Number       Type             X           Y           Z
 ---------------------------------------------------------------------
      1          6           0        1.179911    0.010467    0.006869
      2          6           0       -0.286632   -0.023539    0.001842
      3          7           0       -1.441481    0.011845   -0.002466
      4          1           0        1.566219   -0.119895    1.007667
      5          1           0        1.587959    0.940731   -0.418835
      6          1           0        1.576513   -0.825315   -0.623832
 ---------------------------------------------------------------------

 SCF Done:  E(RB2PLYPD3) =  -132.534235843     A.U. after   12 cycles
 E2(B2PLYPD3) =    -0.1807495348D+00 E(B2PLYPD3) =    -0.13271498537777D+03

 The electronic state is 1-A.
 Alpha  occ. eigenvalues --  -14.84338 -10.67546 -10.66447  -1.04125  -0.88731
 Alpha  occ. eigenvalues --   -0.59880  -0.53860  -0.52852  -0.44882  -0.39195
 Alpha  occ. eigenvalues --   -0.39025
 Alpha virt. eigenvalues --    0.03669   0.07525   0.07881   0.10164   0.11364
 Alpha virt. eigenvalues --    0.11540   0.15357   0.16195   0.16856   0.20054
 Alpha virt. eigenvalues --    0.20095   0.25230   0.32492   0.34141   0.34888

 Mulliken charges:
               1
     1  C   -0.081537
     2  C    0.000809
     3  N   -0.205159
     4  H    0.097633
     5  H    0.096302
     6  H    0.091952
 Sum of Mulliken charges =   0.00000

 Dipole moment (field-independent basis, Debye):
    X=              4.1339    Y=             -0.0192    Z=              0.0030  Tot=              4.1339
 Quadrupole moment (field-independent basis, Debye-Ang):
   XX=            -20.8941   YY=            -17.8470   ZZ=            -17.7965
   XY=              0.0679   XZ=             -0.0315   YZ=             -0.0282

 Normal termination of Gaussian 09 at Wed Aug 26 16:07:42 2020.
