 Gaussian 09, Revision D.01,
 Gaussian 09:  ES64L-G09RevD.01 24-Apr-2013

 --------------------
 #p B2PLYPD3/Def2QZVP
 --------------------

 ------------
 cyanomethane
 ------------
 Symbolic Z-matrix:
 Charge =  0 Multiplicity = 1

                         Standard orientation:
 ---------------------------------------------------------------------
 Center     Atomic      Atomic             Coordinates (Angstroms)
 Number     Number       Type             X           Y           Z
 ---------------------------------------------------------------------
      1          6           0       -1.159787   -0.000443   -0.010320
      2          6           0        0.286425   -0.032601   -0.018643
      3          7           0        1.416514    0.016310    0.006415
      4          1           0       -1.548873    1.104567   -0.027769
      5          1           0       -1.507305   -0.449883    0.958005
      6          1           0       -1.619252   -0.570598   -0.801363
 ---------------------------------------------------------------------

 SCF Done:  E(RB2PLYPD3) =  -132.530602490     A.U. after   12 cycles
 E2(B2PLYPD3) =    -0.1790537415D+00 E(B2PLYPD3) =    -0.13270965623134D+03

 The electronic state is 1-A.
 Alpha  occ. eigenvalues --  -14.83552 -10.67914 -10.65559  -1.05099  -0.88596
 Alpha  occ. eigenvalues --   -0.59668  -0.53562  -0.52432  -0.44750  -0.39623
 Alpha  occ. eigenvalues --   -0.39315
 Alpha virt. eigenvalues --    0.03494   0.07427   0.08180   0.10196   0.11747
 Alpha virt. eigenvalues --    0.12095   0.15469   0.16106   0.17010   0.19939
 Alpha virt. eigenvalues --    0.20033   0.25621   0.32641   0.33462   0.34586

 Mulliken charges:
               1
     1  C   -0.097207
     2  C   -0.001729
     3  N   -0.192664
     4  H    0.096433
     5  H    0.095273
     6  H    0.099894
 Sum of Mulliken charges =   0.00000

 Dipole moment (field-independent basis, Debye):
    X=             -4.0660    Y=             -0.0521    Z=              0.0068  Tot=              4.0663
 Quadrupole moment (field-independent basis, Debye-Ang):
   XX=            -21.0296   YY=            -17.6285   ZZ=            -17.8071
   XY=             -0.0225   XZ=             -0.0050   YZ=              0.0413

 Normal termination of Gaussian 09 at Wed Aug 26 23:51:55 2020.
