 Gaussian 09, Revision D.01,
 Gaussian 09:  ES64L-G09RevD.01 24-Apr-2013

 --------------------
 #p B2PLYPD3/Def2QZVP
 --------------------

 ------------
 cyanomethane
 ------------
 Symbolic Z-matrix:
 Charge =  0 Multiplicity = 1

                         Standard orientation:
 ---------------------------------------------------------------------
 Center     Atomic      Atomic             Coordinates (Angstroms)
 Number     Number       Type             X           Y           Z
 ---------------------------------------------------------------------
      1          6           0        1.172594   -0.013232   -0.009533
      2          6           0       -0.282414    0.001560   -0.017722
      3          7           0       -1.427038   -0.000492    0.016998
      4          1           0        1.642301   -0.062561    1.009835
      5          1           0        1.496991    0.984315   -0.412635
      6          1           0        1.508887   -0.848273   -0.552660
 ---------------------------------------------------------------------

 SCF Done:  E(RB2PLYPD3) =  -132.531525392     A.U. after   12 cycles
 E2(B2PLYPD3) =    -0.1798994394D+00 E(B2PLYPD3) =    -0.13271142483106D+03

 The electronic state is 1-A.
 Alpha  occ. eigenvalues --  -14.83916 -10.67361 -10.65961  -1.04500  -0.89077
 Alpha  occ. eigenvalues --   -0.59683  -0.55179  -0.52101  -0.44751  -0.39417
 Alpha  occ. eigenvalues --   -0.39003
 Alpha virt. eigenvalues --    0.03672   0.07367   0.08447   0.10182   0.11381
 Alpha virt. eigenvalues --    0.11876   0.15367   0.16035   0.16853   0.19966
 Alpha virt. eigenvalues --    0.20147   0.25409   0.32705   0.33599   0.35207

 Mulliken charges:
               1
     1  C   -0.089198
     2  C   -0.001726
     3  N   -0.201293
     4  H    0.090640
     5  H    0.097481
     6  H    0.104096
 Sum of Mulliken charges =   0.00000

 Dipole moment (field-independent basis, Debye):
    X=              4.1036    Y=              0.0033    Z=             -0.0079  Tot=              4.1036
 Quadrupole moment (field-independent basis, Debye-Ang):
   XX=            -21.0263   YY=            -17.5463   ZZ=            -17.9234
   XY=             -0.0154   XZ=              0.2587   YZ=              0.0706

 Normal termination of Gaussian 09 at Wed Aug 26 13:14:15 2020.
