 Gaussian 09, Revision D.01,
 Gaussian 09:  ES64L-G09RevD.01 24-Apr-2013

 --------------------
 #p B2PLYPD3/Def2QZVP
 --------------------

 ------------
 cyanomethane
 ------------
 Symbolic Z-matrix:
 Charge =  0 Multiplicity = 1

                         Standard orientation:
 ---------------------------------------------------------------------
 Center     Atomic      Atomic             Coordinates (Angstroms)
 Number     Number       Type             X           Y           Z
 ---------------------------------------------------------------------
      1          6           0       -1.164629    0.001900    0.022322
      2          6           0        0.283521    0.002920   -0.027239
      3          7           0        1.426169   -0.002361    0.005579
      4          1           0       -1.570507    1.018928   -0.152861
      5          1           0       -1.487415   -0.382485    0.935057
      6          1           0       -1.638615   -0.648836   -0.791749
 ---------------------------------------------------------------------

 SCF Done:  E(RB2PLYPD3) =  -132.532121725     A.U. after   12 cycles
 E2(B2PLYPD3) =    -0.1796834350D+00 E(B2PLYPD3) =    -0.13271180516001D+03

 The electronic state is 1-A.
 Alpha  occ. eigenvalues --  -14.83934 -10.67219 -10.65950  -1.04650  -0.89142
 Alpha  occ. eigenvalues --   -0.60069  -0.54776  -0.52282  -0.44832  -0.39471
 Alpha  occ. eigenvalues --   -0.39138
 Alpha virt. eigenvalues --    0.03712   0.07419   0.08245   0.10186   0.11530
 Alpha virt. eigenvalues --    0.11857   0.15487   0.16558   0.16631   0.19986
 Alpha virt. eigenvalues --    0.20071   0.25589   0.32494   0.33979   0.35347

 Mulliken charges:
               1
     1  C   -0.082023
     2  C   -0.000987
     3  N   -0.199690
     4  H    0.094540
     5  H    0.101522
     6  H    0.086638
 Sum of Mulliken charges =   0.00000

 Dipole moment (field-independent basis, Debye):
    X=             -4.1018    Y=             -0.0006    Z=              0.0035  Tot=              4.1018
 Quadrupole moment (field-independent basis, Debye-Ang):
   XX=            -20.8913   YY=            -17.7401   ZZ=            -17.7781
   XY=              0.0346   XZ=              0.0551   YZ=             -0.0911

 Normal termination of Gaussian 09 at Wed Aug 26 11:39:20 2020.
