 Gaussian 09, Revision D.01,
 Gaussian 09:  ES64L-G09RevD.01 24-Apr-2013

 --------------------
 #p B2PLYPD3/Def2QZVP
 --------------------

 ------------
 cyanomethane
 ------------
 Symbolic Z-matrix:
 Charge =  0 Multiplicity = 1

                         Standard orientation:
 ---------------------------------------------------------------------
 Center     Atomic      Atomic             Coordinates (Angstroms)
 Number     Number       Type             X           Y           Z
 ---------------------------------------------------------------------
      1          6           0        1.171030   -0.006760    0.009069
      2          6           0       -0.271982    0.033452   -0.012784
      3          7           0       -1.444078   -0.013631    0.004817
      4          1           0        1.615157    1.003906   -0.176337
      5          1           0        1.553476   -0.693687   -0.760052
      6          1           0        1.545626   -0.374955    0.924960
 ---------------------------------------------------------------------

 SCF Done:  E(RB2PLYPD3) =  -132.531456879     A.U. after   12 cycles
 E2(B2PLYPD3) =    -0.1822193141D+00 E(B2PLYPD3) =    -0.13271367619321D+03

 The electronic state is 1-A.
 Alpha  occ. eigenvalues --  -14.84818 -10.67092 -10.66872  -1.03485  -0.89413
 Alpha  occ. eigenvalues --   -0.60662  -0.53938  -0.53359  -0.44984  -0.38664
 Alpha  occ. eigenvalues --   -0.38565
 Alpha virt. eigenvalues --    0.03714   0.07181   0.07423   0.10082   0.11283
 Alpha virt. eigenvalues --    0.11464   0.15508   0.16367   0.16550   0.20111
 Alpha virt. eigenvalues --    0.20220   0.25657   0.32465   0.34320   0.34918

 Mulliken charges:
               1
     1  C   -0.073597
     2  C    0.004555
     3  N   -0.213791
     4  H    0.092992
     5  H    0.093131
     6  H    0.096710
 Sum of Mulliken charges =   0.00000

 Dipole moment (field-independent basis, Debye):
    X=              4.1554    Y=             -0.0116    Z=              0.0061  Tot=              4.1554
 Quadrupole moment (field-independent basis, Debye-Ang):
   XX=            -20.8549   YY=            -17.7738   ZZ=            -17.9410
   XY=             -0.0855   XZ=              0.0352   YZ=             -0.0202

 Normal termination of Gaussian 09 at Wed Aug 26 14:58:31 2020.
