 Gaussian 09, Revision D.01,
 Gaussian 09:  ES64L-G09RevD.01 24-Apr-2013

 --------------------
 #p B2PLYPD3/Def2QZVP
 --------------------

 ------------
 cyanomethane
 ------------
 Symbolic Z-matrix:
 Charge =  0 Multiplicity = 1

                         Standard orientation:
 ---------------------------------------------------------------------
 Center     Atomic      Atomic             Coordinates (Angstroms)
 Number     Number       Type             X           Y           Z
 ---------------------------------------------------------------------
      1          6           0        1.196079   -0.000395    0.012489
      2          6           0       -0.278601    0.020109   -0.008975
      3          7           0       -1.441500   -0.013679   -0.003721
      4          1           0        1.511173    1.000243   -0.245218
      5          1           0        1.629624   -0.732605   -0.720173
      6          1           0        1.444833   -0.290171    0.970352
 ---------------------------------------------------------------------

 SCF Done:  E(RB2PLYPD3) =  -132.530176634     A.U. after   12 cycles
 E2(B2PLYPD3) =    -0.1811550423D+00 E(B2PLYPD3) =    -0.13271133167678D+03

 The electronic state is 1-A.
 Alpha  occ. eigenvalues --  -14.84361 -10.67034 -10.66482  -1.03675  -0.89421
 Alpha  occ. eigenvalues --   -0.58978  -0.55668  -0.53265  -0.44680  -0.38956
 Alpha  occ. eigenvalues --   -0.38798
 Alpha virt. eigenvalues --    0.03732   0.07573   0.08583   0.10200   0.11095
 Alpha virt. eigenvalues --    0.11354   0.15176   0.15622   0.16493   0.20106
 Alpha virt. eigenvalues --    0.20171   0.24995   0.32282   0.34280   0.35233

 Mulliken charges:
               1
     1  C   -0.091712
     2  C   -0.002700
     3  N   -0.211318
     4  H    0.102843
     5  H    0.095852
     6  H    0.107035
 Sum of Mulliken charges =   0.00000

 Dipole moment (field-independent basis, Debye):
    X=              4.1408    Y=              0.0159    Z=              0.0189  Tot=              4.1409
 Quadrupole moment (field-independent basis, Debye-Ang):
   XX=            -21.1526   YY=            -17.6948   ZZ=            -17.7708
   XY=             -0.1386   XZ=             -0.1196   YZ=             -0.0696

 Normal termination of Gaussian 09 at Wed Aug 26 11:06:22 2020.
