 Gaussian 09, Revision D.01,
 Gaussian 09:  ES64L-G09RevD.01 24-Apr-2013

 --------------------
 #p B2PLYPD3/Def2QZVP
 --------------------

 ------------
 cyanomethane
 ------------
 Symbolic Z-matrix:
 Charge =  0 Multiplicity = 1

                         Standard orientation:
 ---------------------------------------------------------------------
 Center     Atomic      Atomic             Coordinates (Angstroms)
 Number     Number       Type             X           Y           Z
 ---------------------------------------------------------------------
      1          6           0       -1.175560    0.005293   -0.001867
      2          6           0        0.275490   -0.006867   -0.021599
      3          7           0        1.429959    0.004588    0.011319
      4          1           0       -1.530660   -0.168372    1.009189
      5          1           0       -1.521855   -0.806045   -0.609071
      6          1           0       -1.556777    0.951741   -0.338551
 ---------------------------------------------------------------------

 SCF Done:  E(RB2PLYPD3) =  -132.535306039     A.U. after   11 cycles
 E2(B2PLYPD3) =    -0.1803388745D+00 E(B2PLYPD3) =    -0.13271564491369D+03

 The electronic state is 1-A.
 Alpha  occ. eigenvalues --  -14.84145 -10.66684 -10.66175  -1.04087  -0.89646
 Alpha  occ. eigenvalues --   -0.59787  -0.54847  -0.53820  -0.44752  -0.39098
 Alpha  occ. eigenvalues --   -0.38943
 Alpha virt. eigenvalues --    0.03817   0.07909   0.08237   0.10166   0.11328
 Alpha virt. eigenvalues --    0.11568   0.15472   0.16033   0.16524   0.20064
 Alpha virt. eigenvalues --    0.20147   0.25472   0.32914   0.34500   0.35099

 Mulliken charges:
               1
     1  C   -0.081597
     2  C   -0.002055
     3  N   -0.207238
     4  H    0.094816
     5  H    0.097470
     6  H    0.098604
 Sum of Mulliken charges =   0.00000

 Dipole moment (field-independent basis, Debye):
    X=             -4.1261    Y=             -0.0160    Z=             -0.0026  Tot=              4.1261
 Quadrupole moment (field-independent basis, Debye-Ang):
   XX=            -21.0211   YY=            -17.6353   ZZ=            -17.7930
   XY=             -0.0285   XZ=             -0.0940   YZ=              0.0037

 Normal termination of Gaussian 09 at Wed Aug 26 13:56:43 2020.
