 Gaussian 09, Revision D.01,
 Gaussian 09:  ES64L-G09RevD.01 24-Apr-2013

 --------------------
 #p B2PLYPD3/Def2QZVP
 --------------------

 ------------
 cyanomethane
 ------------
 Symbolic Z-matrix:
 Charge =  0 Multiplicity = 1

                         Standard orientation:
 ---------------------------------------------------------------------
 Center     Atomic      Atomic             Coordinates (Angstroms)
 Number     Number       Type             X           Y           Z
 ---------------------------------------------------------------------
      1          6           0       -1.199538   -0.001731   -0.026987
      2          6           0        0.295315    0.056226    0.017076
      3          7           0        1.436104   -0.021476   -0.003571
      4          1           0       -1.567996   -0.205990    0.919151
      5          1           0       -1.425733   -0.823520   -0.533672
      6          1           0       -1.633658    0.852872   -0.301020
 ---------------------------------------------------------------------

 SCF Done:  E(RB2PLYPD3) =  -132.518448844     A.U. after   12 cycles
 E2(B2PLYPD3) =    -0.1787979589D+00 E(B2PLYPD3) =    -0.13269724680254D+03

 The electronic state is 1-A.
 Alpha  occ. eigenvalues --  -14.83904 -10.66048 -10.64933  -1.04505  -0.90689
 Alpha  occ. eigenvalues --   -0.60103  -0.57397  -0.53587  -0.44700  -0.39850
 Alpha  occ. eigenvalues --   -0.39418
 Alpha virt. eigenvalues --    0.03993   0.08932   0.09201   0.10426   0.10914
 Alpha virt. eigenvalues --    0.11636   0.15173   0.16147   0.17155   0.19896
 Alpha virt. eigenvalues --    0.20141   0.24772   0.32806   0.35060   0.36769

 Mulliken charges:
               1
     1  C   -0.057558
     2  C   -0.001454
     3  N   -0.202085
     4  H    0.075495
     5  H    0.094627
     6  H    0.090975
 Sum of Mulliken charges =   0.00000

 Dipole moment (field-independent basis, Debye):
    X=             -4.1616    Y=             -0.0024    Z=              0.0582  Tot=              4.1620
 Quadrupole moment (field-independent basis, Debye-Ang):
   XX=            -20.6371   YY=            -17.4397   ZZ=            -17.9240
   XY=              0.0586   XZ=             -0.1571   YZ=              0.0168

 Normal termination of Gaussian 09 at Wed Aug 26 22:49:44 2020.
