 Gaussian 09, Revision D.01,
 Gaussian 09:  ES64L-G09RevD.01 24-Apr-2013

 --------------------
 #p B2PLYPD3/Def2QZVP
 --------------------

 ------------
 cyanomethane
 ------------
 Symbolic Z-matrix:
 Charge =  0 Multiplicity = 1

                         Standard orientation:
 ---------------------------------------------------------------------
 Center     Atomic      Atomic             Coordinates (Angstroms)
 Number     Number       Type             X           Y           Z
 ---------------------------------------------------------------------
      1          6           0        1.185608   -0.004124   -0.001536
      2          6           0       -0.276380    0.012829    0.001755
      3          7           0       -1.438289   -0.003519    0.003325
      4          1           0        1.578808   -0.341406    0.951067
      5          1           0        1.562836    1.008305   -0.207298
      6          1           0        1.471011   -0.694500   -0.768363
 ---------------------------------------------------------------------

 SCF Done:  E(RB2PLYPD3) =  -132.534319893     A.U. after   12 cycles
 E2(B2PLYPD3) =    -0.1810494050D+00 E(B2PLYPD3) =    -0.13271536929806D+03

 The electronic state is 1-A.
 Alpha  occ. eigenvalues --  -14.84344 -10.67094 -10.66437  -1.03771  -0.89340
 Alpha  occ. eigenvalues --   -0.59430  -0.54582  -0.53803  -0.44740  -0.38879
 Alpha  occ. eigenvalues --   -0.38866
 Alpha virt. eigenvalues --    0.03770   0.07729   0.08114   0.10188   0.11293
 Alpha virt. eigenvalues --    0.11372   0.15288   0.15931   0.16405   0.20114
 Alpha virt. eigenvalues --    0.20151   0.25234   0.32552   0.34589   0.34736

 Mulliken charges:
               1
     1  C   -0.087946
     2  C   -0.001370
     3  N   -0.210375
     4  H    0.098107
     5  H    0.099059
     6  H    0.102525
 Sum of Mulliken charges =   0.00000

 Dipole moment (field-independent basis, Debye):
    X=              4.1391    Y=             -0.0075    Z=             -0.0043  Tot=              4.1391
 Quadrupole moment (field-independent basis, Debye-Ang):
   XX=            -21.0968   YY=            -17.6968   ZZ=            -17.7932
   XY=              0.0032   XZ=              0.0941   YZ=              0.0228

 Normal termination of Gaussian 09 at Thu Aug 27 01:12:56 2020.
