 Gaussian 09, Revision D.01,
 Gaussian 09:  ES64L-G09RevD.01 24-Apr-2013

 --------------------
 #p B2PLYPD3/Def2QZVP
 --------------------

 ------------
 cyanomethane
 ------------
 Symbolic Z-matrix:
 Charge =  0 Multiplicity = 1

                         Standard orientation:
 ---------------------------------------------------------------------
 Center     Atomic      Atomic             Coordinates (Angstroms)
 Number     Number       Type             X           Y           Z
 ---------------------------------------------------------------------
      1          6           0       -1.185906   -0.003907   -0.018178
      2          6           0        0.289248    0.033874    0.001171
      3          7           0        1.429523   -0.011568    0.003160
      4          1           0       -1.555028   -0.215749    0.974099
      5          1           0       -1.463638   -0.819284   -0.596348
      6          1           0       -1.608044    0.936209   -0.297824
 ---------------------------------------------------------------------

 SCF Done:  E(RB2PLYPD3) =  -132.533130249     A.U. after   12 cycles
 E2(B2PLYPD3) =    -0.1790416640D+00 E(B2PLYPD3) =    -0.13271217191297D+03

 The electronic state is 1-A.
 Alpha  occ. eigenvalues --  -14.83782 -10.66412 -10.65869  -1.04597  -0.89568
 Alpha  occ. eigenvalues --   -0.59535  -0.55768  -0.53168  -0.44679  -0.39666
 Alpha  occ. eigenvalues --   -0.39323
 Alpha virt. eigenvalues --    0.03875   0.08358   0.08754   0.10275   0.11241
 Alpha virt. eigenvalues --    0.11715   0.15299   0.16160   0.16790   0.19932
 Alpha virt. eigenvalues --    0.20113   0.25065   0.32830   0.34388   0.35914

 Mulliken charges:
               1
     1  C   -0.077309
     2  C   -0.005388
     3  N   -0.199950
     4  H    0.086607
     5  H    0.099538
     6  H    0.096502
 Sum of Mulliken charges =   0.00000

 Dipole moment (field-independent basis, Debye):
    X=             -4.1254    Y=             -0.0050    Z=              0.0302  Tot=              4.1255
 Quadrupole moment (field-independent basis, Debye-Ang):
   XX=            -20.9141   YY=            -17.4958   ZZ=            -17.8818
   XY=              0.0159   XZ=             -0.1415   YZ=              0.0397

 Normal termination of Gaussian 09 at Wed Aug 26 11:28:48 2020.
