 Gaussian 09, Revision D.01,
 Gaussian 09:  ES64L-G09RevD.01 24-Apr-2013

 --------------------
 #p B2PLYPD3/Def2QZVP
 --------------------

 ------------
 cyanomethane
 ------------
 Symbolic Z-matrix:
 Charge =  0 Multiplicity = 1

                         Standard orientation:
 ---------------------------------------------------------------------
 Center     Atomic      Atomic             Coordinates (Angstroms)
 Number     Number       Type             X           Y           Z
 ---------------------------------------------------------------------
      1          6           0       -1.164584   -0.014116    0.000522
      2          6           0        0.271770    0.032588   -0.000872
      3          7           0        1.430481   -0.016899   -0.002335
      4          1           0       -1.535521    1.032817   -0.047956
      5          1           0       -1.526493   -0.464113    0.893023
      6          1           0       -1.594465   -0.561244   -0.826614
 ---------------------------------------------------------------------

 SCF Done:  E(RB2PLYPD3) =  -132.533493716     A.U. after   12 cycles
 E2(B2PLYPD3) =    -0.1809348519D+00 E(B2PLYPD3) =    -0.13271442856820D+03

 The electronic state is 1-A.
 Alpha  occ. eigenvalues --  -14.84354 -10.66776 -10.66352  -1.03990  -0.89667
 Alpha  occ. eigenvalues --   -0.60530  -0.54236  -0.53630  -0.44876  -0.38925
 Alpha  occ. eigenvalues --   -0.38795
 Alpha virt. eigenvalues --    0.03780   0.07536   0.07844   0.10071   0.11500
 Alpha virt. eigenvalues --    0.11538   0.15573   0.15995   0.16893   0.20086
 Alpha virt. eigenvalues --    0.20178   0.25799   0.32827   0.34373   0.35035

 Mulliken charges:
               1
     1  C   -0.077032
     2  C    0.002078
     3  N   -0.208968
     4  H    0.092627
     5  H    0.096582
     6  H    0.094713
 Sum of Mulliken charges =   0.00000

 Dipole moment (field-independent basis, Debye):
    X=             -4.1280    Y=              0.0122    Z=              0.0115  Tot=              4.1281
 Quadrupole moment (field-independent basis, Debye-Ang):
   XX=            -20.9166   YY=            -17.7203   ZZ=            -17.8199
   XY=              0.1411   XZ=              0.0408   YZ=             -0.0116

 Normal termination of Gaussian 09 at Wed Aug 26 15:08:33 2020.
