 Gaussian 09, Revision D.01,
 Gaussian 09:  ES64L-G09RevD.01 24-Apr-2013

 --------------------
 #p B2PLYPD3/Def2QZVP
 --------------------

 ------------
 cyanomethane
 ------------
 Symbolic Z-matrix:
 Charge =  0 Multiplicity = 1

                         Standard orientation:
 ---------------------------------------------------------------------
 Center     Atomic      Atomic             Coordinates (Angstroms)
 Number     Number       Type             X           Y           Z
 ---------------------------------------------------------------------
      1          6           0       -1.172418    0.014286    0.019035
      2          6           0        0.274896    0.020399   -0.023700
      3          7           0        1.430516   -0.015729    0.009187
      4          1           0       -1.497203    0.991373   -0.104659
      5          1           0       -1.547350   -0.460981    0.889862
      6          1           0       -1.583927   -0.628401   -0.821523
 ---------------------------------------------------------------------

 SCF Done:  E(RB2PLYPD3) =  -132.530865365     A.U. after   11 cycles
 E2(B2PLYPD3) =    -0.1805859831D+00 E(B2PLYPD3) =    -0.13271145134831D+03

 The electronic state is 1-A.
 Alpha  occ. eigenvalues --  -14.84233 -10.66658 -10.66248  -1.04063  -0.89740
 Alpha  occ. eigenvalues --   -0.60080  -0.55942  -0.52571  -0.44805  -0.39184
 Alpha  occ. eigenvalues --   -0.38749
 Alpha virt. eigenvalues --    0.03754   0.07440   0.08450   0.10130   0.11150
 Alpha virt. eigenvalues --    0.11768   0.15448   0.16110   0.16668   0.20011
 Alpha virt. eigenvalues --    0.20201   0.25571   0.32580   0.34062   0.35669

 Mulliken charges:
               1
     1  C   -0.078369
     2  C   -0.000447
     3  N   -0.207804
     4  H    0.102152
     5  H    0.097645
     6  H    0.086823
 Sum of Mulliken charges =   0.00000

 Dipole moment (field-independent basis, Debye):
    X=             -4.1248    Y=              0.0043    Z=             -0.0078  Tot=              4.1248
 Quadrupole moment (field-independent basis, Debye-Ang):
   XX=            -20.9708   YY=            -17.5971   ZZ=            -17.8816
   XY=              0.1968   XZ=             -0.0347   YZ=             -0.0819

 Normal termination of Gaussian 09 at Wed Aug 26 11:30:49 2020.
