 Gaussian 09, Revision D.01,
 Gaussian 09:  ES64L-G09RevD.01 24-Apr-2013

 --------------------
 #p B2PLYPD3/Def2QZVP
 --------------------

 ------------
 cyanomethane
 ------------
 Symbolic Z-matrix:
 Charge =  0 Multiplicity = 1

                         Standard orientation:
 ---------------------------------------------------------------------
 Center     Atomic      Atomic             Coordinates (Angstroms)
 Number     Number       Type             X           Y           Z
 ---------------------------------------------------------------------
      1          6           0       -1.202101   -0.022201   -0.017309
      2          6           0        0.293186   -0.026372   -0.061101
      3          7           0        1.430151    0.022626    0.041659
      4          1           0       -1.645150    0.123845    0.974222
      5          1           0       -1.388527   -0.904634   -0.323143
      6          1           0       -1.523893    0.913851   -0.472233
 ---------------------------------------------------------------------

 SCF Done:  E(RB2PLYPD3) =  -132.508589159     A.U. after   12 cycles
 E2(B2PLYPD3) =    -0.1795648492D+00 E(B2PLYPD3) =    -0.13268815400822D+03

 The electronic state is 1-A.
 Alpha  occ. eigenvalues --  -14.83828 -10.66143 -10.65867  -1.04512  -0.90072
 Alpha  occ. eigenvalues --   -0.59528  -0.58316  -0.51048  -0.44599  -0.39805
 Alpha  occ. eigenvalues --   -0.39047
 Alpha virt. eigenvalues --    0.03631   0.07467   0.09772   0.10232   0.10737
 Alpha virt. eigenvalues --    0.11853   0.15156   0.16048   0.16794   0.19830
 Alpha virt. eigenvalues --    0.20200   0.24779   0.32681   0.33276   0.36633

 Mulliken charges:
               1
     1  C   -0.089463
     2  C   -0.006592
     3  N   -0.200144
     4  H    0.081228
     5  H    0.114666
     6  H    0.100305
 Sum of Mulliken charges =   0.00000

 Dipole moment (field-independent basis, Debye):
    X=             -4.1030    Y=              0.0097    Z=              0.0023  Tot=              4.1030
 Quadrupole moment (field-independent basis, Debye-Ang):
   XX=            -20.9959   YY=            -17.2431   ZZ=            -18.1036
   XY=             -0.3333   XZ=             -0.5284   YZ=              0.0699

 Normal termination of Gaussian 09 at Wed Aug 26 22:48:54 2020.
