 Gaussian 09, Revision D.01,
 Gaussian 09:  ES64L-G09RevD.01 24-Apr-2013

 --------------------
 #p B2PLYPD3/Def2QZVP
 --------------------

 ------------
 cyanomethane
 ------------
 Symbolic Z-matrix:
 Charge =  0 Multiplicity = 1

                         Standard orientation:
 ---------------------------------------------------------------------
 Center     Atomic      Atomic             Coordinates (Angstroms)
 Number     Number       Type             X           Y           Z
 ---------------------------------------------------------------------
      1          6           0        1.187928    0.002415   -0.000818
      2          6           0       -0.276907   -0.010746    0.015062
      3          7           0       -1.438544    0.006547   -0.007728
      4          1           0        1.531124   -0.262962    0.966591
      5          1           0        1.549876    0.983720   -0.270318
      6          1           0        1.522688   -0.716602   -0.727644
 ---------------------------------------------------------------------

 SCF Done:  E(RB2PLYPD3) =  -132.534517890     A.U. after   12 cycles
 E2(B2PLYPD3) =    -0.1808748183D+00 E(B2PLYPD3) =    -0.13271539270873D+03

 The electronic state is 1-A.
 Alpha  occ. eigenvalues --  -14.84342 -10.66725 -10.66426  -1.03764  -0.89575
 Alpha  occ. eigenvalues --   -0.59483  -0.54751  -0.54252  -0.44734  -0.38939
 Alpha  occ. eigenvalues --   -0.38896
 Alpha virt. eigenvalues --    0.03818   0.07935   0.08266   0.10187   0.11223
 Alpha virt. eigenvalues --    0.11331   0.15334   0.15964   0.16358   0.20116
 Alpha virt. eigenvalues --    0.20147   0.25192   0.32683   0.34744   0.34968

 Mulliken charges:
               1
     1  C   -0.083050
     2  C   -0.002228
     3  N   -0.210565
     4  H    0.099009
     5  H    0.098283
     6  H    0.098552
 Sum of Mulliken charges =   0.00000

 Dipole moment (field-independent basis, Debye):
    X=              4.1435    Y=             -0.0119    Z=              0.0105  Tot=              4.1436
 Quadrupole moment (field-independent basis, Debye-Ang):
   XX=            -21.0603   YY=            -17.7344   ZZ=            -17.7256
   XY=              0.0487   XZ=             -0.0399   YZ=             -0.0037

 Normal termination of Gaussian 09 at Wed Aug 26 22:15:43 2020.
