 Gaussian 09, Revision D.01,
 Gaussian 09:  ES64L-G09RevD.01 24-Apr-2013

 --------------------
 #p B2PLYPD3/Def2QZVP
 --------------------

 ------------
 cyanomethane
 ------------
 Symbolic Z-matrix:
 Charge =  0 Multiplicity = 1

                         Standard orientation:
 ---------------------------------------------------------------------
 Center     Atomic      Atomic             Coordinates (Angstroms)
 Number     Number       Type             X           Y           Z
 ---------------------------------------------------------------------
      1          6           0       -1.199656   -0.041057   -0.009363
      2          6           0        0.282763   -0.030233    0.006649
      3          7           0        1.442781    0.022382   -0.007072
      4          1           0       -1.580333    1.021019   -0.111377
      5          1           0       -1.456672   -0.263072    0.893567
      6          1           0       -1.561101   -0.486876   -0.716399
 ---------------------------------------------------------------------

 SCF Done:  E(RB2PLYPD3) =  -132.491749325     A.U. after   12 cycles
 E2(B2PLYPD3) =    -0.1804094414D+00 E(B2PLYPD3) =    -0.13267215876638D+03

 The electronic state is 1-A.
 Alpha  occ. eigenvalues --  -14.84421 -10.66549 -10.64711  -1.03854  -0.91429
 Alpha  occ. eigenvalues --   -0.61543  -0.58790  -0.52300  -0.44796  -0.39497
 Alpha  occ. eigenvalues --   -0.38752
 Alpha virt. eigenvalues --    0.03705   0.08179   0.09439   0.10165   0.10756
 Alpha virt. eigenvalues --    0.11588   0.15371   0.15949   0.17076   0.19996
 Alpha virt. eigenvalues --    0.20254   0.24754   0.32156   0.33754   0.37146

 Mulliken charges:
               1
     1  C   -0.084101
     2  C    0.004741
     3  N   -0.210826
     4  H    0.074901
     5  H    0.102122
     6  H    0.113163
 Sum of Mulliken charges =   0.00000

 Dipole moment (field-independent basis, Debye):
    X=             -4.1647    Y=             -0.0056    Z=              0.0322  Tot=              4.1648
 Quadrupole moment (field-independent basis, Debye-Ang):
   XX=            -20.7165   YY=            -17.8789   ZZ=            -17.5443
   XY=             -0.2403   XZ=              0.0718   YZ=              0.0883

 Normal termination of Gaussian 09 at Wed Aug 26 20:14:44 2020.
