 Gaussian 09, Revision D.01,
 Gaussian 09:  ES64L-G09RevD.01 24-Apr-2013

 --------------------
 #p B2PLYPD3/Def2QZVP
 --------------------

 ------------
 cyanomethane
 ------------
 Symbolic Z-matrix:
 Charge =  0 Multiplicity = 1

                         Standard orientation:
 ---------------------------------------------------------------------
 Center     Atomic      Atomic             Coordinates (Angstroms)
 Number     Number       Type             X           Y           Z
 ---------------------------------------------------------------------
      1          6           0        1.183785   -0.007324    0.003026
      2          6           0       -0.278435   -0.003551   -0.004304
      3          7           0       -1.436638    0.003215    0.001552
      4          1           0        1.550649    1.006398   -0.219411
      5          1           0        1.539877   -0.672762   -0.742960
      6          1           0        1.533839   -0.290889    0.959179
 ---------------------------------------------------------------------

 SCF Done:  E(RB2PLYPD3) =  -132.534612370     A.U. after   11 cycles
 E2(B2PLYPD3) =    -0.1805565160D+00 E(B2PLYPD3) =    -0.13271516888630D+03

 The electronic state is 1-A.
 Alpha  occ. eigenvalues --  -14.84263 -10.66696 -10.66338  -1.03936  -0.89567
 Alpha  occ. eigenvalues --   -0.59703  -0.54944  -0.53808  -0.44757  -0.39084
 Alpha  occ. eigenvalues --   -0.38941
 Alpha virt. eigenvalues --    0.03825   0.07937   0.08278   0.10196   0.11257
 Alpha virt. eigenvalues --    0.11433   0.15380   0.16221   0.16306   0.20091
 Alpha virt. eigenvalues --    0.20134   0.25233   0.32710   0.34490   0.35246

 Mulliken charges:
               1
     1  C   -0.080333
     2  C   -0.002176
     3  N   -0.208556
     4  H    0.094350
     5  H    0.098239
     6  H    0.098477
 Sum of Mulliken charges =   0.00000

 Dipole moment (field-independent basis, Debye):
    X=              4.1402    Y=             -0.0056    Z=              0.0001  Tot=              4.1402
 Quadrupole moment (field-independent basis, Debye-Ang):
   XX=            -21.0027   YY=            -17.7507   ZZ=            -17.7170
   XY=              0.0278   XZ=              0.0061   YZ=              0.0148

 Normal termination of Gaussian 09 at Thu Aug 27 00:07:17 2020.
