 Gaussian 09, Revision D.01,
 Gaussian 09:  ES64L-G09RevD.01 24-Apr-2013

 --------------------
 #p B2PLYPD3/Def2QZVP
 --------------------

 ------------
 cyanomethane
 ------------
 Symbolic Z-matrix:
 Charge =  0 Multiplicity = 1

                         Standard orientation:
 ---------------------------------------------------------------------
 Center     Atomic      Atomic             Coordinates (Angstroms)
 Number     Number       Type             X           Y           Z
 ---------------------------------------------------------------------
      1          6           0        1.163277   -0.004926   -0.009196
      2          6           0       -0.269521   -0.026538   -0.023759
      3          7           0       -1.431531    0.022591    0.014747
      4          1           0        1.476422   -0.572167   -0.798096
      5          1           0        1.521439   -0.444631    0.936931
      6          1           0        1.660319    1.047444   -0.044339
 ---------------------------------------------------------------------

 SCF Done:  E(RB2PLYPD3) =  -132.525923213     A.U. after   12 cycles
 E2(B2PLYPD3) =    -0.1815167180D+00 E(B2PLYPD3) =    -0.13270743993081D+03

 The electronic state is 1-A.
 Alpha  occ. eigenvalues --  -14.84474 -10.67032 -10.66452  -1.03862  -0.89733
 Alpha  occ. eigenvalues --   -0.60187  -0.55429  -0.52294  -0.44898  -0.38882
 Alpha  occ. eigenvalues --   -0.38546
 Alpha virt. eigenvalues --    0.03498   0.06705   0.08387   0.10075   0.11218
 Alpha virt. eigenvalues --    0.11767   0.15537   0.15767   0.17049   0.20059
 Alpha virt. eigenvalues --    0.20276   0.25830   0.32525   0.33765   0.35037

 Mulliken charges:
               1
     1  C   -0.083121
     2  C    0.002054
     3  N   -0.210323
     4  H    0.103574
     5  H    0.095158
     6  H    0.092658
 Sum of Mulliken charges =   0.00000

 Dipole moment (field-independent basis, Debye):
    X=              4.1251    Y=             -0.0614    Z=             -0.0079  Tot=              4.1255
 Quadrupole moment (field-independent basis, Debye-Ang):
   XX=            -20.9471   YY=            -17.7889   ZZ=            -17.7910
   XY=              0.1954   XZ=              0.1347   YZ=              0.0762

 Normal termination of Gaussian 09 at Wed Aug 26 11:12:17 2020.
