 Gaussian 09, Revision D.01,
 Gaussian 09:  ES64L-G09RevD.01 24-Apr-2013

 --------------------
 #p B2PLYPD3/Def2QZVP
 --------------------

 ------------
 cyanomethane
 ------------
 Symbolic Z-matrix:
 Charge =  0 Multiplicity = 1

                         Standard orientation:
 ---------------------------------------------------------------------
 Center     Atomic      Atomic             Coordinates (Angstroms)
 Number     Number       Type             X           Y           Z
 ---------------------------------------------------------------------
      1          6           0       -1.177772   -0.012347   -0.001296
      2          6           0        0.277951    0.030042   -0.015869
      3          7           0        1.444826   -0.016717    0.004472
      4          1           0       -1.543249    1.005525   -0.038704
      5          1           0       -1.533264   -0.438961    0.886902
      6          1           0       -1.638342   -0.555714   -0.776516
 ---------------------------------------------------------------------

 SCF Done:  E(RB2PLYPD3) =  -132.531107469     A.U. after   12 cycles
 E2(B2PLYPD3) =    -0.1814181928D+00 E(B2PLYPD3) =    -0.13271252566139D+03

 The electronic state is 1-A.
 Alpha  occ. eigenvalues --  -14.84698 -10.66798 -10.66244  -1.03674  -0.89869
 Alpha  occ. eigenvalues --   -0.61040  -0.54185  -0.54067  -0.44968  -0.38915
 Alpha  occ. eigenvalues --   -0.38814
 Alpha virt. eigenvalues --    0.03850   0.07664   0.07911   0.10096   0.11275
 Alpha virt. eigenvalues --    0.11395   0.15487   0.16109   0.17108   0.20098
 Alpha virt. eigenvalues --    0.20228   0.25448   0.32721   0.34776   0.35399

 Mulliken charges:
               1
     1  C   -0.061755
     2  C    0.004956
     3  N   -0.212351
     4  H    0.089022
     5  H    0.090519
     6  H    0.089608
 Sum of Mulliken charges =   0.00000

 Dipole moment (field-independent basis, Debye):
    X=             -4.1673    Y=              0.0129    Z=              0.0118  Tot=              4.1673
 Quadrupole moment (field-independent basis, Debye-Ang):
   XX=            -20.6994   YY=            -17.7686   ZZ=            -17.9047
   XY=              0.1487   XZ=              0.0000   YZ=              0.0028

 Normal termination of Gaussian 09 at Wed Aug 26 14:58:13 2020.
