 Gaussian 09, Revision D.01,
 Gaussian 09:  ES64L-G09RevD.01 24-Apr-2013

 --------------------
 #p B2PLYPD3/Def2QZVP
 --------------------

 ------------
 cyanomethane
 ------------
 Symbolic Z-matrix:
 Charge =  0 Multiplicity = 1

                         Standard orientation:
 ---------------------------------------------------------------------
 Center     Atomic      Atomic             Coordinates (Angstroms)
 Number     Number       Type             X           Y           Z
 ---------------------------------------------------------------------
      1          6           0       -1.179611    0.001553    0.015738
      2          6           0        0.281226   -0.011224   -0.020222
      3          7           0        1.425394    0.005238    0.007719
      4          1           0       -1.527102    0.987892   -0.264829
      5          1           0       -1.513709   -0.261237    0.962664
      6          1           0       -1.546643   -0.705297   -0.724963
 ---------------------------------------------------------------------

 SCF Done:  E(RB2PLYPD3) =  -132.534865499     A.U. after   11 cycles
 E2(B2PLYPD3) =    -0.1793494190D+00 E(B2PLYPD3) =    -0.13271421491752D+03

 The electronic state is 1-A.
 Alpha  occ. eigenvalues --  -14.83824 -10.66519 -10.65857  -1.04459  -0.89646
 Alpha  occ. eigenvalues --   -0.59495  -0.55177  -0.53851  -0.44668  -0.39414
 Alpha  occ. eigenvalues --   -0.39219
 Alpha virt. eigenvalues --    0.03868   0.08294   0.08540   0.10202   0.11411
 Alpha virt. eigenvalues --    0.11596   0.15429   0.16033   0.16526   0.20037
 Alpha virt. eigenvalues --    0.20079   0.25315   0.32916   0.34471   0.35399

 Mulliken charges:
               1
     1  C   -0.083505
     2  C   -0.005154
     3  N   -0.202216
     4  H    0.096252
     5  H    0.100721
     6  H    0.093901
 Sum of Mulliken charges =   0.00000

 Dipole moment (field-independent basis, Debye):
    X=             -4.1105    Y=             -0.0082    Z=             -0.0150  Tot=              4.1106
 Quadrupole moment (field-independent basis, Debye-Ang):
   XX=            -21.0430   YY=            -17.6884   ZZ=            -17.6375
   XY=             -0.0202   XZ=             -0.0111   YZ=             -0.0341

 Normal termination of Gaussian 09 at Wed Aug 26 23:59:28 2020.
