 Gaussian 09, Revision D.01,
 Gaussian 09:  ES64L-G09RevD.01 24-Apr-2013

 --------------------
 #p B2PLYPD3/Def2QZVP
 --------------------

 ------------
 cyanomethane
 ------------
 Symbolic Z-matrix:
 Charge =  0 Multiplicity = 1

                         Standard orientation:
 ---------------------------------------------------------------------
 Center     Atomic      Atomic             Coordinates (Angstroms)
 Number     Number       Type             X           Y           Z
 ---------------------------------------------------------------------
      1          6           0        1.184237   -0.015406   -0.023887
      2          6           0       -0.289551    0.005945   -0.059717
      3          7           0       -1.435163    0.000201    0.044204
      4          1           0        1.696685   -0.116357    1.049872
      5          1           0        1.524960    1.008347   -0.322788
      6          1           0        1.456383   -0.836629   -0.534886
 ---------------------------------------------------------------------

 SCF Done:  E(RB2PLYPD3) =  -132.516792667     A.U. after   12 cycles
 E2(B2PLYPD3) =    -0.1807867310D+00 E(B2PLYPD3) =    -0.13269757939841D+03

 The electronic state is 1-A.
 Alpha  occ. eigenvalues --  -14.84184 -10.67723 -10.66227  -1.04327  -0.88858
 Alpha  occ. eigenvalues --   -0.59218  -0.56649  -0.50286  -0.44813  -0.39543
 Alpha  occ. eigenvalues --   -0.38703
 Alpha virt. eigenvalues --    0.03179   0.06626   0.08978   0.10136   0.10921
 Alpha virt. eigenvalues --    0.11897   0.15303   0.16008   0.16919   0.19889
 Alpha virt. eigenvalues --    0.20213   0.25197   0.31825   0.32816   0.35703

 Mulliken charges:
               1
     1  C   -0.092659
     2  C   -0.000515
     3  N   -0.201946
     4  H    0.082856
     5  H    0.101687
     6  H    0.110576
 Sum of Mulliken charges =   0.00000

 Dipole moment (field-independent basis, Debye):
    X=              4.0903    Y=              0.0083    Z=             -0.0498  Tot=              4.0906
 Quadrupole moment (field-independent basis, Debye-Ang):
   XX=            -21.0243   YY=            -17.4840   ZZ=            -18.1086
   XY=              0.0451   XZ=              0.4789   YZ=              0.1321

 Normal termination of Gaussian 09 at Wed Aug 26 22:46:36 2020.
