 Gaussian 09, Revision D.01,
 Gaussian 09:  ES64L-G09RevD.01 24-Apr-2013

 --------------------
 #p B2PLYPD3/Def2QZVP
 --------------------

 ------------
 cyanomethane
 ------------
 Symbolic Z-matrix:
 Charge =  0 Multiplicity = 1

                         Standard orientation:
 ---------------------------------------------------------------------
 Center     Atomic      Atomic             Coordinates (Angstroms)
 Number     Number       Type             X           Y           Z
 ---------------------------------------------------------------------
      1          6           0       -1.178764    0.000293   -0.013005
      2          6           0        0.282654   -0.012423    0.026163
      3          7           0        1.439501    0.003658   -0.012720
      4          1           0       -1.527410    1.029131   -0.048749
      5          1           0       -1.579924   -0.443160    0.880160
      6          1           0       -1.592513   -0.538795   -0.821313
 ---------------------------------------------------------------------

 SCF Done:  E(RB2PLYPD3) =  -132.534258554     A.U. after   11 cycles
 E2(B2PLYPD3) =    -0.1805831470D+00 E(B2PLYPD3) =    -0.13271484170107D+03

 The electronic state is 1-A.
 Alpha  occ. eigenvalues --  -14.84369 -10.66644 -10.66453  -1.04039  -0.89472
 Alpha  occ. eigenvalues --   -0.60396  -0.54239  -0.53719  -0.44880  -0.39151
 Alpha  occ. eigenvalues --   -0.39031
 Alpha virt. eigenvalues --    0.03808   0.07907   0.08032   0.10170   0.11370
 Alpha virt. eigenvalues --    0.11423   0.15426   0.16160   0.16935   0.20084
 Alpha virt. eigenvalues --    0.20115   0.25338   0.32775   0.34629   0.35213

 Mulliken charges:
               1
     1  C   -0.070393
     2  C    0.001139
     3  N   -0.207428
     4  H    0.093646
     5  H    0.089254
     6  H    0.093781
 Sum of Mulliken charges =   0.00000

 Dipole moment (field-independent basis, Debye):
    X=             -4.1469    Y=             -0.0123    Z=              0.0263  Tot=              4.1470
 Quadrupole moment (field-independent basis, Debye-Ang):
   XX=            -20.8022   YY=            -17.7337   ZZ=            -17.8559
   XY=              0.0466   XZ=              0.0535   YZ=              0.0255

 Normal termination of Gaussian 09 at Wed Aug 26 12:40:57 2020.
