 Gaussian 09, Revision D.01,
 Gaussian 09:  ES64L-G09RevD.01 24-Apr-2013

 --------------------
 #p B2PLYPD3/Def2QZVP
 --------------------

 ------------
 cyanomethane
 ------------
 Symbolic Z-matrix:
 Charge =  0 Multiplicity = 1

                         Standard orientation:
 ---------------------------------------------------------------------
 Center     Atomic      Atomic             Coordinates (Angstroms)
 Number     Number       Type             X           Y           Z
 ---------------------------------------------------------------------
      1          6           0        1.150809   -0.002120   -0.006389
      2          6           0       -0.287409    0.037193   -0.044739
      3          7           0       -1.423748   -0.028641    0.038793
      4          1           0        1.828988   -0.329808    0.928505
      5          1           0        1.434142    1.022027   -0.175925
      6          1           0        1.522706   -0.702164   -0.717366
 ---------------------------------------------------------------------

 SCF Done:  E(RB2PLYPD3) =  -132.516559985     A.U. after   12 cycles
 E2(B2PLYPD3) =    -0.1804069561D+00 E(B2PLYPD3) =    -0.13269696694101D+03

 The electronic state is 1-A.
 Alpha  occ. eigenvalues --  -14.84065 -10.67461 -10.66056  -1.04905  -0.89126
 Alpha  occ. eigenvalues --   -0.60727  -0.55404  -0.50172  -0.45019  -0.39576
 Alpha  occ. eigenvalues --   -0.38789
 Alpha virt. eigenvalues --    0.03073   0.06307   0.08662   0.09985   0.11445
 Alpha virt. eigenvalues --    0.12183   0.15418   0.16016   0.18007   0.19853
 Alpha virt. eigenvalues --    0.20751   0.26005   0.31926   0.33606   0.35204

 Mulliken charges:
               1
     1  C   -0.088059
     2  C    0.007596
     3  N   -0.196744
     4  H    0.084488
     5  H    0.096195
     6  H    0.096523
 Sum of Mulliken charges =   0.00000

 Dipole moment (field-independent basis, Debye):
    X=              4.0875    Y=              0.0406    Z=             -0.0954  Tot=              4.0889
 Quadrupole moment (field-independent basis, Debye-Ang):
   XX=            -20.5970   YY=            -17.6012   ZZ=            -18.1860
   XY=             -0.3376   XZ=              0.3803   YZ=              0.1084

 Normal termination of Gaussian 09 at Wed Aug 26 16:26:10 2020.
