 Gaussian 09, Revision D.01,
 Gaussian 09:  ES64L-G09RevD.01 24-Apr-2013

 --------------------
 #p B2PLYPD3/Def2QZVP
 --------------------

 ------------
 cyanomethane
 ------------
 Symbolic Z-matrix:
 Charge =  0 Multiplicity = 1

                         Standard orientation:
 ---------------------------------------------------------------------
 Center     Atomic      Atomic             Coordinates (Angstroms)
 Number     Number       Type             X           Y           Z
 ---------------------------------------------------------------------
      1          6           0        1.162243    0.000883   -0.007729
      2          6           0       -0.265628    0.022072    0.013969
      3          7           0       -1.430957   -0.012525   -0.000035
      4          1           0        1.634062   -0.144385    0.994789
      5          1           0        1.500297    0.960269   -0.411680
      6          1           0        1.502644   -0.865938   -0.620303
 ---------------------------------------------------------------------

 SCF Done:  E(RB2PLYPD3) =  -132.531659864     A.U. after   11 cycles
 E2(B2PLYPD3) =    -0.1817690957D+00 E(B2PLYPD3) =    -0.13271342895999D+03

 The electronic state is 1-A.
 Alpha  occ. eigenvalues --  -14.84463 -10.67450 -10.66460  -1.03734  -0.89404
 Alpha  occ. eigenvalues --   -0.60046  -0.54536  -0.52819  -0.44851  -0.38660
 Alpha  occ. eigenvalues --   -0.38496
 Alpha virt. eigenvalues --    0.03644   0.07003   0.07622   0.10100   0.11388
 Alpha virt. eigenvalues --    0.11696   0.15428   0.16056   0.16505   0.20099
 Alpha virt. eigenvalues --    0.20219   0.25868   0.32708   0.33994   0.34471

 Mulliken charges:
               1
     1  C   -0.088811
     2  C    0.002871
     3  N   -0.211901
     4  H    0.094445
     5  H    0.102565
     6  H    0.100831
 Sum of Mulliken charges =   0.00000

 Dipole moment (field-independent basis, Debye):
    X=              4.1288    Y=              0.0078    Z=              0.0065  Tot=              4.1288
 Quadrupole moment (field-independent basis, Debye-Ang):
   XX=            -21.0695   YY=            -17.6426   ZZ=            -17.9268
   XY=             -0.1069   XZ=              0.1314   YZ=             -0.0150

 Normal termination of Gaussian 09 at Wed Aug 26 11:11:01 2020.
