 Gaussian 09, Revision D.01,
 Gaussian 09:  ES64L-G09RevD.01 24-Apr-2013

 --------------------
 #p B2PLYPD3/Def2QZVP
 --------------------

 ------------
 cyanomethane
 ------------
 Symbolic Z-matrix:
 Charge =  0 Multiplicity = 1

                         Standard orientation:
 ---------------------------------------------------------------------
 Center     Atomic      Atomic             Coordinates (Angstroms)
 Number     Number       Type             X           Y           Z
 ---------------------------------------------------------------------
      1          6           0        1.163622   -0.004737    0.009174
      2          6           0       -0.270110    0.007888   -0.027735
      3          7           0       -1.437659    0.000078    0.013281
      4          1           0        1.617365    0.993513   -0.193649
      5          1           0        1.536107   -0.687969   -0.724213
      6          1           0        1.549068   -0.324993    0.936259
 ---------------------------------------------------------------------

 SCF Done:  E(RB2PLYPD3) =  -132.531907397     A.U. after   12 cycles
 E2(B2PLYPD3) =    -0.1816364276D+00 E(B2PLYPD3) =    -0.13271354382454D+03

 The electronic state is 1-A.
 Alpha  occ. eigenvalues --  -14.84661 -10.66683 -10.66571  -1.03701  -0.89844
 Alpha  occ. eigenvalues --   -0.61018  -0.54284  -0.53561  -0.44976  -0.38733
 Alpha  occ. eigenvalues --   -0.38688
 Alpha virt. eigenvalues --    0.03784   0.07253   0.07745   0.10086   0.11390
 Alpha virt. eigenvalues --    0.11501   0.15621   0.16239   0.16833   0.20136
 Alpha virt. eigenvalues --    0.20198   0.25821   0.32751   0.34603   0.35052

 Mulliken charges:
               1
     1  C   -0.066987
     2  C    0.004019
     3  N   -0.212375
     4  H    0.089847
     5  H    0.092115
     6  H    0.093381
 Sum of Mulliken charges =   0.00000

 Dipole moment (field-independent basis, Debye):
    X=              4.1541    Y=             -0.0251    Z=             -0.0074  Tot=              4.1542
 Quadrupole moment (field-independent basis, Debye-Ang):
   XX=            -20.7778   YY=            -17.7794   ZZ=            -17.8782
   XY=              0.0074   XZ=              0.0899   YZ=              0.0086

 Normal termination of Gaussian 09 at Wed Aug 26 11:59:00 2020.
