 Gaussian 09, Revision D.01,
 Gaussian 09:  ES64L-G09RevD.01 24-Apr-2013

 --------------------
 #p B2PLYPD3/Def2QZVP
 --------------------

 ------------
 cyanomethane
 ------------
 Symbolic Z-matrix:
 Charge =  0 Multiplicity = 1

                         Standard orientation:
 ---------------------------------------------------------------------
 Center     Atomic      Atomic             Coordinates (Angstroms)
 Number     Number       Type             X           Y           Z
 ---------------------------------------------------------------------
      1          6           0        1.185340   -0.005581    0.011236
      2          6           0       -0.275052   -0.004304   -0.021738
      3          7           0       -1.438482    0.002651    0.007540
      4          1           0        1.548869    0.950549   -0.411286
      5          1           0        1.559036   -0.818381   -0.590341
      6          1           0        1.499746   -0.091418    1.011856
 ---------------------------------------------------------------------

 SCF Done:  E(RB2PLYPD3) =  -132.533776662     A.U. after   11 cycles
 E2(B2PLYPD3) =    -0.1811271396D+00 E(B2PLYPD3) =    -0.13271490380170D+03

 The electronic state is 1-A.
 Alpha  occ. eigenvalues --  -14.84396 -10.66903 -10.66475  -1.03707  -0.89500
 Alpha  occ. eigenvalues --   -0.59525  -0.54970  -0.53743  -0.44752  -0.38915
 Alpha  occ. eigenvalues --   -0.38767
 Alpha virt. eigenvalues --    0.03789   0.07795   0.08088   0.10173   0.11225
 Alpha virt. eigenvalues --    0.11375   0.15339   0.16064   0.16236   0.20117
 Alpha virt. eigenvalues --    0.20156   0.25283   0.32571   0.34320   0.35163

 Mulliken charges:
               1
     1  C   -0.084963
     2  C   -0.001279
     3  N   -0.211349
     4  H    0.096189
     5  H    0.098910
     6  H    0.102492
 Sum of Mulliken charges =   0.00000

 Dipole moment (field-independent basis, Debye):
    X=              4.1408    Y=             -0.0028    Z=             -0.0044  Tot=              4.1408
 Quadrupole moment (field-independent basis, Debye-Ang):
   XX=            -21.0832   YY=            -17.7583   ZZ=            -17.7246
   XY=              0.0147   XZ=              0.0030   YZ=              0.0160

 Normal termination of Gaussian 09 at Thu Aug 27 00:13:55 2020.
