 Gaussian 09, Revision D.01,
 Gaussian 09:  ES64L-G09RevD.01 24-Apr-2013

 --------------------
 #p B2PLYPD3/Def2QZVP
 --------------------

 ------------
 cyanomethane
 ------------
 Symbolic Z-matrix:
 Charge =  0 Multiplicity = 1

                         Standard orientation:
 ---------------------------------------------------------------------
 Center     Atomic      Atomic             Coordinates (Angstroms)
 Number     Number       Type             X           Y           Z
 ---------------------------------------------------------------------
      1          6           0        1.171065   -0.014924   -0.002258
      2          6           0       -0.278945    0.008563    0.002418
      3          7           0       -1.430906    0.000325    0.000645
      4          1           0        1.510814   -0.587724   -0.827399
      5          1           0        1.557575   -0.413777    0.922894
      6          1           0        1.595228    1.037394   -0.100963
 ---------------------------------------------------------------------

 SCF Done:  E(RB2PLYPD3) =  -132.533846717     A.U. after   11 cycles
 E2(B2PLYPD3) =    -0.1803038952D+00 E(B2PLYPD3) =    -0.13271415061229D+03

 The electronic state is 1-A.
 Alpha  occ. eigenvalues --  -14.84134 -10.67120 -10.66169  -1.04250  -0.89288
 Alpha  occ. eigenvalues --   -0.59926  -0.54764  -0.52858  -0.44811  -0.39211
 Alpha  occ. eigenvalues --   -0.38968
 Alpha virt. eigenvalues --    0.03731   0.07521   0.08179   0.10172   0.11411
 Alpha virt. eigenvalues --    0.11680   0.15464   0.16354   0.16480   0.20050
 Alpha virt. eigenvalues --    0.20111   0.25485   0.32574   0.34137   0.35172

 Mulliken charges:
               1
     1  C   -0.082830
     2  C   -0.001007
     3  N   -0.204723
     4  H    0.100420
     5  H    0.097372
     6  H    0.090768
 Sum of Mulliken charges =   0.00000

 Dipole moment (field-independent basis, Debye):
    X=              4.1195    Y=             -0.0111    Z=              0.0003  Tot=              4.1195
 Quadrupole moment (field-independent basis, Debye-Ang):
   XX=            -20.9690   YY=            -17.7855   ZZ=            -17.7216
   XY=              0.0389   XZ=              0.0369   YZ=              0.0323

 Normal termination of Gaussian 09 at Wed Aug 26 22:25:23 2020.
