 Gaussian 09, Revision D.01,
 Gaussian 09:  ES64L-G09RevD.01 24-Apr-2013

 --------------------
 #p B2PLYPD3/Def2QZVP
 --------------------

 ------------
 cyanomethane
 ------------
 Symbolic Z-matrix:
 Charge =  0 Multiplicity = 1

                         Standard orientation:
 ---------------------------------------------------------------------
 Center     Atomic      Atomic             Coordinates (Angstroms)
 Number     Number       Type             X           Y           Z
 ---------------------------------------------------------------------
      1          6           0        1.177587   -0.003468   -0.011269
      2          6           0       -0.278148    0.008062   -0.009668
      3          7           0       -1.429369   -0.002136    0.006222
      4          1           0        1.523780   -0.581562   -0.835060
      5          1           0        1.525898   -0.467441    0.954772
      6          1           0        1.559270    1.036397   -0.037643
 ---------------------------------------------------------------------

 SCF Done:  E(RB2PLYPD3) =  -132.534191290     A.U. after   11 cycles
 E2(B2PLYPD3) =    -0.1803108335D+00 E(B2PLYPD3) =    -0.13271450212309D+03

 The electronic state is 1-A.
 Alpha  occ. eigenvalues --  -14.84028 -10.67423 -10.66079  -1.04202  -0.89093
 Alpha  occ. eigenvalues --   -0.59259  -0.54713  -0.53067  -0.44707  -0.39183
 Alpha  occ. eigenvalues --   -0.38927
 Alpha virt. eigenvalues --    0.03690   0.07660   0.08181   0.10180   0.11369
 Alpha virt. eigenvalues --    0.11681   0.15359   0.16075   0.16326   0.20044
 Alpha virt. eigenvalues --    0.20124   0.25349   0.32644   0.33790   0.34996

 Mulliken charges:
               1
     1  C   -0.093940
     2  C   -0.002452
     3  N   -0.204902
     4  H    0.104381
     5  H    0.097267
     6  H    0.099645
 Sum of Mulliken charges =   0.00000

 Dipole moment (field-independent basis, Debye):
    X=              4.1094    Y=             -0.0008    Z=             -0.0032  Tot=              4.1094
 Quadrupole moment (field-independent basis, Debye-Ang):
   XX=            -21.1556   YY=            -17.6991   ZZ=            -17.7242
   XY=              0.0088   XZ=              0.0521   YZ=              0.0603

 Normal termination of Gaussian 09 at Thu Aug 27 00:11:24 2020.
