 Gaussian 09, Revision D.01,
 Gaussian 09:  ES64L-G09RevD.01 24-Apr-2013

 --------------------
 #p B2PLYPD3/Def2QZVP
 --------------------

 ------------
 cyanomethane
 ------------
 Symbolic Z-matrix:
 Charge =  0 Multiplicity = 1

                         Standard orientation:
 ---------------------------------------------------------------------
 Center     Atomic      Atomic             Coordinates (Angstroms)
 Number     Number       Type             X           Y           Z
 ---------------------------------------------------------------------
      1          6           0        1.186489    0.037468   -0.006354
      2          6           0       -0.284359   -0.054675   -0.025893
      3          7           0       -1.444290    0.019311    0.011876
      4          1           0        1.495007    1.055659    0.005783
      5          1           0        1.633629   -0.568699   -0.792847
      6          1           0        1.568615   -0.518900    0.897412
 ---------------------------------------------------------------------

 SCF Done:  E(RB2PLYPD3) =  -132.530305627     A.U. after   12 cycles
 E2(B2PLYPD3) =    -0.1814648309D+00 E(B2PLYPD3) =    -0.13271177045762D+03

 The electronic state is 1-A.
 Alpha  occ. eigenvalues --  -14.84512 -10.67467 -10.66628  -1.03796  -0.88850
 Alpha  occ. eigenvalues --   -0.59632  -0.55506  -0.51810  -0.44854  -0.39173
 Alpha  occ. eigenvalues --   -0.38646
 Alpha virt. eigenvalues --    0.03596   0.07520   0.07793   0.10130   0.11077
 Alpha virt. eigenvalues --    0.11616   0.15164   0.15756   0.17104   0.19960
 Alpha virt. eigenvalues --    0.20204   0.25397   0.32392   0.33507   0.35507

 Mulliken charges:
               1
     1  C   -0.081624
     2  C    0.002913
     3  N   -0.209688
     4  H    0.108378
     5  H    0.092072
     6  H    0.087950
 Sum of Mulliken charges =   0.00000

 Dipole moment (field-independent basis, Debye):
    X=              4.1449    Y=             -0.0651    Z=             -0.0043  Tot=              4.1454
 Quadrupole moment (field-independent basis, Debye-Ang):
   XX=            -20.9421   YY=            -17.5319   ZZ=            -18.1281
   XY=             -0.1090   XZ=              0.0588   YZ=              0.0224

 Normal termination of Gaussian 09 at Wed Aug 26 21:08:10 2020.
