 Gaussian 09, Revision D.01,
 Gaussian 09:  ES64L-G09RevD.01 24-Apr-2013

 --------------------
 #p B2PLYPD3/Def2QZVP
 --------------------

 ------------
 cyanomethane
 ------------
 Symbolic Z-matrix:
 Charge =  0 Multiplicity = 1

                         Standard orientation:
 ---------------------------------------------------------------------
 Center     Atomic      Atomic             Coordinates (Angstroms)
 Number     Number       Type             X           Y           Z
 ---------------------------------------------------------------------
      1          6           0        1.204611    0.012689   -0.010127
      2          6           0       -0.263885   -0.057252   -0.015534
      3          7           0       -1.451263    0.039680    0.007787
      4          1           0        1.404541   -0.817474   -0.655405
      5          1           0        1.463089   -0.216415    1.060642
      6          1           0        1.646849    1.023505   -0.305778
 ---------------------------------------------------------------------

 SCF Done:  E(RB2PLYPD3) =  -132.518426011     A.U. after   13 cycles
 E2(B2PLYPD3) =    -0.1844936448D+00 E(B2PLYPD3) =    -0.13270291965623D+03

 The electronic state is 1-A.
 Alpha  occ. eigenvalues --  -14.85062 -10.68169 -10.67242  -1.02562  -0.89043
 Alpha  occ. eigenvalues --   -0.58414  -0.54959  -0.52939  -0.44659  -0.38093
 Alpha  occ. eigenvalues --   -0.37929
 Alpha virt. eigenvalues --    0.03260   0.06476   0.08185   0.09834   0.10847
 Alpha virt. eigenvalues --    0.11225   0.14521   0.15107   0.16713   0.20200
 Alpha virt. eigenvalues --    0.20386   0.25234   0.31978   0.33322   0.34427

 Mulliken charges:
               1
     1  C   -0.111569
     2  C    0.005367
     3  N   -0.223474
     4  H    0.113405
     5  H    0.106475
     6  H    0.109796
 Sum of Mulliken charges =   0.00000

 Dipole moment (field-independent basis, Debye):
    X=              4.1374    Y=             -0.0512    Z=              0.0114  Tot=              4.1377
 Quadrupole moment (field-independent basis, Debye-Ang):
   XX=            -21.5117   YY=            -17.6914   ZZ=            -17.9006
   XY=              0.3805   XZ=              0.0690   YZ=              0.0484

 Normal termination of Gaussian 09 at Wed Aug 26 19:02:47 2020.
