 Gaussian 09, Revision D.01,
 Gaussian 09:  ES64L-G09RevD.01 24-Apr-2013

 --------------------
 #p B2PLYPD3/Def2QZVP
 --------------------

 ------------
 cyanomethane
 ------------
 Symbolic Z-matrix:
 Charge =  0 Multiplicity = 1

                         Standard orientation:
 ---------------------------------------------------------------------
 Center     Atomic      Atomic             Coordinates (Angstroms)
 Number     Number       Type             X           Y           Z
 ---------------------------------------------------------------------
      1          6           0        1.176999    0.010928   -0.001935
      2          6           0       -0.284664    0.009896   -0.016448
      3          7           0       -1.437350   -0.008338    0.012072
      4          1           0        1.619169   -0.319429    0.965378
      5          1           0        1.533848    0.970857   -0.215798
      6          1           0        1.554426   -0.718009   -0.723790
 ---------------------------------------------------------------------

 SCF Done:  E(RB2PLYPD3) =  -132.533405123     A.U. after   12 cycles
 E2(B2PLYPD3) =    -0.1803607014D+00 E(B2PLYPD3) =    -0.13271376582423D+03

 The electronic state is 1-A.
 Alpha  occ. eigenvalues --  -14.84246 -10.66977 -10.66324  -1.04215  -0.89228
 Alpha  occ. eigenvalues --   -0.60118  -0.54926  -0.52605  -0.44863  -0.39306
 Alpha  occ. eigenvalues --   -0.39021
 Alpha virt. eigenvalues --    0.03728   0.07515   0.08345   0.10181   0.11243
 Alpha virt. eigenvalues --    0.11671   0.15427   0.16301   0.16819   0.20002
 Alpha virt. eigenvalues --    0.20152   0.25293   0.32705   0.34207   0.35288

 Mulliken charges:
               1
     1  C   -0.075449
     2  C   -0.000336
     3  N   -0.204745
     4  H    0.089330
     5  H    0.098685
     6  H    0.092515
 Sum of Mulliken charges =   0.00000

 Dipole moment (field-independent basis, Debye):
    X=              4.1355    Y=              0.0026    Z=             -0.0184  Tot=              4.1356
 Quadrupole moment (field-independent basis, Debye-Ang):
   XX=            -20.8398   YY=            -17.6830   ZZ=            -17.9026
   XY=             -0.1075   XZ=              0.1238   YZ=             -0.0074

 Normal termination of Gaussian 09 at Thu Aug 27 00:08:50 2020.
