 Gaussian 09, Revision D.01,
 Gaussian 09:  ES64L-G09RevD.01 24-Apr-2013

 --------------------
 #p B2PLYPD3/Def2QZVP
 --------------------

 ------------
 cyanomethane
 ------------
 Symbolic Z-matrix:
 Charge =  0 Multiplicity = 1

                         Standard orientation:
 ---------------------------------------------------------------------
 Center     Atomic      Atomic             Coordinates (Angstroms)
 Number     Number       Type             X           Y           Z
 ---------------------------------------------------------------------
      1          6           0        1.169873   -0.003573   -0.006989
      2          6           0       -0.282230   -0.015880    0.008961
      3          7           0       -1.427830    0.011446   -0.007524
      4          1           0        1.608167    0.971617   -0.375754
      5          1           0        1.557742   -0.814367   -0.600629
      6          1           0        1.503042   -0.120659    1.017220
 ---------------------------------------------------------------------

 SCF Done:  E(RB2PLYPD3) =  -132.534324923     A.U. after   12 cycles
 E2(B2PLYPD3) =    -0.1798827530D+00 E(B2PLYPD3) =    -0.13271420767618D+03

 The electronic state is 1-A.
 Alpha  occ. eigenvalues --  -14.83971 -10.67243 -10.66006  -1.04487  -0.89123
 Alpha  occ. eigenvalues --   -0.59789  -0.54291  -0.53017  -0.44792  -0.39319
 Alpha  occ. eigenvalues --   -0.39137
 Alpha virt. eigenvalues --    0.03690   0.07567   0.08290   0.10173   0.11513
 Alpha virt. eigenvalues --    0.11720   0.15483   0.15954   0.16994   0.20031
 Alpha virt. eigenvalues --    0.20096   0.25482   0.32785   0.34178   0.34893

 Mulliken charges:
               1
     1  C   -0.085228
     2  C   -0.001761
     3  N   -0.201454
     4  H    0.093960
     5  H    0.098616
     6  H    0.095866
 Sum of Mulliken charges =   0.00000

 Dipole moment (field-independent basis, Debye):
    X=              4.1093    Y=             -0.0259    Z=              0.0337  Tot=              4.1096
 Quadrupole moment (field-independent basis, Debye-Ang):
   XX=            -20.9623   YY=            -17.7038   ZZ=            -17.7830
   XY=              0.0941   XZ=             -0.0514   YZ=              0.0420

 Normal termination of Gaussian 09 at Wed Aug 26 10:22:20 2020.
