 Gaussian 09, Revision D.01,
 Gaussian 09:  ES64L-G09RevD.01 24-Apr-2013

 --------------------
 #p B2PLYPD3/Def2QZVP
 --------------------

 ------------
 cyanomethane
 ------------
 Symbolic Z-matrix:
 Charge =  0 Multiplicity = 1

                         Standard orientation:
 ---------------------------------------------------------------------
 Center     Atomic      Atomic             Coordinates (Angstroms)
 Number     Number       Type             X           Y           Z
 ---------------------------------------------------------------------
      1          6           0        1.170745   -0.007747    0.016926
      2          6           0       -0.286639    0.000474   -0.027623
      3          7           0       -1.439262   -0.004381    0.016203
      4          1           0        1.636724    0.059085    1.010224
      5          1           0        1.507090    0.925123   -0.557119
      6          1           0        1.626385   -0.909903   -0.502336
 ---------------------------------------------------------------------

 SCF Done:  E(RB2PLYPD3) =  -132.529768094     A.U. after   12 cycles
 E2(B2PLYPD3) =    -0.1810727977D+00 E(B2PLYPD3) =    -0.13271084089192D+03

 The electronic state is 1-A.
 Alpha  occ. eigenvalues --  -14.84340 -10.68230 -10.66457  -1.04271  -0.88300
 Alpha  occ. eigenvalues --   -0.60119  -0.52789  -0.52428  -0.44950  -0.39173
 Alpha  occ. eigenvalues --   -0.38926
 Alpha virt. eigenvalues --    0.03532   0.07132   0.07413   0.10088   0.11558
 Alpha virt. eigenvalues --    0.11696   0.15368   0.15921   0.17406   0.20042
 Alpha virt. eigenvalues --    0.20168   0.25443   0.32330   0.33387   0.34618

 Mulliken charges:
               1
     1  C   -0.089452
     2  C    0.005188
     3  N   -0.203452
     4  H    0.099119
     5  H    0.093197
     6  H    0.095400
 Sum of Mulliken charges =   0.00000

 Dipole moment (field-independent basis, Debye):
    X=              4.1167    Y=              0.0205    Z=             -0.0171  Tot=              4.1168
 Quadrupole moment (field-independent basis, Debye-Ang):
   XX=            -20.8900   YY=            -17.8353   ZZ=            -17.9040
   XY=             -0.0754   XZ=              0.1613   YZ=              0.0188

 Normal termination of Gaussian 09 at Wed Aug 26 09:57:09 2020.
