 Gaussian 09, Revision D.01,
 Gaussian 09:  ES64L-G09RevD.01 24-Apr-2013

 --------------------
 #p B2PLYPD3/Def2QZVP
 --------------------

 ------------
 cyanomethane
 ------------
 Symbolic Z-matrix:
 Charge =  0 Multiplicity = 1

                         Standard orientation:
 ---------------------------------------------------------------------
 Center     Atomic      Atomic             Coordinates (Angstroms)
 Number     Number       Type             X           Y           Z
 ---------------------------------------------------------------------
      1          6           0        1.164981   -0.003711    0.014865
      2          6           0       -0.264143   -0.005310   -0.043498
      3          7           0       -1.438920    0.007348    0.016194
      4          1           0        1.632092    0.976026   -0.375543
      5          1           0        1.551826   -0.841550   -0.594333
      6          1           0        1.483490   -0.131777    1.028316
 ---------------------------------------------------------------------

 SCF Done:  E(RB2PLYPD3) =  -132.528926968     A.U. after   12 cycles
 E2(B2PLYPD3) =    -0.1827376917D+00 E(B2PLYPD3) =    -0.13271166465944D+03

 The electronic state is 1-A.
 Alpha  occ. eigenvalues --  -14.84823 -10.67513 -10.66829  -1.03365  -0.89371
 Alpha  occ. eigenvalues --   -0.60201  -0.54262  -0.52918  -0.44943  -0.38442
 Alpha  occ. eigenvalues --   -0.38338
 Alpha virt. eigenvalues --    0.03598   0.06717   0.07358   0.10057   0.11340
 Alpha virt. eigenvalues --    0.11502   0.15513   0.15974   0.16536   0.20154
 Alpha virt. eigenvalues --    0.20220   0.25914   0.32251   0.33933   0.34740

 Mulliken charges:
               1
     1  C   -0.085795
     2  C    0.004794
     3  N   -0.215558
     4  H    0.094683
     5  H    0.098285
     6  H    0.103592
 Sum of Mulliken charges =   0.00000

 Dipole moment (field-independent basis, Debye):
    X=              4.1387    Y=             -0.0263    Z=              0.0045  Tot=              4.1387
 Quadrupole moment (field-independent basis, Debye-Ang):
   XX=            -21.0326   YY=            -17.8107   ZZ=            -17.8594
   XY=              0.0749   XZ=              0.0506   YZ=              0.0178

 Normal termination of Gaussian 09 at Wed Aug 26 16:16:11 2020.
