 Gaussian 09, Revision D.01,
 Gaussian 09:  ES64L-G09RevD.01 24-Apr-2013

 --------------------
 #p B2PLYPD3/Def2QZVP
 --------------------

 ------------
 cyanomethane
 ------------
 Symbolic Z-matrix:
 Charge =  0 Multiplicity = 1

                         Standard orientation:
 ---------------------------------------------------------------------
 Center     Atomic      Atomic             Coordinates (Angstroms)
 Number     Number       Type             X           Y           Z
 ---------------------------------------------------------------------
      1          6           0        1.187113   -0.006383   -0.004492
      2          6           0       -0.284679   -0.003002    0.015628
      3          7           0       -1.432320    0.001719   -0.008736
      4          1           0        1.535343    0.954422   -0.347782
      5          1           0        1.551203   -0.756186   -0.638991
      6          1           0        1.525085   -0.153959    0.981108
 ---------------------------------------------------------------------

 SCF Done:  E(RB2PLYPD3) =  -132.534582144     A.U. after   11 cycles
 E2(B2PLYPD3) =    -0.1795081437D+00 E(B2PLYPD3) =    -0.13271409028762D+03

 The electronic state is 1-A.
 Alpha  occ. eigenvalues --  -14.83960 -10.66327 -10.66034  -1.04320  -0.89695
 Alpha  occ. eigenvalues --   -0.59574  -0.55047  -0.54215  -0.44694  -0.39387
 Alpha  occ. eigenvalues --   -0.39265
 Alpha virt. eigenvalues --    0.03894   0.08371   0.08659   0.10232   0.11309
 Alpha virt. eigenvalues --    0.11458   0.15376   0.16074   0.16579   0.20045
 Alpha virt. eigenvalues --    0.20088   0.25080   0.32871   0.34819   0.35426

 Mulliken charges:
               1
     1  C   -0.077631
     2  C   -0.005021
     3  N   -0.203630
     4  H    0.093820
     5  H    0.096932
     6  H    0.095530
 Sum of Mulliken charges =   0.00000

 Dipole moment (field-independent basis, Debye):
    X=              4.1311    Y=              0.0011    Z=              0.0175  Tot=              4.1312
 Quadrupole moment (field-independent basis, Debye-Ang):
   XX=            -20.9600   YY=            -17.6941   ZZ=            -17.6814
   XY=              0.0110   XZ=             -0.0552   YZ=              0.0237

 Normal termination of Gaussian 09 at Thu Aug 27 00:14:37 2020.
