 Gaussian 09, Revision D.01,
 Gaussian 09:  ES64L-G09RevD.01 24-Apr-2013

 --------------------
 #p B2PLYPD3/Def2QZVP
 --------------------

 ------------
 cyanomethane
 ------------
 Symbolic Z-matrix:
 Charge =  0 Multiplicity = 1

                         Standard orientation:
 ---------------------------------------------------------------------
 Center     Atomic      Atomic             Coordinates (Angstroms)
 Number     Number       Type             X           Y           Z
 ---------------------------------------------------------------------
      1          6           0        1.183215    0.009355   -0.000109
      2          6           0       -0.275257   -0.008147   -0.018745
      3          7           0       -1.433450    0.002180    0.006466
      4          1           0        1.526047    1.005690   -0.248383
      5          1           0        1.570847   -0.752478   -0.704733
      6          1           0        1.489508   -0.275722    1.020986
 ---------------------------------------------------------------------

 SCF Done:  E(RB2PLYPD3) =  -132.534351779     A.U. after   12 cycles
 E2(B2PLYPD3) =    -0.1809013670D+00 E(B2PLYPD3) =    -0.13271525314641D+03

 The electronic state is 1-A.
 Alpha  occ. eigenvalues --  -14.84197 -10.67452 -10.66272  -1.03890  -0.89125
 Alpha  occ. eigenvalues --   -0.59049  -0.54555  -0.53542  -0.44689  -0.38966
 Alpha  occ. eigenvalues --   -0.38796
 Alpha virt. eigenvalues --    0.03703   0.07769   0.07969   0.10174   0.11303
 Alpha virt. eigenvalues --    0.11521   0.15281   0.15874   0.16266   0.20087
 Alpha virt. eigenvalues --    0.20151   0.25298   0.32552   0.34040   0.34782

 Mulliken charges:
               1
     1  C   -0.096093
     2  C   -0.001784
     3  N   -0.208856
     4  H    0.105102
     5  H    0.100065
     6  H    0.101566
 Sum of Mulliken charges =   0.00000

 Dipole moment (field-independent basis, Debye):
    X=              4.1203    Y=             -0.0087    Z=              0.0033  Tot=              4.1203
 Quadrupole moment (field-independent basis, Debye-Ang):
   XX=            -21.2200   YY=            -17.6537   ZZ=            -17.7808
   XY=             -0.0246   XZ=              0.0047   YZ=             -0.0186

 Normal termination of Gaussian 09 at Wed Aug 26 09:58:46 2020.
