 Gaussian 09, Revision D.01,
 Gaussian 09:  ES64L-G09RevD.01 24-Apr-2013

 --------------------
 #p B2PLYPD3/Def2QZVP
 --------------------

 ------------
 cyanomethane
 ------------
 Symbolic Z-matrix:
 Charge =  0 Multiplicity = 1

                         Standard orientation:
 ---------------------------------------------------------------------
 Center     Atomic      Atomic             Coordinates (Angstroms)
 Number     Number       Type             X           Y           Z
 ---------------------------------------------------------------------
      1          6           0        1.174865   -0.001853   -0.020320
      2          6           0       -0.277529    0.000402   -0.023921
      3          7           0       -1.437890    0.000551    0.011513
      4          1           0        1.575260    1.039763   -0.098058
      5          1           0        1.591832   -0.664449   -0.702603
      6          1           0        1.514118   -0.370466    0.985515
 ---------------------------------------------------------------------

 SCF Done:  E(RB2PLYPD3) =  -132.530943532     A.U. after   12 cycles
 E2(B2PLYPD3) =    -0.1811699438D+00 E(B2PLYPD3) =    -0.13271211347593D+03

 The electronic state is 1-A.
 Alpha  occ. eigenvalues --  -14.84410 -10.67217 -10.66501  -1.03904  -0.89270
 Alpha  occ. eigenvalues --   -0.60297  -0.54859  -0.52445  -0.44865  -0.39108
 Alpha  occ. eigenvalues --   -0.38637
 Alpha virt. eigenvalues --    0.03657   0.07343   0.08007   0.10150   0.11157
 Alpha virt. eigenvalues --    0.11748   0.15422   0.15909   0.17030   0.20051
 Alpha virt. eigenvalues --    0.20197   0.25423   0.32603   0.33444   0.35337

 Mulliken charges:
               1
     1  C   -0.080626
     2  C    0.002574
     3  N   -0.209015
     4  H    0.097415
     5  H    0.100161
     6  H    0.089492
 Sum of Mulliken charges =   0.00000

 Dipole moment (field-independent basis, Debye):
    X=              4.1417    Y=             -0.0243    Z=              0.0177  Tot=              4.1418
 Quadrupole moment (field-independent basis, Debye-Ang):
   XX=            -20.9371   YY=            -17.6535   ZZ=            -17.9536
   XY=             -0.0476   XZ=              0.0977   YZ=              0.0827

 Normal termination of Gaussian 09 at Wed Aug 26 14:41:25 2020.
