 Gaussian 09, Revision D.01,
 Gaussian 09:  ES64L-G09RevD.01 24-Apr-2013

 --------------------
 #p B2PLYPD3/Def2QZVP
 --------------------

 ------------
 cyanomethane
 ------------
 Symbolic Z-matrix:
 Charge =  0 Multiplicity = 1

                         Standard orientation:
 ---------------------------------------------------------------------
 Center     Atomic      Atomic             Coordinates (Angstroms)
 Number     Number       Type             X           Y           Z
 ---------------------------------------------------------------------
      1          6           0        1.156738   -0.035681   -0.008391
      2          6           0       -0.276797    0.027955   -0.069971
      3          7           0       -1.417756   -0.009470    0.047525
      4          1           0        1.684356   -0.069961    1.006645
      5          1           0        1.506068    1.010214   -0.345953
      6          1           0        1.454218   -0.827610   -0.523196
 ---------------------------------------------------------------------

 SCF Done:  E(RB2PLYPD3) =  -132.515637044     A.U. after   12 cycles
 E2(B2PLYPD3) =    -0.1805313769D+00 E(B2PLYPD3) =    -0.13269616842046D+03

 The electronic state is 1-A.
 Alpha  occ. eigenvalues --  -14.84076 -10.66968 -10.65987  -1.04558  -0.89662
 Alpha  occ. eigenvalues --   -0.60507  -0.56584  -0.50672  -0.44895  -0.39495
 Alpha  occ. eigenvalues --   -0.38496
 Alpha virt. eigenvalues --    0.03405   0.06462   0.08774   0.09946   0.11204
 Alpha virt. eigenvalues --    0.12118   0.15594   0.15792   0.17504   0.19913
 Alpha virt. eigenvalues --    0.20317   0.26097   0.32206   0.33180   0.35733

 Mulliken charges:
               1
     1  C   -0.087514
     2  C    0.005295
     3  N   -0.202003
     4  H    0.085745
     5  H    0.090548
     6  H    0.107929
 Sum of Mulliken charges =   0.00000

 Dipole moment (field-independent basis, Debye):
    X=              4.0637    Y=              0.0286    Z=             -0.0383  Tot=              4.0640
 Quadrupole moment (field-independent basis, Debye-Ang):
   XX=            -20.9263   YY=            -17.4767   ZZ=            -18.0488
   XY=              0.0019   XZ=              0.5191   YZ=              0.1764

 Normal termination of Gaussian 09 at Wed Aug 26 22:23:11 2020.
