 Gaussian 09, Revision D.01,
 Gaussian 09:  ES64L-G09RevD.01 24-Apr-2013

 --------------------
 #p B2PLYPD3/Def2QZVP
 --------------------

 ------------
 cyanomethane
 ------------
 Symbolic Z-matrix:
 Charge =  0 Multiplicity = 1

                         Standard orientation:
 ---------------------------------------------------------------------
 Center     Atomic      Atomic             Coordinates (Angstroms)
 Number     Number       Type             X           Y           Z
 ---------------------------------------------------------------------
      1          6           0       -1.178187    0.002465   -0.004820
      2          6           0        0.273492    0.013265   -0.004356
      3          7           0        1.430435   -0.010252    0.005986
      4          1           0       -1.479808    1.012714   -0.193390
      5          1           0       -1.582552   -0.343645    0.975632
      6          1           0       -1.522515   -0.691684   -0.769090
 ---------------------------------------------------------------------

 SCF Done:  E(RB2PLYPD3) =  -132.533991228     A.U. after   12 cycles
 E2(B2PLYPD3) =    -0.1807248410D+00 E(B2PLYPD3) =    -0.13271471606892D+03

 The electronic state is 1-A.
 Alpha  occ. eigenvalues --  -14.84163 -10.67167 -10.66206  -1.03969  -0.89397
 Alpha  occ. eigenvalues --   -0.59301  -0.54980  -0.53375  -0.44707  -0.38967
 Alpha  occ. eigenvalues --   -0.38835
 Alpha virt. eigenvalues --    0.03730   0.07572   0.08265   0.10163   0.11327
 Alpha virt. eigenvalues --    0.11566   0.15355   0.15871   0.16396   0.20086
 Alpha virt. eigenvalues --    0.20159   0.25419   0.32703   0.34224   0.34816

 Mulliken charges:
               1
     1  C   -0.092116
     2  C   -0.002032
     3  N   -0.208438
     4  H    0.103955
     5  H    0.097075
     6  H    0.101556
 Sum of Mulliken charges =   0.00000

 Dipole moment (field-independent basis, Debye):
    X=             -4.1181    Y=              0.0113    Z=             -0.0092  Tot=              4.1182
 Quadrupole moment (field-independent basis, Debye-Ang):
   XX=            -21.1673   YY=            -17.6363   ZZ=            -17.7836
   XY=              0.1205   XZ=             -0.0906   YZ=              0.0123

 Normal termination of Gaussian 09 at Wed Aug 26 21:25:47 2020.
