 Gaussian 09, Revision D.01,
 Gaussian 09:  ES64L-G09RevD.01 24-Apr-2013

 --------------------
 #p B2PLYPD3/Def2QZVP
 --------------------

 ------------
 cyanomethane
 ------------
 Symbolic Z-matrix:
 Charge =  0 Multiplicity = 1

                         Standard orientation:
 ---------------------------------------------------------------------
 Center     Atomic      Atomic             Coordinates (Angstroms)
 Number     Number       Type             X           Y           Z
 ---------------------------------------------------------------------
      1          6           0       -1.152171    0.006940    0.002295
      2          6           0        0.249770   -0.001133   -0.062969
      3          7           0        1.435433    0.001778    0.019737
      4          1           0       -1.611857   -0.943083   -0.488231
      5          1           0       -1.643566    0.956140   -0.411335
      6          1           0       -1.378204   -0.060348    1.125448
 ---------------------------------------------------------------------

 SCF Done:  E(RB2PLYPD3) =  -132.519031049     A.U. after   13 cycles
 E2(B2PLYPD3) =    -0.1845330928D+00 E(B2PLYPD3) =    -0.13270356414196D+03

 The electronic state is 1-A.
 Alpha  occ. eigenvalues --  -14.85040 -10.68563 -10.67043  -1.02947  -0.89156
 Alpha  occ. eigenvalues --   -0.59869  -0.53265  -0.52788  -0.44948  -0.37960
 Alpha  occ. eigenvalues --   -0.37623
 Alpha virt. eigenvalues --    0.03315   0.06090   0.06320   0.10024   0.11322
 Alpha virt. eigenvalues --    0.11777   0.15252   0.15656   0.16698   0.20231
 Alpha virt. eigenvalues --    0.20280   0.26305   0.31798   0.33201   0.33962

 Mulliken charges:
               1
     1  C   -0.105235
     2  C    0.010727
     3  N   -0.220961
     4  H    0.101841
     5  H    0.105469
     6  H    0.108160
 Sum of Mulliken charges =   0.00000

 Dipole moment (field-independent basis, Debye):
    X=             -4.1390    Y=             -0.0064    Z=              0.0265  Tot=              4.1390
 Quadrupole moment (field-independent basis, Debye-Ang):
   XX=            -21.2322   YY=            -17.7827   ZZ=            -17.9585
   XY=             -0.0322   XZ=              0.0209   YZ=             -0.0208

 Normal termination of Gaussian 09 at Wed Aug 26 21:49:31 2020.
