 Gaussian 09, Revision D.01,
 Gaussian 09:  ES64L-G09RevD.01 24-Apr-2013

 --------------------
 #p B2PLYPD3/Def2QZVP
 --------------------

 ------------
 cyanomethane
 ------------
 Symbolic Z-matrix:
 Charge =  0 Multiplicity = 1

                         Standard orientation:
 ---------------------------------------------------------------------
 Center     Atomic      Atomic             Coordinates (Angstroms)
 Number     Number       Type             X           Y           Z
 ---------------------------------------------------------------------
      1          6           0       -1.175882   -0.000485    0.011043
      2          6           0        0.278770    0.017495   -0.002282
      3          7           0        1.427984   -0.009363   -0.000996
      4          1           0       -1.524301   -0.148859    1.007166
      5          1           0       -1.548596   -0.849786   -0.641876
      6          1           0       -1.540321    0.962124   -0.410888
 ---------------------------------------------------------------------

 SCF Done:  E(RB2PLYPD3) =  -132.533846365     A.U. after   11 cycles
 E2(B2PLYPD3) =    -0.1802144733D+00 E(B2PLYPD3) =    -0.13271406083879D+03

 The electronic state is 1-A.
 Alpha  occ. eigenvalues --  -14.83984 -10.67530 -10.66025  -1.04284  -0.89006
 Alpha  occ. eigenvalues --   -0.59255  -0.54436  -0.53089  -0.44710  -0.39189
 Alpha  occ. eigenvalues --   -0.38990
 Alpha virt. eigenvalues --    0.03665   0.07620   0.08147   0.10169   0.11453
 Alpha virt. eigenvalues --    0.11675   0.15372   0.16093   0.16333   0.20046
 Alpha virt. eigenvalues --    0.20101   0.25386   0.32603   0.33817   0.34839

 Mulliken charges:
               1
     1  C   -0.095593
     2  C   -0.002294
     3  N   -0.203772
     4  H    0.103871
     5  H    0.097626
     6  H    0.100162
 Sum of Mulliken charges =   0.00000

 Dipole moment (field-independent basis, Debye):
    X=             -4.1015    Y=              0.0102    Z=              0.0089  Tot=              4.1015
 Quadrupole moment (field-independent basis, Debye-Ang):
   XX=            -21.1650   YY=            -17.7024   ZZ=            -17.7161
   XY=              0.0674   XZ=              0.0090   YZ=             -0.0353

 Normal termination of Gaussian 09 at Wed Aug 26 23:59:35 2020.
