 Gaussian 09, Revision D.01,
 Gaussian 09:  ES64L-G09RevD.01 24-Apr-2013

 --------------------
 #p B2PLYPD3/Def2QZVP
 --------------------

 ------------
 cyanomethane
 ------------
 Symbolic Z-matrix:
 Charge =  0 Multiplicity = 1

                         Standard orientation:
 ---------------------------------------------------------------------
 Center     Atomic      Atomic             Coordinates (Angstroms)
 Number     Number       Type             X           Y           Z
 ---------------------------------------------------------------------
      1          6           0       -1.179362   -0.008010    0.008058
      2          6           0        0.280436    0.022766    0.004470
      3          7           0        1.427820   -0.009988   -0.002907
      4          1           0       -1.532940   -0.293699    0.973197
      5          1           0       -1.520569   -0.725252   -0.761341
      6          1           0       -1.547671    1.000331   -0.266675
 ---------------------------------------------------------------------

 SCF Done:  E(RB2PLYPD3) =  -132.535239782     A.U. after   11 cycles
 E2(B2PLYPD3) =    -0.1799281096D+00 E(B2PLYPD3) =    -0.13271516789156D+03

 The electronic state is 1-A.
 Alpha  occ. eigenvalues --  -14.83924 -10.67269 -10.65972  -1.04329  -0.89123
 Alpha  occ. eigenvalues --   -0.59193  -0.54539  -0.53471  -0.44682  -0.39260
 Alpha  occ. eigenvalues --   -0.39084
 Alpha virt. eigenvalues --    0.03734   0.07924   0.08237   0.10186   0.11431
 Alpha virt. eigenvalues --    0.11623   0.15358   0.16020   0.16399   0.20045
 Alpha virt. eigenvalues --    0.20087   0.25314   0.32719   0.34116   0.34927

 Mulliken charges:
               1
     1  C   -0.093146
     2  C   -0.003609
     3  N   -0.203232
     4  H    0.102880
     5  H    0.099479
     6  H    0.097628
 Sum of Mulliken charges =   0.00000

 Dipole moment (field-independent basis, Debye):
    X=             -4.1050    Y=              0.0120    Z=              0.0014  Tot=              4.1050
 Quadrupole moment (field-independent basis, Debye-Ang):
   XX=            -21.1452   YY=            -17.7185   ZZ=            -17.6669
   XY=              0.0420   XZ=              0.0200   YZ=             -0.0200

 Normal termination of Gaussian 09 at Wed Aug 26 19:46:33 2020.
