 Gaussian 09, Revision D.01,
 Gaussian 09:  ES64L-G09RevD.01 24-Apr-2013

 --------------------
 #p B2PLYPD3/Def2QZVP
 --------------------

 ------------
 cyanomethane
 ------------
 Symbolic Z-matrix:
 Charge =  0 Multiplicity = 1

                         Standard orientation:
 ---------------------------------------------------------------------
 Center     Atomic      Atomic             Coordinates (Angstroms)
 Number     Number       Type             X           Y           Z
 ---------------------------------------------------------------------
      1          6           0       -1.177381    0.011273   -0.000486
      2          6           0        0.274082    0.006588   -0.015338
      3          7           0        1.430075   -0.007720    0.008718
      4          1           0       -1.489209    0.936439   -0.420851
      5          1           0       -1.542792   -0.114992    1.043912
      6          1           0       -1.558732   -0.874576   -0.589146
 ---------------------------------------------------------------------

 SCF Done:  E(RB2PLYPD3) =  -132.532928211     A.U. after   11 cycles
 E2(B2PLYPD3) =    -0.1807857018D+00 E(B2PLYPD3) =    -0.13271371391318D+03

 The electronic state is 1-A.
 Alpha  occ. eigenvalues --  -14.84143 -10.67477 -10.66183  -1.04004  -0.89180
 Alpha  occ. eigenvalues --   -0.59144  -0.54967  -0.52960  -0.44707  -0.39014
 Alpha  occ. eigenvalues --   -0.38777
 Alpha virt. eigenvalues --    0.03661   0.07410   0.08201   0.10159   0.11308
 Alpha virt. eigenvalues --    0.11656   0.15339   0.16006   0.16221   0.20063
 Alpha virt. eigenvalues --    0.20160   0.25416   0.32569   0.33800   0.34868

 Mulliken charges:
               1
     1  C   -0.096059
     2  C   -0.001683
     3  N   -0.207643
     4  H    0.106680
     5  H    0.100168
     6  H    0.098536
 Sum of Mulliken charges =   0.00000

 Dipole moment (field-independent basis, Debye):
    X=             -4.1104    Y=              0.0085    Z=             -0.0045  Tot=              4.1104
 Quadrupole moment (field-independent basis, Debye-Ang):
   XX=            -21.2123   YY=            -17.6515   ZZ=            -17.7754
   XY=              0.1070   XZ=             -0.0789   YZ=             -0.0555

 Normal termination of Gaussian 09 at Wed Aug 26 10:07:22 2020.
