 Gaussian 09, Revision D.01,
 Gaussian 09:  ES64L-G09RevD.01 24-Apr-2013

 --------------------
 #p B2PLYPD3/Def2QZVP
 --------------------

 ------------
 cyanomethane
 ------------
 Symbolic Z-matrix:
 Charge =  0 Multiplicity = 1

                         Standard orientation:
 ---------------------------------------------------------------------
 Center     Atomic      Atomic             Coordinates (Angstroms)
 Number     Number       Type             X           Y           Z
 ---------------------------------------------------------------------
      1          6           0       -1.151433    0.013887   -0.018137
      2          6           0        0.283732    0.028824   -0.026327
      3          7           0        1.430710   -0.022868    0.022105
      4          1           0       -1.520003    0.998474   -0.010214
      5          1           0       -1.710279   -0.498207    0.943801
      6          1           0       -1.578483   -0.596459   -0.821532
 ---------------------------------------------------------------------

 SCF Done:  E(RB2PLYPD3) =  -132.521451338     A.U. after   12 cycles
 E2(B2PLYPD3) =    -0.1808636967D+00 E(B2PLYPD3) =    -0.13270231503438D+03

 The electronic state is 1-A.
 Alpha  occ. eigenvalues --  -14.84308 -10.67760 -10.66274  -1.04577  -0.88939
 Alpha  occ. eigenvalues --   -0.60707  -0.55134  -0.50369  -0.45061  -0.39456
 Alpha  occ. eigenvalues --   -0.38670
 Alpha virt. eigenvalues --    0.03119   0.06384   0.08190   0.10073   0.11318
 Alpha virt. eigenvalues --    0.12171   0.15595   0.16603   0.17211   0.19884
 Alpha virt. eigenvalues --    0.20273   0.25812   0.31615   0.33496   0.35423

 Mulliken charges:
               1
     1  C   -0.077710
     2  C    0.003765
     3  N   -0.200132
     4  H    0.099664
     5  H    0.078848
     6  H    0.095566
 Sum of Mulliken charges =   0.00000

 Dipole moment (field-independent basis, Debye):
    X=             -4.0978    Y=              0.0424    Z=             -0.0586  Tot=              4.0984
 Quadrupole moment (field-independent basis, Debye-Ang):
   XX=            -20.6960   YY=            -17.7354   ZZ=            -18.0548
   XY=              0.2265   XZ=             -0.1888   YZ=              0.1303

 Normal termination of Gaussian 09 at Wed Aug 26 22:05:58 2020.
