 Gaussian 09, Revision D.01,
 Gaussian 09:  ES64L-G09RevD.01 24-Apr-2013

 --------------------
 #p B2PLYPD3/Def2QZVP
 --------------------

 ------------
 cyanomethane
 ------------
 Symbolic Z-matrix:
 Charge =  0 Multiplicity = 1

                         Standard orientation:
 ---------------------------------------------------------------------
 Center     Atomic      Atomic             Coordinates (Angstroms)
 Number     Number       Type             X           Y           Z
 ---------------------------------------------------------------------
      1          6           0        1.183960    0.003592    0.012538
      2          6           0       -0.277334    0.002958   -0.041049
      3          7           0       -1.444111   -0.001420    0.010058
      4          1           0        1.603343    0.984854   -0.211368
      5          1           0        1.658473   -0.743434   -0.620359
      6          1           0        1.407199   -0.270779    0.932385
 ---------------------------------------------------------------------

 SCF Done:  E(RB2PLYPD3) =  -132.524876965     A.U. after   12 cycles
 E2(B2PLYPD3) =    -0.1813300167D+00 E(B2PLYPD3) =    -0.13270620698180D+03

 The electronic state is 1-A.
 Alpha  occ. eigenvalues --  -14.84626 -10.66750 -10.66115  -1.03646  -0.90173
 Alpha  occ. eigenvalues --   -0.60418  -0.55481  -0.53596  -0.44881  -0.38938
 Alpha  occ. eigenvalues --   -0.38806
 Alpha virt. eigenvalues --    0.03863   0.07486   0.08344   0.10268   0.11118
 Alpha virt. eigenvalues --    0.11432   0.15365   0.15876   0.17070   0.20117
 Alpha virt. eigenvalues --    0.20193   0.25326   0.32275   0.34939   0.35548

 Mulliken charges:
               1
     1  C   -0.073434
     2  C    0.003310
     3  N   -0.213217
     4  H    0.094406
     5  H    0.086830
     6  H    0.102104
 Sum of Mulliken charges =   0.00000

 Dipole moment (field-independent basis, Debye):
    X=              4.1674    Y=             -0.0262    Z=              0.0369  Tot=              4.1676
 Quadrupole moment (field-independent basis, Debye-Ang):
   XX=            -20.7763   YY=            -17.6552   ZZ=            -17.9464
   XY=             -0.0661   XZ=             -0.0082   YZ=             -0.0599

 Normal termination of Gaussian 09 at Wed Aug 26 22:27:48 2020.
