 Gaussian 09, Revision D.01,
 Gaussian 09:  ES64L-G09RevD.01 24-Apr-2013

 --------------------
 #p B2PLYPD3/Def2QZVP
 --------------------

 ------------
 cyanomethane
 ------------
 Symbolic Z-matrix:
 Charge =  0 Multiplicity = 1

                         Standard orientation:
 ---------------------------------------------------------------------
 Center     Atomic      Atomic             Coordinates (Angstroms)
 Number     Number       Type             X           Y           Z
 ---------------------------------------------------------------------
      1          6           0       -1.151751   -0.003090   -0.019003
      2          6           0        0.273917    0.070965    0.012645
      3          7           0        1.424311   -0.042379   -0.002350
      4          1           0       -1.606805   -0.807663   -0.615898
      5          1           0       -1.488272    0.899198   -0.334460
      6          1           0       -1.608099   -0.202125    1.004955
 ---------------------------------------------------------------------

 SCF Done:  E(RB2PLYPD3) =  -132.525438588     A.U. after   12 cycles
 E2(B2PLYPD3) =    -0.1808979461D+00 E(B2PLYPD3) =    -0.13270633653383D+03

 The electronic state is 1-A.
 Alpha  occ. eigenvalues --  -14.84385 -10.66525 -10.66274  -1.04271  -0.89888
 Alpha  occ. eigenvalues --   -0.61007  -0.55437  -0.52049  -0.45012  -0.39136
 Alpha  occ. eigenvalues --   -0.38739
 Alpha virt. eigenvalues --    0.03526   0.06722   0.08527   0.09914   0.11278
 Alpha virt. eigenvalues --    0.11952   0.15630   0.16084   0.17435   0.19930
 Alpha virt. eigenvalues --    0.20328   0.26215   0.32941   0.34230   0.35147

 Mulliken charges:
               1
     1  C   -0.071093
     2  C    0.004767
     3  N   -0.205736
     4  H    0.091550
     5  H    0.097229
     6  H    0.083283
 Sum of Mulliken charges =   0.00000

 Dipole moment (field-independent basis, Debye):
    X=             -4.1024    Y=              0.0624    Z=              0.0027  Tot=              4.1028
 Quadrupole moment (field-independent basis, Debye-Ang):
   XX=            -20.7200   YY=            -17.6938   ZZ=            -17.9166
   XY=              0.3248   XZ=             -0.0302   YZ=             -0.0455

 Normal termination of Gaussian 09 at Wed Aug 26 16:39:34 2020.
