 Gaussian 09, Revision D.01,
 Gaussian 09:  ES64L-G09RevD.01 24-Apr-2013

 --------------------
 #p B2PLYPD3/Def2QZVP
 --------------------

 ------------
 cyanomethane
 ------------
 Symbolic Z-matrix:
 Charge =  0 Multiplicity = 1

                         Standard orientation:
 ---------------------------------------------------------------------
 Center     Atomic      Atomic             Coordinates (Angstroms)
 Number     Number       Type             X           Y           Z
 ---------------------------------------------------------------------
      1          6           0        1.177124    0.003325   -0.006844
      2          6           0       -0.286204   -0.015275    0.010894
      3          7           0       -1.432745    0.010336   -0.008442
      4          1           0        1.613642    0.933678   -0.420197
      5          1           0        1.559070   -0.850987   -0.562751
      6          1           0        1.510987   -0.083341    1.017740
 ---------------------------------------------------------------------

 SCF Done:  E(RB2PLYPD3) =  -132.535117635     A.U. after   12 cycles
 E2(B2PLYPD3) =    -0.1799047137D+00 E(B2PLYPD3) =    -0.13271502234900D+03

 The electronic state is 1-A.
 Alpha  occ. eigenvalues --  -14.84024 -10.67231 -10.66102  -1.04432  -0.89002
 Alpha  occ. eigenvalues --   -0.59714  -0.53916  -0.53408  -0.44794  -0.39327
 Alpha  occ. eigenvalues --   -0.39231
 Alpha virt. eigenvalues --    0.03723   0.07725   0.08295   0.10186   0.11496
 Alpha virt. eigenvalues --    0.11582   0.15413   0.15935   0.17053   0.20044
 Alpha virt. eigenvalues --    0.20078   0.25288   0.32739   0.34463   0.34799

 Mulliken charges:
               1
     1  C   -0.083587
     2  C   -0.001921
     3  N   -0.201773
     4  H    0.095659
     5  H    0.096410
     6  H    0.095212
 Sum of Mulliken charges =   0.00000

 Dipole moment (field-independent basis, Debye):
    X=              4.1196    Y=             -0.0228    Z=              0.0328  Tot=              4.1198
 Quadrupole moment (field-independent basis, Debye-Ang):
   XX=            -20.9324   YY=            -17.7130   ZZ=            -17.8016
   XY=              0.0868   XZ=             -0.0588   YZ=              0.0141

 Normal termination of Gaussian 09 at Thu Aug 27 00:07:18 2020.
