 Gaussian 09, Revision D.01,
 Gaussian 09:  ES64L-G09RevD.01 24-Apr-2013

 --------------------
 #p B2PLYPD3/Def2QZVP
 --------------------

 ------------
 cyanomethane
 ------------
 Symbolic Z-matrix:
 Charge =  0 Multiplicity = 1

                         Standard orientation:
 ---------------------------------------------------------------------
 Center     Atomic      Atomic             Coordinates (Angstroms)
 Number     Number       Type             X           Y           Z
 ---------------------------------------------------------------------
      1          6           0       -1.179604    0.009973   -0.005823
      2          6           0        0.281055   -0.018558   -0.018621
      3          7           0        1.427785    0.006987    0.010903
      4          1           0       -1.510110    0.962609   -0.344445
      5          1           0       -1.544998   -0.159507    1.031749
      6          1           0       -1.548095   -0.800500   -0.616963
 ---------------------------------------------------------------------

 SCF Done:  E(RB2PLYPD3) =  -132.535211455     A.U. after   11 cycles
 E2(B2PLYPD3) =    -0.1797930677D+00 E(B2PLYPD3) =    -0.13271500452261D+03

 The electronic state is 1-A.
 Alpha  occ. eigenvalues --  -14.83919 -10.67024 -10.65963  -1.04353  -0.89283
 Alpha  occ. eigenvalues --   -0.59294  -0.54977  -0.53352  -0.44688  -0.39320
 Alpha  occ. eigenvalues --   -0.39106
 Alpha virt. eigenvalues --    0.03762   0.07947   0.08414   0.10195   0.11371
 Alpha virt. eigenvalues --    0.11640   0.15380   0.16098   0.16403   0.20019
 Alpha virt. eigenvalues --    0.20106   0.25309   0.32804   0.34158   0.35184

 Mulliken charges:
               1
     1  C   -0.088845
     2  C   -0.004157
     3  N   -0.203067
     4  H    0.102490
     5  H    0.095060
     6  H    0.098519
 Sum of Mulliken charges =   0.00000

 Dipole moment (field-independent basis, Debye):
    X=             -4.1090    Y=             -0.0131    Z=             -0.0103  Tot=              4.1090
 Quadrupole moment (field-independent basis, Debye-Ang):
   XX=            -21.0947   YY=            -17.6183   ZZ=            -17.7631
   XY=              0.0004   XZ=             -0.0885   YZ=             -0.0066

 Normal termination of Gaussian 09 at Wed Aug 26 09:34:45 2020.
