 Gaussian 09, Revision D.01,
 Gaussian 09:  ES64L-G09RevD.01 24-Apr-2013

 --------------------
 #p B2PLYPD3/Def2QZVP
 --------------------

 ------------
 cyanomethane
 ------------
 Symbolic Z-matrix:
 Charge =  0 Multiplicity = 1

                         Standard orientation:
 ---------------------------------------------------------------------
 Center     Atomic      Atomic             Coordinates (Angstroms)
 Number     Number       Type             X           Y           Z
 ---------------------------------------------------------------------
      1          6           0       -1.190404   -0.011440   -0.011102
      2          6           0        0.288773   -0.005932   -0.026368
      3          7           0        1.435319    0.009820    0.020155
      4          1           0       -1.619133    0.014541    1.003003
      5          1           0       -1.445945   -0.898667   -0.455214
      6          1           0       -1.572369    0.919616   -0.464059
 ---------------------------------------------------------------------

 SCF Done:  E(RB2PLYPD3) =  -132.529670391     A.U. after   12 cycles
 E2(B2PLYPD3) =    -0.1798619072D+00 E(B2PLYPD3) =    -0.13270953229835D+03

 The electronic state is 1-A.
 Alpha  occ. eigenvalues --  -14.83992 -10.66934 -10.66090  -1.04340  -0.89262
 Alpha  occ. eigenvalues --   -0.59336  -0.56072  -0.52200  -0.44701  -0.39494
 Alpha  occ. eigenvalues --   -0.39111
 Alpha virt. eigenvalues --    0.03734   0.07623   0.08925   0.10238   0.11081
 Alpha virt. eigenvalues --    0.11712   0.15193   0.16133   0.16677   0.19940
 Alpha virt. eigenvalues --    0.20159   0.24958   0.32586   0.33955   0.35683

 Mulliken charges:
               1
     1  C   -0.084156
     2  C   -0.004377
     3  N   -0.202681
     4  H    0.088709
     5  H    0.105413
     6  H    0.097091
 Sum of Mulliken charges =   0.00000

 Dipole moment (field-independent basis, Debye):
    X=             -4.1256    Y=             -0.0102    Z=              0.0024  Tot=              4.1256
 Quadrupole moment (field-independent basis, Debye-Ang):
   XX=            -20.9900   YY=            -17.4978   ZZ=            -17.9593
   XY=             -0.1662   XZ=             -0.2866   YZ=              0.0661

 Normal termination of Gaussian 09 at Wed Aug 26 10:19:36 2020.
