 Gaussian 09, Revision D.01,
 Gaussian 09:  ES64L-G09RevD.01 24-Apr-2013

 --------------------
 #p B2PLYPD3/Def2QZVP
 --------------------

 ------------
 cyanomethane
 ------------
 Symbolic Z-matrix:
 Charge =  0 Multiplicity = 1

                         Standard orientation:
 ---------------------------------------------------------------------
 Center     Atomic      Atomic             Coordinates (Angstroms)
 Number     Number       Type             X           Y           Z
 ---------------------------------------------------------------------
      1          6           0       -1.152332    0.026889   -0.009062
      2          6           0        0.271629    0.046490   -0.034483
      3          7           0        1.421985   -0.042000    0.024145
      4          1           0       -1.356873    0.989116   -0.118562
      5          1           0       -1.690863   -0.417325    0.953734
      6          1           0       -1.621942   -0.718072   -0.742918
 ---------------------------------------------------------------------

 SCF Done:  E(RB2PLYPD3) =  -132.509727993     A.U. after   12 cycles
 E2(B2PLYPD3) =    -0.1814402937D+00 E(B2PLYPD3) =    -0.13269116828652D+03

 The electronic state is 1-A.
 Alpha  occ. eigenvalues --  -14.84294 -10.67210 -10.66188  -1.04295  -0.89929
 Alpha  occ. eigenvalues --   -0.60206  -0.56873  -0.50268  -0.44932  -0.39180
 Alpha  occ. eigenvalues --   -0.38293
 Alpha virt. eigenvalues --    0.03198   0.05915   0.08775   0.10001   0.11045
 Alpha virt. eigenvalues --    0.12282   0.15225   0.16345   0.17227   0.19824
 Alpha virt. eigenvalues --    0.20438   0.26038   0.32288   0.32889   0.35512

 Mulliken charges:
               1
     1  C   -0.086518
     2  C    0.001885
     3  N   -0.205563
     4  H    0.111184
     5  H    0.084880
     6  H    0.094132
 Sum of Mulliken charges =   0.00000

 Dipole moment (field-independent basis, Debye):
    X=             -4.0909    Y=              0.0251    Z=             -0.0304  Tot=              4.0910
 Quadrupole moment (field-independent basis, Debye-Ang):
   XX=            -20.8744   YY=            -17.4645   ZZ=            -18.1702
   XY=              0.5821   XZ=             -0.2408   YZ=              0.0104

 Normal termination of Gaussian 09 at Wed Aug 26 18:49:30 2020.
