 Gaussian 09, Revision D.01,
 Gaussian 09:  ES64L-G09RevD.01 24-Apr-2013

 --------------------
 #p B2PLYPD3/Def2QZVP
 --------------------

 ------------
 cyanomethane
 ------------
 Symbolic Z-matrix:
 Charge =  0 Multiplicity = 1

                         Standard orientation:
 ---------------------------------------------------------------------
 Center     Atomic      Atomic             Coordinates (Angstroms)
 Number     Number       Type             X           Y           Z
 ---------------------------------------------------------------------
      1          6           0       -1.176722   -0.006948    0.013077
      2          6           0        0.288959   -0.004392   -0.027520
      3          7           0        1.434132    0.001875    0.013151
      4          1           0       -1.553741    1.035270   -0.006539
      5          1           0       -1.579504   -0.486122    0.860658
      6          1           0       -1.579104   -0.494233   -0.859518
 ---------------------------------------------------------------------

 SCF Done:  E(RB2PLYPD3) =  -132.534711281     A.U. after   11 cycles
 E2(B2PLYPD3) =    -0.1796703131D+00 E(B2PLYPD3) =    -0.13271438159445D+03

 The electronic state is 1-A.
 Alpha  occ. eigenvalues --  -14.84051 -10.66852 -10.66133  -1.04506  -0.89184
 Alpha  occ. eigenvalues --   -0.60218  -0.54162  -0.53295  -0.44844  -0.39466
 Alpha  occ. eigenvalues --   -0.39296
 Alpha virt. eigenvalues --    0.03784   0.08000   0.08226   0.10183   0.11460
 Alpha virt. eigenvalues --    0.11586   0.15445   0.16260   0.17011   0.20021
 Alpha virt. eigenvalues --    0.20060   0.25274   0.32803   0.34381   0.35296

 Mulliken charges:
               1
     1  C   -0.073775
     2  C   -0.000916
     3  N   -0.201151
     4  H    0.090354
     5  H    0.095099
     6  H    0.090389
 Sum of Mulliken charges =   0.00000

 Dipole moment (field-independent basis, Debye):
    X=             -4.1255    Y=             -0.0086    Z=             -0.0242  Tot=              4.1256
 Quadrupole moment (field-independent basis, Debye-Ang):
   XX=            -20.8039   YY=            -17.7570   ZZ=            -17.7857
   XY=              0.0199   XZ=             -0.0627   YZ=             -0.0253

 Normal termination of Gaussian 09 at Wed Aug 26 23:58:17 2020.
