 Gaussian 09, Revision D.01,
 Gaussian 09:  ES64L-G09RevD.01 24-Apr-2013

 --------------------
 #p B2PLYPD3/Def2QZVP
 --------------------

 ------------
 cyanomethane
 ------------
 Symbolic Z-matrix:
 Charge =  0 Multiplicity = 1

                         Standard orientation:
 ---------------------------------------------------------------------
 Center     Atomic      Atomic             Coordinates (Angstroms)
 Number     Number       Type             X           Y           Z
 ---------------------------------------------------------------------
      1          6           0       -1.175393   -0.002639    0.007343
      2          6           0        0.279814    0.011354   -0.006191
      3          7           0        1.435240   -0.005629   -0.000453
      4          1           0       -1.561737    1.006587   -0.080733
      5          1           0       -1.520806   -0.439769    0.903422
      6          1           0       -1.590658   -0.579698   -0.826434
 ---------------------------------------------------------------------

 SCF Done:  E(RB2PLYPD3) =  -132.534991972     A.U. after   11 cycles
 E2(B2PLYPD3) =    -0.1804263595D+00 E(B2PLYPD3) =    -0.13271541833123D+03

 The electronic state is 1-A.
 Alpha  occ. eigenvalues --  -14.84257 -10.66750 -10.66314  -1.04106  -0.89486
 Alpha  occ. eigenvalues --   -0.60141  -0.54582  -0.53497  -0.44835  -0.39132
 Alpha  occ. eigenvalues --   -0.39024
 Alpha virt. eigenvalues --    0.03810   0.07775   0.08154   0.10183   0.11376
 Alpha virt. eigenvalues --    0.11514   0.15464   0.16353   0.16559   0.20071
 Alpha virt. eigenvalues --    0.20120   0.25397   0.32781   0.34594   0.35117

 Mulliken charges:
               1
     1  C   -0.075279
     2  C   -0.000726
     3  N   -0.206630
     4  H    0.093862
     5  H    0.097103
     6  H    0.091670
 Sum of Mulliken charges =   0.00000

 Dipole moment (field-independent basis, Debye):
    X=             -4.1376    Y=              0.0037    Z=              0.0052  Tot=              4.1377
 Quadrupole moment (field-independent basis, Debye-Ang):
   XX=            -20.8844   YY=            -17.7520   ZZ=            -17.7813
   XY=              0.0404   XZ=              0.0456   YZ=             -0.0356

 Normal termination of Gaussian 09 at Thu Aug 27 00:04:08 2020.
