 Gaussian 09, Revision D.01,
 Gaussian 09:  ES64L-G09RevD.01 24-Apr-2013

 --------------------
 #p B2PLYPD3/Def2QZVP
 --------------------

 ------------
 cyanomethane
 ------------
 Symbolic Z-matrix:
 Charge =  0 Multiplicity = 1

                         Standard orientation:
 ---------------------------------------------------------------------
 Center     Atomic      Atomic             Coordinates (Angstroms)
 Number     Number       Type             X           Y           Z
 ---------------------------------------------------------------------
      1          6           0       -1.185439    0.004859    0.006635
      2          6           0        0.277811    0.012432    0.017465
      3          7           0        1.428857   -0.006850   -0.015875
      4          1           0       -1.582189   -0.679416   -0.749862
      5          1           0       -1.536760    0.968084   -0.201863
      6          1           0       -1.437285   -0.344468    0.918243
 ---------------------------------------------------------------------

 SCF Done:  E(RB2PLYPD3) =  -132.529326677     A.U. after   12 cycles
 E2(B2PLYPD3) =    -0.1797824321D+00 E(B2PLYPD3) =    -0.13270910910914D+03

 The electronic state is 1-A.
 Alpha  occ. eigenvalues --  -14.84005 -10.66054 -10.65942  -1.04174  -0.90240
 Alpha  occ. eigenvalues --   -0.59495  -0.56415  -0.53803  -0.44663  -0.39285
 Alpha  occ. eigenvalues --   -0.39068
 Alpha virt. eigenvalues --    0.03882   0.08053   0.09103   0.10225   0.11171
 Alpha virt. eigenvalues --    0.11509   0.15410   0.15759   0.16657   0.20064
 Alpha virt. eigenvalues --    0.20147   0.25226   0.32873   0.34668   0.35795

 Mulliken charges:
               1
     1  C   -0.080484
     2  C   -0.004905
     3  N   -0.206535
     4  H    0.091228
     5  H    0.098603
     6  H    0.102093
 Sum of Mulliken charges =   0.00000

 Dipole moment (field-independent basis, Debye):
    X=             -4.1269    Y=              0.0005    Z=              0.0304  Tot=              4.1270
 Quadrupole moment (field-independent basis, Debye-Ang):
   XX=            -21.0139   YY=            -17.6242   ZZ=            -17.6931
   XY=              0.0594   XZ=              0.1798   YZ=             -0.0779

 Normal termination of Gaussian 09 at Wed Aug 26 14:26:47 2020.
