 Gaussian 09, Revision D.01,
 Gaussian 09:  ES64L-G09RevD.01 24-Apr-2013

 --------------------
 #p B2PLYPD3/Def2QZVP
 --------------------

 ------------
 cyanomethane
 ------------
 Symbolic Z-matrix:
 Charge =  0 Multiplicity = 1

                         Standard orientation:
 ---------------------------------------------------------------------
 Center     Atomic      Atomic             Coordinates (Angstroms)
 Number     Number       Type             X           Y           Z
 ---------------------------------------------------------------------
      1          6           0        1.177830    0.000331   -0.014607
      2          6           0       -0.279481    0.011696   -0.023983
      3          7           0       -1.426029   -0.001094    0.016309
      4          1           0        1.552058   -0.170014    0.972852
      5          1           0        1.584783    0.900813   -0.302525
      6          1           0        1.455265   -0.795299   -0.552942
 ---------------------------------------------------------------------

 SCF Done:  E(RB2PLYPD3) =  -132.527030255     A.U. after   11 cycles
 E2(B2PLYPD3) =    -0.1792539764D+00 E(B2PLYPD3) =    -0.13270628423111D+03

 The electronic state is 1-A.
 Alpha  occ. eigenvalues --  -14.83933 -10.65962 -10.65316  -1.04401  -0.90641
 Alpha  occ. eigenvalues --   -0.60346  -0.56837  -0.53600  -0.44727  -0.39515
 Alpha  occ. eigenvalues --   -0.39141
 Alpha virt. eigenvalues --    0.03966   0.08308   0.09114   0.10248   0.11135
 Alpha virt. eigenvalues --    0.11683   0.15529   0.16173   0.16788   0.19991
 Alpha virt. eigenvalues --    0.20166   0.25355   0.33147   0.34703   0.36313

 Mulliken charges:
               1
     1  C   -0.064852
     2  C   -0.002731
     3  N   -0.204344
     4  H    0.082444
     5  H    0.092706
     6  H    0.096777
 Sum of Mulliken charges =   0.00000

 Dipole moment (field-independent basis, Debye):
    X=              4.1361    Y=             -0.0140    Z=              0.0050  Tot=              4.1362
 Quadrupole moment (field-independent basis, Debye-Ang):
   XX=            -20.8046   YY=            -17.5057   ZZ=            -17.8246
   XY=              0.0450   XZ=              0.2064   YZ=              0.0472

 Normal termination of Gaussian 09 at Wed Aug 26 15:46:46 2020.
