 Gaussian 09, Revision D.01,
 Gaussian 09:  ES64L-G09RevD.01 24-Apr-2013

 --------------------
 #p B2PLYPD3/Def2QZVP
 --------------------

 ------------
 cyanomethane
 ------------
 Symbolic Z-matrix:
 Charge =  0 Multiplicity = 1

                         Standard orientation:
 ---------------------------------------------------------------------
 Center     Atomic      Atomic             Coordinates (Angstroms)
 Number     Number       Type             X           Y           Z
 ---------------------------------------------------------------------
      1          6           0        1.145009   -0.012610    0.010130
      2          6           0       -0.264627   -0.007456   -0.067709
      3          7           0       -1.430014    0.006271    0.037496
      4          1           0        1.584343    1.086195   -0.025923
      5          1           0        1.532193   -0.550850   -0.806822
      6          1           0        1.611266   -0.458848    0.915747
 ---------------------------------------------------------------------

 SCF Done:  E(RB2PLYPD3) =  -132.523417131     A.U. after   12 cycles
 E2(B2PLYPD3) =    -0.1825384902D+00 E(B2PLYPD3) =    -0.13270595562122D+03

 The electronic state is 1-A.
 Alpha  occ. eigenvalues --  -14.84787 -10.67379 -10.66664  -1.03760  -0.89533
 Alpha  occ. eigenvalues --   -0.61138  -0.54248  -0.51997  -0.45096  -0.38599
 Alpha  occ. eigenvalues --   -0.38322
 Alpha virt. eigenvalues --    0.03350   0.06072   0.07674   0.09875   0.11376
 Alpha virt. eigenvalues --    0.11882   0.15743   0.15901   0.17263   0.20038
 Alpha virt. eigenvalues --    0.20346   0.26375   0.32319   0.33943   0.34556

 Mulliken charges:
               1
     1  C   -0.078249
     2  C    0.008644
     3  N   -0.211375
     4  H    0.089217
     5  H    0.097103
     6  H    0.094660
 Sum of Mulliken charges =   0.00000

 Dipole moment (field-independent basis, Debye):
    X=              4.1127    Y=             -0.0414    Z=             -0.0512  Tot=              4.1132
 Quadrupole moment (field-independent basis, Debye-Ang):
   XX=            -20.8212   YY=            -17.8136   ZZ=            -17.9325
   XY=             -0.0206   XZ=              0.2519   YZ=              0.0491

 Normal termination of Gaussian 09 at Wed Aug 26 19:53:54 2020.
