 Gaussian 09, Revision D.01,
 Gaussian 09:  ES64L-G09RevD.01 24-Apr-2013

 --------------------
 #p B2PLYPD3/Def2QZVP
 --------------------

 ------------
 cyanomethane
 ------------
 Symbolic Z-matrix:
 Charge =  0 Multiplicity = 1

                         Standard orientation:
 ---------------------------------------------------------------------
 Center     Atomic      Atomic             Coordinates (Angstroms)
 Number     Number       Type             X           Y           Z
 ---------------------------------------------------------------------
      1          6           0       -1.176954    0.002182   -0.001046
      2          6           0        0.283451   -0.023530    0.011244
      3          7           0        1.437440    0.012155   -0.007006
      4          1           0       -1.567175    1.037738   -0.032679
      5          1           0       -1.552820   -0.471136    0.893194
      6          1           0       -1.581069   -0.523601   -0.872660
 ---------------------------------------------------------------------

 SCF Done:  E(RB2PLYPD3) =  -132.535085184     A.U. after   11 cycles
 E2(B2PLYPD3) =    -0.1805728700D+00 E(B2PLYPD3) =    -0.13271565805421D+03

 The electronic state is 1-A.
 Alpha  occ. eigenvalues --  -14.84275 -10.67273 -10.66350  -1.04147  -0.89005
 Alpha  occ. eigenvalues --   -0.59913  -0.53943  -0.53277  -0.44855  -0.39132
 Alpha  occ. eigenvalues --   -0.39069
 Alpha virt. eigenvalues --    0.03703   0.07596   0.08026   0.10168   0.11386
 Alpha virt. eigenvalues --    0.11541   0.15413   0.16248   0.16704   0.20044
 Alpha virt. eigenvalues --    0.20111   0.25339   0.32688   0.34448   0.34749

 Mulliken charges:
               1
     1  C   -0.080406
     2  C   -0.000210
     3  N   -0.205315
     4  H    0.094858
     5  H    0.096065
     6  H    0.095008
 Sum of Mulliken charges =   0.00000

 Dipole moment (field-independent basis, Debye):
    X=             -4.1305    Y=             -0.0185    Z=              0.0128  Tot=              4.1306
 Quadrupole moment (field-independent basis, Debye-Ang):
   XX=            -20.9104   YY=            -17.8008   ZZ=            -17.7838
   XY=             -0.0668   XZ=              0.0539   YZ=             -0.0088

 Normal termination of Gaussian 09 at Wed Aug 26 10:31:23 2020.
