 Gaussian 09, Revision D.01,
 Gaussian 09:  ES64L-G09RevD.01 24-Apr-2013

 --------------------
 #p B2PLYPD3/Def2QZVP
 --------------------

 ------------
 cyanomethane
 ------------
 Symbolic Z-matrix:
 Charge =  0 Multiplicity = 1

                         Standard orientation:
 ---------------------------------------------------------------------
 Center     Atomic      Atomic             Coordinates (Angstroms)
 Number     Number       Type             X           Y           Z
 ---------------------------------------------------------------------
      1          6           0        1.175502    0.011979   -0.001201
      2          6           0       -0.279552   -0.010815   -0.018324
      3          7           0       -1.444252    0.002055    0.005884
      4          1           0        1.562551    0.991072   -0.247161
      5          1           0        1.637978   -0.745335   -0.690198
      6          1           0        1.533538   -0.267105    1.013314
 ---------------------------------------------------------------------

 SCF Done:  E(RB2PLYPD3) =  -132.532773335     A.U. after   12 cycles
 E2(B2PLYPD3) =    -0.1816627490D+00 E(B2PLYPD3) =    -0.13271443608425D+03

 The electronic state is 1-A.
 Alpha  occ. eigenvalues --  -14.84605 -10.67609 -10.66706  -1.03772  -0.88874
 Alpha  occ. eigenvalues --   -0.60133  -0.53982  -0.52655  -0.44938  -0.38927
 Alpha  occ. eigenvalues --   -0.38716
 Alpha virt. eigenvalues --    0.03649   0.07204   0.07574   0.10151   0.11302
 Alpha virt. eigenvalues --    0.11547   0.15376   0.16233   0.16751   0.20095
 Alpha virt. eigenvalues --    0.20154   0.25404   0.32392   0.34012   0.34852

 Mulliken charges:
               1
     1  C   -0.080570
     2  C    0.003107
     3  N   -0.209741
     4  H    0.099743
     5  H    0.092616
     6  H    0.094846
 Sum of Mulliken charges =   0.00000

 Dipole moment (field-independent basis, Debye):
    X=              4.1471    Y=             -0.0048    Z=              0.0088  Tot=              4.1471
 Quadrupole moment (field-independent basis, Debye-Ang):
   XX=            -20.8915   YY=            -17.7919   ZZ=            -17.9237
   XY=             -0.0395   XZ=              0.0068   YZ=             -0.0315

 Normal termination of Gaussian 09 at Wed Aug 26 12:13:10 2020.
