 Gaussian 09, Revision D.01,
 Gaussian 09:  ES64L-G09RevD.01 24-Apr-2013

 --------------------
 #p B2PLYPD3/Def2QZVP
 --------------------

 ------------
 cyanomethane
 ------------
 Symbolic Z-matrix:
 Charge =  0 Multiplicity = 1

                         Standard orientation:
 ---------------------------------------------------------------------
 Center     Atomic      Atomic             Coordinates (Angstroms)
 Number     Number       Type             X           Y           Z
 ---------------------------------------------------------------------
      1          6           0        1.210381   -0.020818    0.004695
      2          6           0       -0.275817   -0.044627   -0.041824
      3          7           0       -1.440235    0.036047    0.023358
      4          1           0        1.354294   -0.842260   -0.540059
      5          1           0        1.512412   -0.019242    1.049676
      6          1           0        1.607558    1.001842   -0.450350
 ---------------------------------------------------------------------

 SCF Done:  E(RB2PLYPD3) =  -132.512986436     A.U. after   12 cycles
 E2(B2PLYPD3) =    -0.1822565059D+00 E(B2PLYPD3) =    -0.13269524294226D+03

 The electronic state is 1-A.
 Alpha  occ. eigenvalues --  -14.84448 -10.67545 -10.66545  -1.03410  -0.89490
 Alpha  occ. eigenvalues --   -0.58365  -0.56484  -0.52080  -0.44538  -0.38808
 Alpha  occ. eigenvalues --   -0.38478
 Alpha virt. eigenvalues --    0.03319   0.06875   0.09290   0.09992   0.10649
 Alpha virt. eigenvalues --    0.11460   0.14677   0.15285   0.16392   0.20025
 Alpha virt. eigenvalues --    0.20258   0.24830   0.31538   0.33325   0.35559

 Mulliken charges:
               1
     1  C   -0.111260
     2  C   -0.002629
     3  N   -0.213898
     4  H    0.120266
     5  H    0.108873
     6  H    0.098647
 Sum of Mulliken charges =   0.00000

 Dipole moment (field-independent basis, Debye):
    X=              4.0940    Y=             -0.0377    Z=              0.0038  Tot=              4.0942
 Quadrupole moment (field-independent basis, Debye-Ang):
   XX=            -21.4968   YY=            -17.6262   ZZ=            -17.7635
   XY=              0.4051   XZ=              0.2321   YZ=              0.1405

 Normal termination of Gaussian 09 at Wed Aug 26 23:02:38 2020.
