 Gaussian 09, Revision D.01,
 Gaussian 09:  ES64L-G09RevD.01 24-Apr-2013

 --------------------
 #p B2PLYPD3/Def2QZVP
 --------------------

 ------------
 cyanomethane
 ------------
 Symbolic Z-matrix:
 Charge =  0 Multiplicity = 1

                         Standard orientation:
 ---------------------------------------------------------------------
 Center     Atomic      Atomic             Coordinates (Angstroms)
 Number     Number       Type             X           Y           Z
 ---------------------------------------------------------------------
      1          6           0       -1.176556   -0.004578   -0.007033
      2          6           0        0.268987    0.014005    0.002090
      3          7           0        1.432457   -0.009904    0.000492
      4          1           0       -1.484163    0.928358   -0.407314
      5          1           0       -1.543124   -0.092907    1.006409
      6          1           0       -1.554498   -0.822683   -0.572883
 ---------------------------------------------------------------------

 SCF Done:  E(RB2PLYPD3) =  -132.533689238     A.U. after   12 cycles
 E2(B2PLYPD3) =    -0.1809961204D+00 E(B2PLYPD3) =    -0.13271468535835D+03

 The electronic state is 1-A.
 Alpha  occ. eigenvalues --  -14.84351 -10.66435 -10.66367  -1.03743  -0.90005
 Alpha  occ. eigenvalues --   -0.59926  -0.55131  -0.54184  -0.44757  -0.38844
 Alpha  occ. eigenvalues --   -0.38730
 Alpha virt. eigenvalues --    0.03857   0.07804   0.08216   0.10141   0.11278
 Alpha virt. eigenvalues --    0.11434   0.15461   0.15852   0.16512   0.20133
 Alpha virt. eigenvalues --    0.20191   0.25543   0.32889   0.34622   0.35129

 Mulliken charges:
               1
     1  C   -0.080012
     2  C   -0.000986
     3  N   -0.212159
     4  H    0.099425
     5  H    0.095006
     6  H    0.098726
 Sum of Mulliken charges =   0.00000

 Dipole moment (field-independent basis, Debye):
    X=             -4.1406    Y=              0.0173    Z=              0.0066  Tot=              4.1407
 Quadrupole moment (field-independent basis, Debye-Ang):
   XX=            -21.0454   YY=            -17.6618   ZZ=            -17.7723
   XY=              0.0989   XZ=             -0.0381   YZ=              0.0014

 Normal termination of Gaussian 09 at Wed Aug 26 14:27:50 2020.
