 Gaussian 09, Revision D.01,
 Gaussian 09:  ES64L-G09RevD.01 24-Apr-2013

 --------------------
 #p B2PLYPD3/Def2QZVP
 --------------------

 ------------
 cyanomethane
 ------------
 Symbolic Z-matrix:
 Charge =  0 Multiplicity = 1

                         Standard orientation:
 ---------------------------------------------------------------------
 Center     Atomic      Atomic             Coordinates (Angstroms)
 Number     Number       Type             X           Y           Z
 ---------------------------------------------------------------------
      1          6           0        1.206722    0.012435   -0.017694
      2          6           0       -0.294582   -0.034656    0.004918
      3          7           0       -1.435921    0.007631    0.004844
      4          1           0        1.605604    0.073543    0.958938
      5          1           0        1.377332    0.928909   -0.493485
      6          1           0        1.595675   -0.922544   -0.422704
 ---------------------------------------------------------------------

 SCF Done:  E(RB2PLYPD3) =  -132.529081827     A.U. after   12 cycles
 E2(B2PLYPD3) =    -0.1792838224D+00 E(B2PLYPD3) =    -0.13270836564968D+03

 The electronic state is 1-A.
 Alpha  occ. eigenvalues --  -14.83727 -10.66853 -10.65895  -1.04444  -0.89234
 Alpha  occ. eigenvalues --   -0.58900  -0.56015  -0.52762  -0.44516  -0.39614
 Alpha  occ. eigenvalues --   -0.39343
 Alpha virt. eigenvalues --    0.03821   0.08337   0.08964   0.10372   0.11165
 Alpha virt. eigenvalues --    0.11589   0.14747   0.16102   0.16471   0.19934
 Alpha virt. eigenvalues --    0.20118   0.24526   0.32416   0.34105   0.35823

 Mulliken charges:
               1
     1  C   -0.088213
     2  C   -0.008675
     3  N   -0.201065
     4  H    0.089857
     5  H    0.107791
     6  H    0.100306
 Sum of Mulliken charges =   0.00000

 Dipole moment (field-independent basis, Debye):
    X=              4.1365    Y=             -0.0026    Z=              0.0497  Tot=              4.1368
 Quadrupole moment (field-independent basis, Debye-Ang):
   XX=            -21.0828   YY=            -17.3663   ZZ=            -17.9900
   XY=             -0.1159   XZ=              0.2711   YZ=             -0.0410

 Normal termination of Gaussian 09 at Wed Aug 26 20:57:59 2020.
