 Gaussian 09, Revision D.01,
 Gaussian 09:  ES64L-G09RevD.01 24-Apr-2013

 --------------------
 #p B2PLYPD3/Def2QZVP
 --------------------

 ------------
 cyanomethane
 ------------
 Symbolic Z-matrix:
 Charge =  0 Multiplicity = 1

                         Standard orientation:
 ---------------------------------------------------------------------
 Center     Atomic      Atomic             Coordinates (Angstroms)
 Number     Number       Type             X           Y           Z
 ---------------------------------------------------------------------
      1          6           0        1.182139   -0.010291   -0.016132
      2          6           0       -0.288537    0.012490    0.034958
      3          7           0       -1.441248   -0.008832   -0.017395
      4          1           0        1.530580    1.057779   -0.033487
      5          1           0        1.608261   -0.535332   -0.825326
      6          1           0        1.588285   -0.473813    0.867628
 ---------------------------------------------------------------------

 SCF Done:  E(RB2PLYPD3) =  -132.532439614     A.U. after   12 cycles
 E2(B2PLYPD3) =    -0.1805141608D+00 E(B2PLYPD3) =    -0.13271295377458D+03

 The electronic state is 1-A.
 Alpha  occ. eigenvalues --  -14.84320 -10.67112 -10.66441  -1.04186  -0.89005
 Alpha  occ. eigenvalues --   -0.60362  -0.53689  -0.53274  -0.44890  -0.39264
 Alpha  occ. eigenvalues --   -0.39118
 Alpha virt. eigenvalues --    0.03726   0.07714   0.08029   0.10123   0.11417
 Alpha virt. eigenvalues --    0.11469   0.15334   0.16071   0.17160   0.20045
 Alpha virt. eigenvalues --    0.20125   0.25231   0.32563   0.34115   0.35171

 Mulliken charges:
               1
     1  C   -0.076189
     2  C    0.002505
     3  N   -0.205057
     4  H    0.092457
     5  H    0.095784
     6  H    0.090499
 Sum of Mulliken charges =   0.00000

 Dipole moment (field-independent basis, Debye):
    X=              4.1342    Y=             -0.0077    Z=              0.0336  Tot=              4.1344
 Quadrupole moment (field-independent basis, Debye-Ang):
   XX=            -20.8219   YY=            -17.7122   ZZ=            -17.9185
   XY=             -0.1545   XZ=             -0.0844   YZ=              0.0234

 Normal termination of Gaussian 09 at Wed Aug 26 11:14:57 2020.
