 Gaussian 09, Revision D.01,
 Gaussian 09:  ES64L-G09RevD.01 24-Apr-2013

 --------------------
 #p B2PLYPD3/Def2QZVP
 --------------------

 ------------
 cyanomethane
 ------------
 Symbolic Z-matrix:
 Charge =  0 Multiplicity = 1

                         Standard orientation:
 ---------------------------------------------------------------------
 Center     Atomic      Atomic             Coordinates (Angstroms)
 Number     Number       Type             X           Y           Z
 ---------------------------------------------------------------------
      1          6           0        1.158683    0.012660    0.018485
      2          6           0       -0.264423   -0.002456   -0.042399
      3          7           0       -1.433817   -0.002789    0.014815
      4          1           0        1.531814    1.034383   -0.109977
      5          1           0        1.636845   -0.651843   -0.771295
      6          1           0        1.502502   -0.424241    0.921045
 ---------------------------------------------------------------------

 SCF Done:  E(RB2PLYPD3) =  -132.529937083     A.U. after   12 cycles
 E2(B2PLYPD3) =    -0.1821146055D+00 E(B2PLYPD3) =    -0.13271205168816D+03

 The electronic state is 1-A.
 Alpha  occ. eigenvalues --  -14.84668 -10.67062 -10.66640  -1.03606  -0.89684
 Alpha  occ. eigenvalues --   -0.60663  -0.54924  -0.52607  -0.44946  -0.38678
 Alpha  occ. eigenvalues --   -0.38353
 Alpha virt. eigenvalues --    0.03702   0.06908   0.07503   0.10073   0.11275
 Alpha virt. eigenvalues --    0.11718   0.15522   0.16221   0.16616   0.20106
 Alpha virt. eigenvalues --    0.20223   0.26036   0.32405   0.34210   0.35036

 Mulliken charges:
               1
     1  C   -0.077346
     2  C    0.004616
     3  N   -0.213713
     4  H    0.100522
     5  H    0.086947
     6  H    0.098975
 Sum of Mulliken charges =   0.00000

 Dipole moment (field-independent basis, Debye):
    X=              4.1402    Y=             -0.0207    Z=              0.0041  Tot=              4.1403
 Quadrupole moment (field-independent basis, Debye-Ang):
   XX=            -20.9285   YY=            -17.6543   ZZ=            -17.9868
   XY=             -0.1269   XZ=              0.0373   YZ=             -0.0791

 Normal termination of Gaussian 09 at Wed Aug 26 11:05:42 2020.
