 Gaussian 09, Revision D.01,
 Gaussian 09:  ES64L-G09RevD.01 24-Apr-2013

 --------------------
 #p B2PLYPD3/Def2QZVP
 --------------------

 ------------
 cyanomethane
 ------------
 Symbolic Z-matrix:
 Charge =  0 Multiplicity = 1

                         Standard orientation:
 ---------------------------------------------------------------------
 Center     Atomic      Atomic             Coordinates (Angstroms)
 Number     Number       Type             X           Y           Z
 ---------------------------------------------------------------------
      1          6           0       -1.163608   -0.010206   -0.029468
      2          6           0        0.304561    0.069551    0.003872
      3          7           0        1.430507   -0.031369    0.005936
      4          1           0       -1.671268   -0.184131    1.017241
      5          1           0       -1.528946   -0.867924   -0.568536
      6          1           0       -1.659050    0.915572   -0.336683
 ---------------------------------------------------------------------

 SCF Done:  E(RB2PLYPD3) =  -132.526732962     A.U. after   12 cycles
 E2(B2PLYPD3) =    -0.1791926160D+00 E(B2PLYPD3) =    -0.13270592557809D+03

 The electronic state is 1-A.
 Alpha  occ. eigenvalues --  -14.83851 -10.67863 -10.65942  -1.05306  -0.88142
 Alpha  occ. eigenvalues --   -0.60421  -0.54279  -0.50587  -0.45004  -0.40077
 Alpha  occ. eigenvalues --   -0.39405
 Alpha virt. eigenvalues --    0.03456   0.07198   0.08153   0.10149   0.11460
 Alpha virt. eigenvalues --    0.12177   0.15429   0.16807   0.17537   0.19767
 Alpha virt. eigenvalues --    0.20080   0.25485   0.32252   0.33483   0.35550

 Mulliken charges:
               1
     1  C   -0.074578
     2  C    0.002539
     3  N   -0.189846
     4  H    0.074872
     5  H    0.096525
     6  H    0.090488
 Sum of Mulliken charges =   0.00000

 Dipole moment (field-independent basis, Debye):
    X=             -4.0839    Y=              0.0350    Z=              0.0043  Tot=              4.0841
 Quadrupole moment (field-independent basis, Debye-Ang):
   XX=            -20.5781   YY=            -17.6502   ZZ=            -18.1160
   XY=              0.1531   XZ=             -0.1629   YZ=              0.0564

 Normal termination of Gaussian 09 at Wed Aug 26 19:08:23 2020.
