 Gaussian 09, Revision D.01,
 Gaussian 09:  ES64L-G09RevD.01 24-Apr-2013

 --------------------
 #p B2PLYPD3/Def2QZVP
 --------------------

 ------------
 cyanomethane
 ------------
 Symbolic Z-matrix:
 Charge =  0 Multiplicity = 1

                         Standard orientation:
 ---------------------------------------------------------------------
 Center     Atomic      Atomic             Coordinates (Angstroms)
 Number     Number       Type             X           Y           Z
 ---------------------------------------------------------------------
      1          6           0        1.187767   -0.022491   -0.035332
      2          6           0       -0.290923    0.005233   -0.008627
      3          7           0       -1.444042    0.000602    0.006609
      4          1           0        1.592545    1.043903   -0.092534
      5          1           0        1.589172   -0.621036   -0.646636
      6          1           0        1.545511   -0.323536    0.956658
 ---------------------------------------------------------------------

 SCF Done:  E(RB2PLYPD3) =  -132.515084670     A.U. after   12 cycles
 E2(B2PLYPD3) =    -0.1802831295D+00 E(B2PLYPD3) =    -0.13269536779932D+03

 The electronic state is 1-A.
 Alpha  occ. eigenvalues --  -14.84308 -10.66507 -10.66435  -1.04220  -0.89757
 Alpha  occ. eigenvalues --   -0.61351  -0.55685  -0.51804  -0.44894  -0.39598
 Alpha  occ. eigenvalues --   -0.38933
 Alpha virt. eigenvalues --    0.03705   0.07590   0.08735   0.10131   0.11057
 Alpha virt. eigenvalues --    0.11760   0.15339   0.15972   0.17637   0.20017
 Alpha virt. eigenvalues --    0.20171   0.24889   0.32301   0.33474   0.35504

 Mulliken charges:
               1
     1  C   -0.075855
     2  C    0.006212
     3  N   -0.205576
     4  H    0.089076
     5  H    0.104549
     6  H    0.081593
 Sum of Mulliken charges =   0.00000

 Dipole moment (field-independent basis, Debye):
    X=              4.1495    Y=             -0.0217    Z=              0.0468  Tot=              4.1498
 Quadrupole moment (field-independent basis, Debye-Ang):
   XX=            -20.7225   YY=            -17.6698   ZZ=            -17.9460
   XY=             -0.0284   XZ=              0.1524   YZ=              0.1503

 Normal termination of Gaussian 09 at Wed Aug 26 21:57:59 2020.
