 Gaussian 09, Revision D.01,
 Gaussian 09:  ES64L-G09RevD.01 24-Apr-2013

 --------------------
 #p B2PLYPD3/Def2QZVP
 --------------------

 ------------
 cyanomethane
 ------------
 Symbolic Z-matrix:
 Charge =  0 Multiplicity = 1

                         Standard orientation:
 ---------------------------------------------------------------------
 Center     Atomic      Atomic             Coordinates (Angstroms)
 Number     Number       Type             X           Y           Z
 ---------------------------------------------------------------------
      1          6           0        1.183831    0.000971    0.004798
      2          6           0       -0.284870   -0.014746    0.000281
      3          7           0       -1.434034    0.008370    0.000787
      4          1           0        1.567085   -0.062512    1.006387
      5          1           0        1.547934    0.944924   -0.461306
      6          1           0        1.529452   -0.858348   -0.581071
 ---------------------------------------------------------------------

 SCF Done:  E(RB2PLYPD3) =  -132.535304301     A.U. after   11 cycles
 E2(B2PLYPD3) =    -0.1800832183D+00 E(B2PLYPD3) =    -0.13271538751979D+03

 The electronic state is 1-A.
 Alpha  occ. eigenvalues --  -14.84031 -10.67395 -10.66120  -1.04277  -0.88907
 Alpha  occ. eigenvalues --   -0.59302  -0.54061  -0.53524  -0.44725  -0.39249
 Alpha  occ. eigenvalues --   -0.39159
 Alpha virt. eigenvalues --    0.03715   0.07892   0.08188   0.10205   0.11423
 Alpha virt. eigenvalues --    0.11523   0.15299   0.16105   0.16498   0.20046
 Alpha virt. eigenvalues --    0.20076   0.25140   0.32617   0.34270   0.34778

 Mulliken charges:
               1
     1  C   -0.090197
     2  C   -0.003080
     3  N   -0.203317
     4  H    0.099578
     5  H    0.098030
     6  H    0.098986
 Sum of Mulliken charges =   0.00000

 Dipole moment (field-independent basis, Debye):
    X=              4.1184    Y=             -0.0148    Z=              0.0045  Tot=              4.1184
 Quadrupole moment (field-independent basis, Debye-Ang):
   XX=            -21.0703   YY=            -17.7070   ZZ=            -17.7565
   XY=              0.0547   XZ=              0.0426   YZ=              0.0107

 Normal termination of Gaussian 09 at Wed Aug 26 23:58:40 2020.
