 Gaussian 09, Revision D.01,
 Gaussian 09:  ES64L-G09RevD.01 24-Apr-2013

 --------------------
 #p B2PLYPD3/Def2QZVP
 --------------------

 ------------
 cyanomethane
 ------------
 Symbolic Z-matrix:
 Charge =  0 Multiplicity = 1

                         Standard orientation:
 ---------------------------------------------------------------------
 Center     Atomic      Atomic             Coordinates (Angstroms)
 Number     Number       Type             X           Y           Z
 ---------------------------------------------------------------------
      1          6           0       -1.173652   -0.007023   -0.027558
      2          6           0        0.274660   -0.011857   -0.064036
      3          7           0        1.417845    0.008903    0.042493
      4          1           0       -1.606789    0.022549    0.982561
      5          1           0       -1.439265   -0.873220   -0.353876
      6          1           0       -1.484906    0.901632   -0.376575
 ---------------------------------------------------------------------

 SCF Done:  E(RB2PLYPD3) =  -132.510833929     A.U. after   12 cycles
 E2(B2PLYPD3) =    -0.1797181991D+00 E(B2PLYPD3) =    -0.13269055212789D+03

 The electronic state is 1-A.
 Alpha  occ. eigenvalues --  -14.83936 -10.65863 -10.65089  -1.04403  -0.91121
 Alpha  occ. eigenvalues --   -0.60322  -0.59417  -0.51637  -0.44715  -0.39595
 Alpha  occ. eigenvalues --   -0.38709
 Alpha virt. eigenvalues --    0.03705   0.07700   0.09577   0.10112   0.10851
 Alpha virt. eigenvalues --    0.11961   0.15553   0.16390   0.16688   0.19902
 Alpha virt. eigenvalues --    0.20223   0.25611   0.33018   0.33777   0.37098

 Mulliken charges:
               1
     1  C   -0.068578
     2  C   -0.000232
     3  N   -0.204982
     4  H    0.072272
     5  H    0.102937
     6  H    0.098583
 Sum of Mulliken charges =   0.00000

 Dipole moment (field-independent basis, Debye):
    X=             -4.1058    Y=              0.0010    Z=              0.0101  Tot=              4.1058
 Quadrupole moment (field-independent basis, Debye-Ang):
   XX=            -20.8766   YY=            -17.2370   ZZ=            -18.0578
   XY=             -0.1078   XZ=             -0.5226   YZ=              0.0299

 Normal termination of Gaussian 09 at Wed Aug 26 20:20:11 2020.
