 Gaussian 09, Revision D.01,
 Gaussian 09:  ES64L-G09RevD.01 24-Apr-2013

 --------------------
 #p B2PLYPD3/Def2QZVP
 --------------------

 ------------
 cyanomethane
 ------------
 Symbolic Z-matrix:
 Charge =  0 Multiplicity = 1

                         Standard orientation:
 ---------------------------------------------------------------------
 Center     Atomic      Atomic             Coordinates (Angstroms)
 Number     Number       Type             X           Y           Z
 ---------------------------------------------------------------------
      1          6           0       -1.176166    0.008217    0.010028
      2          6           0        0.278567    0.017914   -0.017924
      3          7           0        1.436147   -0.011664    0.010245
      4          1           0       -1.527469    0.888364   -0.452348
      5          1           0       -1.583449   -0.095043    1.003118
      6          1           0       -1.556513   -0.868453   -0.575112
 ---------------------------------------------------------------------

 SCF Done:  E(RB2PLYPD3) =  -132.533535894     A.U. after   12 cycles
 E2(B2PLYPD3) =    -0.1807760399D+00 E(B2PLYPD3) =    -0.13271431193344D+03

 The electronic state is 1-A.
 Alpha  occ. eigenvalues --  -14.84332 -10.66944 -10.66390  -1.03997  -0.89389
 Alpha  occ. eigenvalues --   -0.60048  -0.54845  -0.53045  -0.44841  -0.39104
 Alpha  occ. eigenvalues --   -0.38861
 Alpha virt. eigenvalues --    0.03734   0.07508   0.08209   0.10141   0.11257
 Alpha virt. eigenvalues --    0.11598   0.15453   0.16037   0.16785   0.20052
 Alpha virt. eigenvalues --    0.20166   0.25429   0.32711   0.34128   0.35256

 Mulliken charges:
               1
     1  C   -0.079025
     2  C    0.000127
     3  N   -0.207806
     4  H    0.098488
     5  H    0.096927
     6  H    0.091288
 Sum of Mulliken charges =   0.00000

 Dipole moment (field-independent basis, Debye):
    X=             -4.1345    Y=              0.0144    Z=             -0.0176  Tot=              4.1345
 Quadrupole moment (field-independent basis, Debye-Ang):
   XX=            -20.9329   YY=            -17.7715   ZZ=            -17.7780
   XY=              0.0979   XZ=             -0.0780   YZ=             -0.0590

 Normal termination of Gaussian 09 at Wed Aug 26 20:11:57 2020.
