 Gaussian 09, Revision D.01,
 Gaussian 09:  ES64L-G09RevD.01 24-Apr-2013

 --------------------
 #p B2PLYPD3/Def2QZVP
 --------------------

 ------------
 cyanomethane
 ------------
 Symbolic Z-matrix:
 Charge =  0 Multiplicity = 1

                         Standard orientation:
 ---------------------------------------------------------------------
 Center     Atomic      Atomic             Coordinates (Angstroms)
 Number     Number       Type             X           Y           Z
 ---------------------------------------------------------------------
      1          6           0       -1.174195   -0.005954    0.006984
      2          6           0        0.280882   -0.014050   -0.018335
      3          7           0        1.428832    0.006304    0.006189
      4          1           0       -1.546755    0.892309   -0.522133
      5          1           0       -1.509297    0.053795    1.017601
      6          1           0       -1.585894   -0.870207   -0.470684
 ---------------------------------------------------------------------

 SCF Done:  E(RB2PLYPD3) =  -132.535568586     A.U. after   11 cycles
 E2(B2PLYPD3) =    -0.1798276274D+00 E(B2PLYPD3) =    -0.13271539621289D+03

 The electronic state is 1-A.
 Alpha  occ. eigenvalues --  -14.84004 -10.66813 -10.66045  -1.04365  -0.89424
 Alpha  occ. eigenvalues --   -0.59860  -0.54632  -0.53518  -0.44764  -0.39303
 Alpha  occ. eigenvalues --   -0.39125
 Alpha virt. eigenvalues --    0.03801   0.07972   0.08257   0.10199   0.11417
 Alpha virt. eigenvalues --    0.11640   0.15463   0.16278   0.16535   0.20031
 Alpha virt. eigenvalues --    0.20098   0.25414   0.32860   0.34374   0.35209

 Mulliken charges:
               1
     1  C   -0.080778
     2  C   -0.002539
     3  N   -0.203361
     4  H    0.092684
     5  H    0.097757
     6  H    0.096236
 Sum of Mulliken charges =   0.00000

 Dipole moment (field-independent basis, Debye):
    X=             -4.1192    Y=             -0.0032    Z=             -0.0019  Tot=              4.1192
 Quadrupole moment (field-independent basis, Debye-Ang):
   XX=            -20.9586   YY=            -17.7253   ZZ=            -17.7197
   XY=             -0.0230   XZ=             -0.0027   YZ=              0.0332

 Normal termination of Gaussian 09 at Thu Aug 27 00:13:57 2020.
