 Gaussian 09, Revision D.01,
 Gaussian 09:  ES64L-G09RevD.01 24-Apr-2013

 --------------------
 #p B2PLYPD3/Def2QZVP
 --------------------

 ------------
 cyanomethane
 ------------
 Symbolic Z-matrix:
 Charge =  0 Multiplicity = 1

                         Standard orientation:
 ---------------------------------------------------------------------
 Center     Atomic      Atomic             Coordinates (Angstroms)
 Number     Number       Type             X           Y           Z
 ---------------------------------------------------------------------
      1          6           0       -1.207458    0.013629    0.026435
      2          6           0        0.294197    0.011634   -0.075467
      3          7           0        1.438067   -0.010238    0.036849
      4          1           0       -1.527822   -0.169712    1.021175
      5          1           0       -1.561070   -0.896012   -0.611112
      6          1           0       -1.498014    0.985813   -0.373814
 ---------------------------------------------------------------------

 SCF Done:  E(RB2PLYPD3) =  -132.527043914     A.U. after   12 cycles
 E2(B2PLYPD3) =    -0.1805228127D+00 E(B2PLYPD3) =    -0.13270756672688D+03

 The electronic state is 1-A.
 Alpha  occ. eigenvalues --  -14.84019 -10.68131 -10.66136  -1.04178  -0.88162
 Alpha  occ. eigenvalues --   -0.58375  -0.54694  -0.52315  -0.44594  -0.39375
 Alpha  occ. eigenvalues --   -0.39079
 Alpha virt. eigenvalues --    0.03502   0.07505   0.08519   0.10075   0.11081
 Alpha virt. eigenvalues --    0.11526   0.15006   0.15555   0.16474   0.19961
 Alpha virt. eigenvalues --    0.20075   0.24909   0.31755   0.33582   0.34918

 Mulliken charges:
               1
     1  C   -0.106733
     2  C   -0.002999
     3  N   -0.202986
     4  H    0.107504
     5  H    0.096185
     6  H    0.109029
 Sum of Mulliken charges =   0.00000

 Dipole moment (field-independent basis, Debye):
    X=             -4.0831    Y=              0.0070    Z=             -0.0214  Tot=              4.0832
 Quadrupole moment (field-independent basis, Debye-Ang):
   XX=            -21.3519   YY=            -17.5668   ZZ=            -17.8401
   XY=              0.1308   XZ=             -0.2714   YZ=             -0.0839

 Normal termination of Gaussian 09 at Wed Aug 26 23:43:15 2020.
