 Gaussian 09, Revision D.01,
 Gaussian 09:  ES64L-G09RevD.01 24-Apr-2013

 --------------------
 #p B2PLYPD3/Def2QZVP
 --------------------

 ------------
 cyanomethane
 ------------
 Symbolic Z-matrix:
 Charge =  0 Multiplicity = 1

                         Standard orientation:
 ---------------------------------------------------------------------
 Center     Atomic      Atomic             Coordinates (Angstroms)
 Number     Number       Type             X           Y           Z
 ---------------------------------------------------------------------
      1          6           0       -1.166526   -0.020253   -0.003735
      2          6           0        0.268120    0.090744    0.000503
      3          7           0        1.457169   -0.044824   -0.003442
      4          1           0       -1.606674    1.019799    0.016099
      5          1           0       -1.556793   -0.566078    0.884054
      6          1           0       -1.646275   -0.562900   -0.856667
 ---------------------------------------------------------------------

 SCF Done:  E(RB2PLYPD3) =  -132.521862201     A.U. after   12 cycles
 E2(B2PLYPD3) =    -0.1851306701D+00 E(B2PLYPD3) =    -0.13270699287092D+03

 The electronic state is 1-A.
 Alpha  occ. eigenvalues --  -14.85684 -10.67935 -10.67707  -1.02729  -0.88776
 Alpha  occ. eigenvalues --   -0.61082  -0.53071  -0.52306  -0.45263  -0.38070
 Alpha  occ. eigenvalues --   -0.38059
 Alpha virt. eigenvalues --    0.03292   0.05946   0.06528   0.09716   0.11164
 Alpha virt. eigenvalues --    0.11521   0.15491   0.15990   0.17273   0.20015
 Alpha virt. eigenvalues --    0.20488   0.26131   0.32204   0.34122   0.34128

 Mulliken charges:
               1
     1  C   -0.075207
     2  C    0.013538
     3  N   -0.219222
     4  H    0.090604
     5  H    0.095349
     6  H    0.094939
 Sum of Mulliken charges =   0.00000

 Dipole moment (field-independent basis, Debye):
    X=             -4.1497    Y=              0.0195    Z=              0.0146  Tot=              4.1498
 Quadrupole moment (field-independent basis, Debye-Ang):
   XX=            -20.7623   YY=            -17.9072   ZZ=            -18.1446
   XY=              0.2829   XZ=              0.0518   YZ=             -0.0079

 Normal termination of Gaussian 09 at Wed Aug 26 23:49:35 2020.
