 Gaussian 09, Revision D.01,
 Gaussian 09:  ES64L-G09RevD.01 24-Apr-2013

 --------------------
 #p B2PLYPD3/Def2QZVP
 --------------------

 ------------
 cyanomethane
 ------------
 Symbolic Z-matrix:
 Charge =  0 Multiplicity = 1

                         Standard orientation:
 ---------------------------------------------------------------------
 Center     Atomic      Atomic             Coordinates (Angstroms)
 Number     Number       Type             X           Y           Z
 ---------------------------------------------------------------------
      1          6           0       -1.172155    0.011171    0.000314
      2          6           0        0.284544   -0.012176   -0.018784
      3          7           0        1.428239    0.003076    0.005684
      4          1           0       -1.550018    0.966026   -0.323691
      5          1           0       -1.505539   -0.186064    1.025877
      6          1           0       -1.616452   -0.795467   -0.631148
 ---------------------------------------------------------------------

 SCF Done:  E(RB2PLYPD3) =  -132.535379987     A.U. after   12 cycles
 E2(B2PLYPD3) =    -0.1796785770D+00 E(B2PLYPD3) =    -0.13271505856362D+03

 The electronic state is 1-A.
 Alpha  occ. eigenvalues --  -14.83915 -10.67280 -10.65967  -1.04555  -0.89009
 Alpha  occ. eigenvalues --   -0.59720  -0.54222  -0.53058  -0.44775  -0.39397
 Alpha  occ. eigenvalues --   -0.39209
 Alpha virt. eigenvalues --    0.03736   0.07799   0.08146   0.10203   0.11516
 Alpha virt. eigenvalues --    0.11731   0.15424   0.16243   0.16725   0.20011
 Alpha virt. eigenvalues --    0.20066   0.25396   0.32715   0.34270   0.34952

 Mulliken charges:
               1
     1  C   -0.085273
     2  C   -0.002366
     3  N   -0.200367
     4  H    0.099310
     5  H    0.096062
     6  H    0.092634
 Sum of Mulliken charges =   0.00000

 Dipole moment (field-independent basis, Debye):
    X=             -4.1090    Y=             -0.0061    Z=              0.0078  Tot=              4.1090
 Quadrupole moment (field-independent basis, Debye-Ang):
   XX=            -20.9623   YY=            -17.6909   ZZ=            -17.7901
   XY=              0.0256   XZ=             -0.0005   YZ=             -0.0378

 Normal termination of Gaussian 09 at Wed Aug 26 23:58:22 2020.
