 Gaussian 09, Revision D.01,
 Gaussian 09:  ES64L-G09RevD.01 24-Apr-2013

 --------------------
 #p B2PLYPD3/Def2QZVP
 --------------------

 ------------
 cyanomethane
 ------------
 Symbolic Z-matrix:
 Charge =  0 Multiplicity = 1

                         Standard orientation:
 ---------------------------------------------------------------------
 Center     Atomic      Atomic             Coordinates (Angstroms)
 Number     Number       Type             X           Y           Z
 ---------------------------------------------------------------------
      1          6           0       -1.184472    0.023212   -0.002070
      2          6           0        0.279528   -0.005560    0.046424
      3          7           0        1.441416    0.010615   -0.030257
      4          1           0       -1.415118   -0.460290    0.846882
      5          1           0       -1.542718   -0.672502   -0.770648
      6          1           0       -1.702406    0.952571   -0.130558
 ---------------------------------------------------------------------

 SCF Done:  E(RB2PLYPD3) =  -132.522811244     A.U. after   12 cycles
 E2(B2PLYPD3) =    -0.1813457591D+00 E(B2PLYPD3) =    -0.13270415700349D+03

 The electronic state is 1-A.
 Alpha  occ. eigenvalues --  -14.84538 -10.66683 -10.66217  -1.03780  -0.90130
 Alpha  occ. eigenvalues --   -0.60411  -0.55598  -0.53051  -0.44877  -0.39101
 Alpha  occ. eigenvalues --   -0.38683
 Alpha virt. eigenvalues --    0.03686   0.07297   0.08848   0.09976   0.11131
 Alpha virt. eigenvalues --    0.11586   0.15111   0.15532   0.17958   0.20114
 Alpha virt. eigenvalues --    0.20403   0.25384   0.32659   0.34363   0.35718

 Mulliken charges:
               1
     1  C   -0.079681
     2  C    0.005955
     3  N   -0.211615
     4  H    0.098577
     5  H    0.086760
     6  H    0.100003
 Sum of Mulliken charges =   0.00000

 Dipole moment (field-independent basis, Debye):
    X=             -4.1615    Y=             -0.0741    Z=              0.0635  Tot=              4.1626
 Quadrupole moment (field-independent basis, Debye-Ang):
   XX=            -20.7637   YY=            -17.6317   ZZ=            -17.9829
   XY=             -0.0792   XZ=              0.2260   YZ=             -0.0821

 Normal termination of Gaussian 09 at Wed Aug 26 19:29:45 2020.
