 Gaussian 09, Revision D.01,
 Gaussian 09:  ES64L-G09RevD.01 24-Apr-2013

 --------------------
 #p B2PLYPD3/Def2QZVP
 --------------------

 ------------
 cyanomethane
 ------------
 Symbolic Z-matrix:
 Charge =  0 Multiplicity = 1

                         Standard orientation:
 ---------------------------------------------------------------------
 Center     Atomic      Atomic             Coordinates (Angstroms)
 Number     Number       Type             X           Y           Z
 ---------------------------------------------------------------------
      1          6           0       -1.176474   -0.023033   -0.009413
      2          6           0        0.279504    0.031978   -0.012874
      3          7           0        1.422754   -0.015514    0.008849
      4          1           0       -1.541454    0.022391    1.021056
      5          1           0       -1.530329   -0.884150   -0.471701
      6          1           0       -1.505670    0.916691   -0.477572
 ---------------------------------------------------------------------

 SCF Done:  E(RB2PLYPD3) =  -132.533350037     A.U. after   11 cycles
 E2(B2PLYPD3) =    -0.1795188922D+00 E(B2PLYPD3) =    -0.13271286892906D+03

 The electronic state is 1-A.
 Alpha  occ. eigenvalues --  -14.83808 -10.66741 -10.65829  -1.04477  -0.89545
 Alpha  occ. eigenvalues --   -0.59562  -0.55436  -0.53179  -0.44669  -0.39441
 Alpha  occ. eigenvalues --   -0.39059
 Alpha virt. eigenvalues --    0.03811   0.08111   0.08453   0.10131   0.11369
 Alpha virt. eigenvalues --    0.11754   0.15424   0.15734   0.16856   0.19986
 Alpha virt. eigenvalues --    0.20132   0.25460   0.32910   0.33960   0.35525

 Mulliken charges:
               1
     1  C   -0.087411
     2  C   -0.003621
     3  N   -0.202290
     4  H    0.093282
     5  H    0.104147
     6  H    0.095891
 Sum of Mulliken charges =   0.00000

 Dipole moment (field-independent basis, Debye):
    X=             -4.0987    Y=              0.0338    Z=              0.0092  Tot=              4.0988
 Quadrupole moment (field-independent basis, Debye-Ang):
   XX=            -21.0982   YY=            -17.5271   ZZ=            -17.7997
   XY=              0.0805   XZ=             -0.1283   YZ=              0.0614

 Normal termination of Gaussian 09 at Wed Aug 26 11:16:12 2020.
