 Gaussian 09, Revision D.01,
 Gaussian 09:  ES64L-G09RevD.01 24-Apr-2013

 --------------------
 #p B2PLYPD3/Def2QZVP
 --------------------

 ------------
 cyanomethane
 ------------
 Symbolic Z-matrix:
 Charge =  0 Multiplicity = 1

                         Standard orientation:
 ---------------------------------------------------------------------
 Center     Atomic      Atomic             Coordinates (Angstroms)
 Number     Number       Type             X           Y           Z
 ---------------------------------------------------------------------
      1          6           0       -1.173655   -0.001577    0.020837
      2          6           0        0.266912   -0.027266    0.002821
      3          7           0        1.428067    0.010913   -0.007091
      4          1           0       -1.480770   -0.156679    1.001474
      5          1           0       -1.581708   -0.792071   -0.708341
      6          1           0       -1.493528    1.045417   -0.385441
 ---------------------------------------------------------------------

 SCF Done:  E(RB2PLYPD3) =  -132.526324597     A.U. after   12 cycles
 E2(B2PLYPD3) =    -0.1815287607D+00 E(B2PLYPD3) =    -0.13270785335734D+03

 The electronic state is 1-A.
 Alpha  occ. eigenvalues --  -14.84242 -10.67884 -10.66269  -1.03796  -0.89195
 Alpha  occ. eigenvalues --   -0.59085  -0.55113  -0.52410  -0.44695  -0.38842
 Alpha  occ. eigenvalues --   -0.38423
 Alpha virt. eigenvalues --    0.03473   0.06896   0.08111   0.10120   0.11267
 Alpha virt. eigenvalues --    0.11753   0.15309   0.15863   0.16025   0.20097
 Alpha virt. eigenvalues --    0.20188   0.25568   0.32184   0.32830   0.34893

 Mulliken charges:
               1
     1  C   -0.106342
     2  C    0.001529
     3  N   -0.210851
     4  H    0.112234
     5  H    0.101269
     6  H    0.102161
 Sum of Mulliken charges =   0.00000

 Dipole moment (field-independent basis, Debye):
    X=             -4.0967    Y=             -0.0116    Z=              0.0134  Tot=              4.0967
 Quadrupole moment (field-independent basis, Debye-Ang):
   XX=            -21.3703   YY=            -17.7575   ZZ=            -17.6601
   XY=             -0.0047   XZ=              0.0929   YZ=             -0.0239

 Normal termination of Gaussian 09 at Wed Aug 26 10:32:47 2020.
