 Gaussian 09, Revision D.01,
 Gaussian 09:  ES64L-G09RevD.01 24-Apr-2013

 --------------------
 #p B2PLYPD3/Def2QZVP
 --------------------

 ------------
 cyanomethane
 ------------
 Symbolic Z-matrix:
 Charge =  0 Multiplicity = 1

                         Standard orientation:
 ---------------------------------------------------------------------
 Center     Atomic      Atomic             Coordinates (Angstroms)
 Number     Number       Type             X           Y           Z
 ---------------------------------------------------------------------
      1          6           0        1.185972   -0.022214    0.000037
      2          6           0       -0.281212   -0.022680   -0.023524
      3          7           0       -1.440982    0.020052    0.016386
      4          1           0        1.459322   -0.822800   -0.598696
      5          1           0        1.599135   -0.063568    1.049760
      6          1           0        1.599856    1.015368   -0.424843
 ---------------------------------------------------------------------

 SCF Done:  E(RB2PLYPD3) =  -132.523634488     A.U. after   12 cycles
 E2(B2PLYPD3) =    -0.1816320726D+00 E(B2PLYPD3) =    -0.13270526656012D+03

 The electronic state is 1-A.
 Alpha  occ. eigenvalues --  -14.84411 -10.68152 -10.66503  -1.03839  -0.88655
 Alpha  occ. eigenvalues --   -0.58954  -0.55409  -0.51352  -0.44790  -0.39073
 Alpha  occ. eigenvalues --   -0.38593
 Alpha virt. eigenvalues --    0.03354   0.06605   0.08419   0.10138   0.11000
 Alpha virt. eigenvalues --    0.11752   0.15155   0.15872   0.16568   0.19983
 Alpha virt. eigenvalues --    0.20219   0.25162   0.31685   0.33080   0.35073

 Mulliken charges:
               1
     1  C   -0.099448
     2  C    0.000734
     3  N   -0.208175
     4  H    0.111784
     5  H    0.101478
     6  H    0.093626
 Sum of Mulliken charges =   0.00000

 Dipole moment (field-independent basis, Debye):
    X=              4.1128    Y=             -0.0321    Z=             -0.0074  Tot=              4.1129
 Quadrupole moment (field-independent basis, Debye-Ang):
   XX=            -21.1820   YY=            -17.7591   ZZ=            -17.8290
   XY=              0.2139   XZ=              0.1953   YZ=              0.1390

 Normal termination of Gaussian 09 at Wed Aug 26 13:08:53 2020.
