 Gaussian 09, Revision D.01,
 Gaussian 09:  ES64L-G09RevD.01 24-Apr-2013

 --------------------
 #p B2PLYPD3/Def2QZVP
 --------------------

 ------------
 cyanomethane
 ------------
 Symbolic Z-matrix:
 Charge =  0 Multiplicity = 1

                         Standard orientation:
 ---------------------------------------------------------------------
 Center     Atomic      Atomic             Coordinates (Angstroms)
 Number     Number       Type             X           Y           Z
 ---------------------------------------------------------------------
      1          6           0        1.176692   -0.007185   -0.006018
      2          6           0       -0.294935    0.023687   -0.032940
      3          7           0       -1.438178   -0.018217    0.032517
      4          1           0        1.812794   -0.231617    0.951371
      5          1           0        1.450595    1.028913   -0.276892
      6          1           0        1.513317   -0.768786   -0.668352
 ---------------------------------------------------------------------

 SCF Done:  E(RB2PLYPD3) =  -132.521726328     A.U. after   12 cycles
 E2(B2PLYPD3) =    -0.1805826728D+00 E(B2PLYPD3) =    -0.13270230900031D+03

 The electronic state is 1-A.
 Alpha  occ. eigenvalues --  -14.84160 -10.67907 -10.66310  -1.04588  -0.88492
 Alpha  occ. eigenvalues --   -0.60034  -0.54949  -0.50519  -0.44916  -0.39528
 Alpha  occ. eigenvalues --   -0.38975
 Alpha virt. eigenvalues --    0.03338   0.06536   0.08612   0.10103   0.11290
 Alpha virt. eigenvalues --    0.11938   0.15222   0.15816   0.17814   0.19899
 Alpha virt. eigenvalues --    0.20484   0.25283   0.32018   0.33391   0.34996

 Mulliken charges:
               1
     1  C   -0.092858
     2  C    0.005792
     3  N   -0.199541
     4  H    0.088235
     5  H    0.097645
     6  H    0.100726
 Sum of Mulliken charges =   0.00000

 Dipole moment (field-independent basis, Debye):
    X=              4.1140    Y=              0.0207    Z=             -0.0628  Tot=              4.1145
 Quadrupole moment (field-independent basis, Debye-Ang):
   XX=            -20.7463   YY=            -17.6082   ZZ=            -18.1715
   XY=             -0.2364   XZ=              0.3957   YZ=              0.0821

 Normal termination of Gaussian 09 at Wed Aug 26 21:47:32 2020.
