 Gaussian 09, Revision D.01,
 Gaussian 09:  ES64L-G09RevD.01 24-Apr-2013

 --------------------
 #p B2PLYPD3/Def2QZVP
 --------------------

 ------------
 cyanomethane
 ------------
 Symbolic Z-matrix:
 Charge =  0 Multiplicity = 1

                         Standard orientation:
 ---------------------------------------------------------------------
 Center     Atomic      Atomic             Coordinates (Angstroms)
 Number     Number       Type             X           Y           Z
 ---------------------------------------------------------------------
      1          6           0        1.185924   -0.021583   -0.051776
      2          6           0       -0.305212   -0.000008    0.071217
      3          7           0       -1.428988    0.004379   -0.029468
      4          1           0        1.595441    1.078815   -0.066532
      5          1           0        1.522937   -0.573010   -0.779810
      6          1           0        1.600269   -0.406912    0.935978
 ---------------------------------------------------------------------

 SCF Done:  E(RB2PLYPD3) =  -132.517029474     A.U. after   12 cycles
 E2(B2PLYPD3) =    -0.1787027088D+00 E(B2PLYPD3) =    -0.13269573218300D+03

 The electronic state is 1-A.
 Alpha  occ. eigenvalues --  -14.83606 -10.67542 -10.65711  -1.05217  -0.88517
 Alpha  occ. eigenvalues --   -0.60030  -0.54929  -0.51135  -0.44778  -0.40193
 Alpha  occ. eigenvalues --   -0.39477
 Alpha virt. eigenvalues --    0.03557   0.07773   0.08511   0.10073   0.11416
 Alpha virt. eigenvalues --    0.11905   0.15257   0.15785   0.17771   0.19834
 Alpha virt. eigenvalues --    0.20004   0.25219   0.32142   0.32746   0.35451

 Mulliken charges:
               1
     1  C   -0.093110
     2  C   -0.000836
     3  N   -0.190273
     4  H    0.090533
     5  H    0.109937
     6  H    0.083749
 Sum of Mulliken charges =   0.00000

 Dipole moment (field-independent basis, Debye):
    X=              4.0637    Y=             -0.0214    Z=              0.0737  Tot=              4.0645
 Quadrupole moment (field-independent basis, Debye-Ang):
   XX=            -20.9267   YY=            -17.6941   ZZ=            -17.7795
   XY=              0.0376   XZ=             -0.0594   YZ=              0.1734

 Normal termination of Gaussian 09 at Wed Aug 26 18:19:29 2020.
