 Gaussian 09, Revision D.01,
 Gaussian 09:  ES64L-G09RevD.01 24-Apr-2013

 --------------------
 #p B2PLYPD3/Def2QZVP
 --------------------

 ------------
 cyanomethane
 ------------
 Symbolic Z-matrix:
 Charge =  0 Multiplicity = 1

                         Standard orientation:
 ---------------------------------------------------------------------
 Center     Atomic      Atomic             Coordinates (Angstroms)
 Number     Number       Type             X           Y           Z
 ---------------------------------------------------------------------
      1          6           0       -1.164535    0.018163   -0.006999
      2          6           0        0.274332    0.012018    0.032846
      3          7           0        1.448810   -0.016088   -0.010069
      4          1           0       -1.463417    0.888831   -0.356067
      5          1           0       -1.713705   -0.187996    0.898977
      6          1           0       -1.623331   -0.769308   -0.627510
 ---------------------------------------------------------------------

 SCF Done:  E(RB2PLYPD3) =  -132.519823295     A.U. after   12 cycles
 E2(B2PLYPD3) =    -0.1822908472D+00 E(B2PLYPD3) =    -0.13270211414245D+03

 The electronic state is 1-A.
 Alpha  occ. eigenvalues --  -14.85028 -10.67113 -10.65879  -1.03518  -0.90395
 Alpha  occ. eigenvalues --   -0.62153  -0.56056  -0.51899  -0.45151  -0.38901
 Alpha  occ. eigenvalues --   -0.38446
 Alpha virt. eigenvalues --    0.03724   0.06781   0.08046   0.10132   0.11056
 Alpha virt. eigenvalues --    0.11724   0.15510   0.16734   0.17170   0.20055
 Alpha virt. eigenvalues --    0.20391   0.25733   0.32600   0.34365   0.35919

 Mulliken charges:
               1
     1  C   -0.050157
     2  C    0.011251
     3  N   -0.215325
     4  H    0.095805
     5  H    0.079302
     6  H    0.079124
 Sum of Mulliken charges =   0.00000

 Dipole moment (field-independent basis, Debye):
    X=             -4.1984    Y=              0.0115    Z=              0.0077  Tot=              4.1985
 Quadrupole moment (field-independent basis, Debye-Ang):
   XX=            -20.3815   YY=            -17.7972   ZZ=            -18.0924
   XY=              0.2538   XZ=             -0.0351   YZ=             -0.0995

 Normal termination of Gaussian 09 at Wed Aug 26 23:53:13 2020.
