 Gaussian 09, Revision D.01,
 Gaussian 09:  ES64L-G09RevD.01 24-Apr-2013

 --------------------
 #p B2PLYPD3/Def2QZVP
 --------------------

 ------------
 cyanomethane
 ------------
 Symbolic Z-matrix:
 Charge =  0 Multiplicity = 1

                         Standard orientation:
 ---------------------------------------------------------------------
 Center     Atomic      Atomic             Coordinates (Angstroms)
 Number     Number       Type             X           Y           Z
 ---------------------------------------------------------------------
      1          6           0        1.210051   -0.009966   -0.018928
      2          6           0       -0.309654    0.078246   -0.016800
      3          7           0       -1.436004   -0.034277    0.016193
      4          1           0        1.441017   -0.714787   -0.787483
      5          1           0        1.584500   -0.453522    0.991309
      6          1           0        1.624130    0.998571   -0.102808
 ---------------------------------------------------------------------

 SCF Done:  E(RB2PLYPD3) =  -132.527350411     A.U. after   12 cycles
 E2(B2PLYPD3) =    -0.1790892421D+00 E(B2PLYPD3) =    -0.13270643965258D+03

 The electronic state is 1-A.
 Alpha  occ. eigenvalues --  -14.83569 -10.68324 -10.65729  -1.04863  -0.87687
 Alpha  occ. eigenvalues --   -0.57708  -0.55159  -0.51634  -0.44550  -0.39949
 Alpha  occ. eigenvalues --   -0.39539
 Alpha virt. eigenvalues --    0.03393   0.07858   0.08885   0.10260   0.11113
 Alpha virt. eigenvalues --    0.11688   0.14920   0.16088   0.16465   0.19784
 Alpha virt. eigenvalues --    0.20042   0.24524   0.32020   0.33200   0.35552

 Mulliken charges:
               1
     1  C   -0.105085
     2  C   -0.009676
     3  N   -0.192081
     4  H    0.110352
     5  H    0.093073
     6  H    0.103418
 Sum of Mulliken charges =   0.00000

 Dipole moment (field-independent basis, Debye):
    X=              4.0927    Y=              0.0389    Z=             -0.0197  Tot=              4.0929
 Quadrupole moment (field-independent basis, Debye-Ang):
   XX=            -21.1773   YY=            -17.5720   ZZ=            -17.8420
   XY=             -0.1227   XZ=              0.2218   YZ=              0.1116

 Normal termination of Gaussian 09 at Wed Aug 26 20:08:41 2020.
