 Gaussian 09, Revision D.01,
 Gaussian 09:  ES64L-G09RevD.01 24-Apr-2013

 --------------------
 #p B2PLYPD3/Def2QZVP
 --------------------

 ------------
 cyanomethane
 ------------
 Symbolic Z-matrix:
 Charge =  0 Multiplicity = 1

                         Standard orientation:
 ---------------------------------------------------------------------
 Center     Atomic      Atomic             Coordinates (Angstroms)
 Number     Number       Type             X           Y           Z
 ---------------------------------------------------------------------
      1          6           0       -1.174178    0.014108    0.003046
      2          6           0        0.280647   -0.007370   -0.005615
      3          7           0        1.435959   -0.003287    0.000643
      4          1           0       -1.494650    1.033869   -0.161860
      5          1           0       -1.563851   -0.375770    0.945990
      6          1           0       -1.632024   -0.675521   -0.773219
 ---------------------------------------------------------------------

 SCF Done:  E(RB2PLYPD3) =  -132.533219502     A.U. after   12 cycles
 E2(B2PLYPD3) =    -0.1807668454D+00 E(B2PLYPD3) =    -0.13271398634717D+03

 The electronic state is 1-A.
 Alpha  occ. eigenvalues --  -14.84261 -10.67501 -10.66331  -1.04119  -0.88969
 Alpha  occ. eigenvalues --   -0.59821  -0.54602  -0.52417  -0.44837  -0.39139
 Alpha  occ. eigenvalues --   -0.38884
 Alpha virt. eigenvalues --    0.03673   0.07325   0.07991   0.10184   0.11338
 Alpha virt. eigenvalues --    0.11696   0.15335   0.16325   0.16571   0.20021
 Alpha virt. eigenvalues --    0.20154   0.25400   0.32480   0.34067   0.34899

 Mulliken charges:
               1
     1  C   -0.084692
     2  C    0.000148
     3  N   -0.205892
     4  H    0.102938
     5  H    0.095888
     6  H    0.091609
 Sum of Mulliken charges =   0.00000

 Dipole moment (field-independent basis, Debye):
    X=             -4.1282    Y=             -0.0076    Z=              0.0165  Tot=              4.1283
 Quadrupole moment (field-independent basis, Debye-Ang):
   XX=            -20.9671   YY=            -17.6480   ZZ=            -17.9401
   XY=              0.1557   XZ=             -0.0105   YZ=             -0.0500

 Normal termination of Gaussian 09 at Wed Aug 26 14:45:35 2020.
