 Gaussian 09, Revision D.01,
 Gaussian 09:  ES64L-G09RevD.01 24-Apr-2013

 --------------------
 #p B2PLYPD3/Def2QZVP
 --------------------

 ------------
 cyanomethane
 ------------
 Symbolic Z-matrix:
 Charge =  0 Multiplicity = 1

                         Standard orientation:
 ---------------------------------------------------------------------
 Center     Atomic      Atomic             Coordinates (Angstroms)
 Number     Number       Type             X           Y           Z
 ---------------------------------------------------------------------
      1          6           0       -1.168315    0.003268   -0.006862
      2          6           0        0.272826    0.003676    0.020612
      3          7           0        1.433382   -0.005017   -0.007501
      4          1           0       -1.513843    1.007114   -0.071336
      5          1           0       -1.602255   -0.453183    0.880175
      6          1           0       -1.544646   -0.560472   -0.838830
 ---------------------------------------------------------------------

 SCF Done:  E(RB2PLYPD3) =  -132.534376015     A.U. after   11 cycles
 E2(B2PLYPD3) =    -0.1808635218D+00 E(B2PLYPD3) =    -0.13271523953657D+03

 The electronic state is 1-A.
 Alpha  occ. eigenvalues --  -14.84387 -10.66520 -10.66399  -1.03928  -0.89819
 Alpha  occ. eigenvalues --   -0.60510  -0.54722  -0.53646  -0.44870  -0.38937
 Alpha  occ. eigenvalues --   -0.38843
 Alpha virt. eigenvalues --    0.03830   0.07645   0.08010   0.10149   0.11367
 Alpha virt. eigenvalues --    0.11534   0.15542   0.16330   0.16560   0.20103
 Alpha virt. eigenvalues --    0.20159   0.25664   0.32905   0.34750   0.35026

 Mulliken charges:
               1
     1  C   -0.071618
     2  C    0.000847
     3  N   -0.209668
     4  H    0.096105
     5  H    0.090363
     6  H    0.093971
 Sum of Mulliken charges =   0.00000

 Dipole moment (field-independent basis, Debye):
    X=             -4.1438    Y=              0.0032    Z=              0.0064  Tot=              4.1438
 Quadrupole moment (field-independent basis, Debye-Ang):
   XX=            -20.8626   YY=            -17.7102   ZZ=            -17.8343
   XY=              0.0866   XZ=              0.0047   YZ=              0.0119

 Normal termination of Gaussian 09 at Wed Aug 26 20:20:27 2020.
