 Gaussian 09, Revision D.01,
 Gaussian 09:  ES64L-G09RevD.01 24-Apr-2013

 --------------------
 #p B2PLYPD3/Def2QZVP
 --------------------

 ------------
 cyanomethane
 ------------
 Symbolic Z-matrix:
 Charge =  0 Multiplicity = 1

                         Standard orientation:
 ---------------------------------------------------------------------
 Center     Atomic      Atomic             Coordinates (Angstroms)
 Number     Number       Type             X           Y           Z
 ---------------------------------------------------------------------
      1          6           0        1.170982    0.000485   -0.009854
      2          6           0       -0.276133    0.019494    0.010108
      3          7           0       -1.440211   -0.010241   -0.003232
      4          1           0        1.582493   -0.472613    0.887343
      5          1           0        1.571049    0.978151   -0.040261
      6          1           0        1.558843   -0.553726   -0.825979
 ---------------------------------------------------------------------

 SCF Done:  E(RB2PLYPD3) =  -132.533236738     A.U. after   11 cycles
 E2(B2PLYPD3) =    -0.1811710752D+00 E(B2PLYPD3) =    -0.13271440781361D+03

 The electronic state is 1-A.
 Alpha  occ. eigenvalues --  -14.84577 -10.66635 -10.66430  -1.03816  -0.89778
 Alpha  occ. eigenvalues --   -0.60875  -0.54651  -0.53437  -0.44954  -0.38970
 Alpha  occ. eigenvalues --   -0.38805
 Alpha virt. eigenvalues --    0.03819   0.07576   0.07928   0.10138   0.11284
 Alpha virt. eigenvalues --    0.11507   0.15554   0.16425   0.16738   0.20101
 Alpha virt. eigenvalues --    0.20177   0.25563   0.32831   0.34619   0.35321

 Mulliken charges:
               1
     1  C   -0.063620
     2  C    0.002743
     3  N   -0.210618
     4  H    0.087293
     5  H    0.091767
     6  H    0.092435
 Sum of Mulliken charges =   0.00000

 Dipole moment (field-independent basis, Debye):
    X=              4.1589    Y=              0.0097    Z=              0.0057  Tot=              4.1589
 Quadrupole moment (field-independent basis, Debye-Ang):
   XX=            -20.7361   YY=            -17.7862   ZZ=            -17.8587
   XY=             -0.0665   XZ=              0.0071   YZ=              0.0298

 Normal termination of Gaussian 09 at Wed Aug 26 23:58:47 2020.
