 Gaussian 09, Revision D.01,
 Gaussian 09:  ES64L-G09RevD.01 24-Apr-2013

 --------------------
 #p B2PLYPD3/Def2QZVP
 --------------------

 ------------
 cyanomethane
 ------------
 Symbolic Z-matrix:
 Charge =  0 Multiplicity = 1

                         Standard orientation:
 ---------------------------------------------------------------------
 Center     Atomic      Atomic             Coordinates (Angstroms)
 Number     Number       Type             X           Y           Z
 ---------------------------------------------------------------------
      1          6           0       -1.167175    0.000562   -0.007746
      2          6           0        0.266456   -0.002325    0.039999
      3          7           0        1.432591   -0.001919   -0.022113
      4          1           0       -1.503743    1.043347   -0.120571
      5          1           0       -1.531151   -0.412595    0.905200
      6          1           0       -1.588927   -0.606745   -0.823354
 ---------------------------------------------------------------------

 SCF Done:  E(RB2PLYPD3) =  -132.532379251     A.U. after   12 cycles
 E2(B2PLYPD3) =    -0.1816892727D+00 E(B2PLYPD3) =    -0.13271406852422D+03

 The electronic state is 1-A.
 Alpha  occ. eigenvalues --  -14.84528 -10.66924 -10.66521  -1.03654  -0.89701
 Alpha  occ. eigenvalues --   -0.60174  -0.54544  -0.53592  -0.44856  -0.38641
 Alpha  occ. eigenvalues --   -0.38600
 Alpha virt. eigenvalues --    0.03688   0.07200   0.07934   0.10066   0.11328
 Alpha virt. eigenvalues --    0.11525   0.15518   0.15772   0.16759   0.20132
 Alpha virt. eigenvalues --    0.20212   0.25841   0.32898   0.34432   0.34559

 Mulliken charges:
               1
     1  C   -0.082643
     2  C    0.002325
     3  N   -0.212940
     4  H    0.099407
     5  H    0.097311
     6  H    0.096540
 Sum of Mulliken charges =   0.00000

 Dipole moment (field-independent basis, Debye):
    X=             -4.1334    Y=             -0.0069    Z=              0.0389  Tot=              4.1336
 Quadrupole moment (field-independent basis, Debye-Ang):
   XX=            -21.0217   YY=            -17.6971   ZZ=            -17.8420
   XY=              0.0907   XZ=              0.1300   YZ=             -0.0219

 Normal termination of Gaussian 09 at Wed Aug 26 16:11:21 2020.
