 Gaussian 09, Revision D.01,
 Gaussian 09:  ES64L-G09RevD.01 24-Apr-2013

 --------------------
 #p B2PLYPD3/Def2QZVP
 --------------------

 ------------
 cyanomethane
 ------------
 Symbolic Z-matrix:
 Charge =  0 Multiplicity = 1

                         Standard orientation:
 ---------------------------------------------------------------------
 Center     Atomic      Atomic             Coordinates (Angstroms)
 Number     Number       Type             X           Y           Z
 ---------------------------------------------------------------------
      1          6           0        1.171696    0.004603   -0.010912
      2          6           0       -0.279063    0.019397   -0.031620
      3          7           0       -1.429076   -0.008708    0.019174
      4          1           0        1.561821   -0.243209    0.998238
      5          1           0        1.569892    0.928990   -0.251228
      6          1           0        1.516021   -0.768830   -0.626040
 ---------------------------------------------------------------------

 SCF Done:  E(RB2PLYPD3) =  -132.532022829     A.U. after   11 cycles
 E2(B2PLYPD3) =    -0.1799564542D+00 E(B2PLYPD3) =    -0.13271197928285D+03

 The electronic state is 1-A.
 Alpha  occ. eigenvalues --  -14.84124 -10.66226 -10.66133  -1.04282  -0.89919
 Alpha  occ. eigenvalues --   -0.60389  -0.55821  -0.52964  -0.44821  -0.39364
 Alpha  occ. eigenvalues --   -0.38974
 Alpha virt. eigenvalues --    0.03788   0.07815   0.08620   0.10178   0.11193
 Alpha virt. eigenvalues --    0.11735   0.15565   0.16389   0.16629   0.19993
 Alpha virt. eigenvalues --    0.20159   0.25519   0.33049   0.34182   0.35827

 Mulliken charges:
               1
     1  C   -0.069920
     2  C   -0.000882
     3  N   -0.205053
     4  H    0.085541
     5  H    0.095349
     6  H    0.094966
 Sum of Mulliken charges =   0.00000

 Dipole moment (field-independent basis, Debye):
    X=              4.1290    Y=              0.0003    Z=             -0.0148  Tot=              4.1290
 Quadrupole moment (field-independent basis, Debye-Ang):
   XX=            -20.8350   YY=            -17.6098   ZZ=            -17.8547
   XY=             -0.0450   XZ=              0.1722   YZ=              0.0328

 Normal termination of Gaussian 09 at Wed Aug 26 13:46:58 2020.
