 Gaussian 09, Revision D.01,
 Gaussian 09:  ES64L-G09RevD.01 24-Apr-2013

 --------------------
 #p B2PLYPD3/Def2QZVP
 --------------------

 ------------
 cyanomethane
 ------------
 Symbolic Z-matrix:
 Charge =  0 Multiplicity = 1

                         Standard orientation:
 ---------------------------------------------------------------------
 Center     Atomic      Atomic             Coordinates (Angstroms)
 Number     Number       Type             X           Y           Z
 ---------------------------------------------------------------------
      1          6           0        1.155281   -0.040271   -0.019761
      2          6           0       -0.263349   -0.016712   -0.041241
      3          7           0       -1.427330    0.019912    0.029200
      4          1           0        1.438562   -0.674905   -0.745842
      5          1           0        1.587983   -0.283518    1.086811
      6          1           0        1.613176    1.160938   -0.179357
 ---------------------------------------------------------------------

 SCF Done:  E(RB2PLYPD3) =  -132.498251282     A.U. after   12 cycles
 E2(B2PLYPD3) =    -0.1831101270D+00 E(B2PLYPD3) =    -0.13268136140849D+03

 The electronic state is 1-A.
 Alpha  occ. eigenvalues --  -14.84559 -10.68970 -10.66466  -1.03801  -0.89098
 Alpha  occ. eigenvalues --   -0.59478  -0.55502  -0.49750  -0.44911  -0.38824
 Alpha  occ. eigenvalues --   -0.37731
 Alpha virt. eigenvalues --    0.02613   0.04820   0.08192   0.10022   0.11005
 Alpha virt. eigenvalues --    0.12329   0.15288   0.15980   0.16365   0.19945
 Alpha virt. eigenvalues --    0.20323   0.25789   0.29819   0.31906   0.34707

 Mulliken charges:
               1
     1  C   -0.115043
     2  C    0.008569
     3  N   -0.210225
     4  H    0.122559
     5  H    0.102618
     6  H    0.091522
 Sum of Mulliken charges =   0.00000

 Dipole moment (field-independent basis, Debye):
    X=              4.0506    Y=             -0.0491    Z=             -0.0099  Tot=              4.0509
 Quadrupole moment (field-independent basis, Debye-Ang):
   XX=            -21.3839   YY=            -17.8352   ZZ=            -17.7704
   XY=              0.1898   XZ=              0.3223   YZ=              0.2264

 Normal termination of Gaussian 09 at Wed Aug 26 16:28:37 2020.
