 Gaussian 09, Revision D.01,
 Gaussian 09:  ES64L-G09RevD.01 24-Apr-2013

 --------------------
 #p B2PLYPD3/Def2QZVP
 --------------------

 ------------
 cyanomethane
 ------------
 Symbolic Z-matrix:
 Charge =  0 Multiplicity = 1

                         Standard orientation:
 ---------------------------------------------------------------------
 Center     Atomic      Atomic             Coordinates (Angstroms)
 Number     Number       Type             X           Y           Z
 ---------------------------------------------------------------------
      1          6           0        1.175334   -0.002408    0.023591
      2          6           0       -0.266934   -0.019713   -0.018104
      3          7           0       -1.429901    0.011364    0.000311
      4          1           0        1.577294    0.897204   -0.507414
      5          1           0        1.555966   -0.864942   -0.500699
      6          1           0        1.425644    0.020917    0.973010
 ---------------------------------------------------------------------

 SCF Done:  E(RB2PLYPD3) =  -132.525278273     A.U. after   12 cycles
 E2(B2PLYPD3) =    -0.1809269824D+00 E(B2PLYPD3) =    -0.13270620525493D+03

 The electronic state is 1-A.
 Alpha  occ. eigenvalues --  -14.84332 -10.66342 -10.66094  -1.03776  -0.90437
 Alpha  occ. eigenvalues --   -0.59939  -0.56615  -0.53360  -0.44747  -0.38953
 Alpha  occ. eigenvalues --   -0.38627
 Alpha virt. eigenvalues --    0.03828   0.07545   0.08603   0.10169   0.11174
 Alpha virt. eigenvalues --    0.11519   0.15503   0.15976   0.16307   0.20114
 Alpha virt. eigenvalues --    0.20200   0.25617   0.32640   0.34078   0.35799

 Mulliken charges:
               1
     1  C   -0.082561
     2  C   -0.001085
     3  N   -0.212618
     4  H    0.092270
     5  H    0.096391
     6  H    0.107602
 Sum of Mulliken charges =   0.00000

 Dipole moment (field-independent basis, Debye):
    X=              4.1325    Y=             -0.0172    Z=              0.0041  Tot=              4.1325
 Quadrupole moment (field-independent basis, Debye-Ang):
   XX=            -21.0442   YY=            -17.7387   ZZ=            -17.6538
   XY=              0.0739   XZ=             -0.1107   YZ=              0.0348

 Normal termination of Gaussian 09 at Wed Aug 26 12:56:51 2020.
