 Gaussian 09, Revision D.01,
 Gaussian 09:  ES64L-G09RevD.01 24-Apr-2013

 --------------------
 #p B2PLYPD3/Def2QZVP
 --------------------

 ------------
 cyanomethane
 ------------
 Symbolic Z-matrix:
 Charge =  0 Multiplicity = 1

                         Standard orientation:
 ---------------------------------------------------------------------
 Center     Atomic      Atomic             Coordinates (Angstroms)
 Number     Number       Type             X           Y           Z
 ---------------------------------------------------------------------
      1          6           0        1.179921   -0.016927   -0.004674
      2          6           0       -0.286514   -0.036254   -0.000528
      3          7           0       -1.433895    0.024340    0.000503
      4          1           0        1.604892    0.987774   -0.300532
      5          1           0        1.526245   -0.693356   -0.628160
      6          1           0        1.545686   -0.145711    0.956386
 ---------------------------------------------------------------------

 SCF Done:  E(RB2PLYPD3) =  -132.524409147     A.U. after   12 cycles
 E2(B2PLYPD3) =    -0.1796372437D+00 E(B2PLYPD3) =    -0.13270404639086D+03

 The electronic state is 1-A.
 Alpha  occ. eigenvalues --  -14.84124 -10.66179 -10.65897  -1.04384  -0.90089
 Alpha  occ. eigenvalues --   -0.60442  -0.56532  -0.52573  -0.44841  -0.39587
 Alpha  occ. eigenvalues --   -0.39127
 Alpha virt. eigenvalues --    0.03723   0.07835   0.09114   0.10216   0.11050
 Alpha virt. eigenvalues --    0.11701   0.15512   0.16387   0.16840   0.19952
 Alpha virt. eigenvalues --    0.20161   0.25225   0.32767   0.34176   0.36159

 Mulliken charges:
               1
     1  C   -0.066727
     2  C   -0.000932
     3  N   -0.203341
     4  H    0.082806
     5  H    0.097938
     6  H    0.090256
 Sum of Mulliken charges =   0.00000

 Dipole moment (field-independent basis, Debye):
    X=              4.1345    Y=             -0.0394    Z=              0.0197  Tot=              4.1347
 Quadrupole moment (field-independent basis, Debye-Ang):
   XX=            -20.7267   YY=            -17.7463   ZZ=            -17.7329
   XY=              0.1974   XZ=              0.0425   YZ=              0.1093

 Normal termination of Gaussian 09 at Wed Aug 26 12:34:32 2020.
