 Gaussian 09, Revision D.01,
 Gaussian 09:  ES64L-G09RevD.01 24-Apr-2013

 --------------------
 #p B2PLYPD3/Def2QZVP
 --------------------

 ------------
 cyanomethane
 ------------
 Symbolic Z-matrix:
 Charge =  0 Multiplicity = 1

                         Standard orientation:
 ---------------------------------------------------------------------
 Center     Atomic      Atomic             Coordinates (Angstroms)
 Number     Number       Type             X           Y           Z
 ---------------------------------------------------------------------
      1          6           0        1.183815    0.001617   -0.001513
      2          6           0       -0.278588    0.025021   -0.049979
      3          7           0       -1.421059   -0.004686    0.038147
      4          1           0        1.639505   -0.331049    0.907933
      5          1           0        1.574854    0.955124   -0.199928
      6          1           0        1.301688   -0.751103   -0.666081
 ---------------------------------------------------------------------

 SCF Done:  E(RB2PLYPD3) =  -132.520749958     A.U. after   12 cycles
 E2(B2PLYPD3) =    -0.1796671329D+00 E(B2PLYPD3) =    -0.13270041709045D+03

 The electronic state is 1-A.
 Alpha  occ. eigenvalues --  -14.83854 -10.65928 -10.65737  -1.04453  -0.90536
 Alpha  occ. eigenvalues --   -0.60271  -0.56826  -0.52746  -0.44648  -0.39457
 Alpha  occ. eigenvalues --   -0.38993
 Alpha virt. eigenvalues --    0.03841   0.07726   0.09409   0.10238   0.11212
 Alpha virt. eigenvalues --    0.11732   0.15053   0.15670   0.17359   0.20023
 Alpha virt. eigenvalues --    0.20224   0.25434   0.33053   0.34459   0.36110

 Mulliken charges:
               1
     1  C   -0.086406
     2  C   -0.001865
     3  N   -0.203900
     4  H    0.087316
     5  H    0.099720
     6  H    0.105136
 Sum of Mulliken charges =   0.00000

 Dipole moment (field-independent basis, Debye):
    X=              4.0966    Y=             -0.0288    Z=             -0.0413  Tot=              4.0969
 Quadrupole moment (field-independent basis, Debye-Ang):
   XX=            -20.9840   YY=            -17.4072   ZZ=            -17.9078
   XY=              0.0532   XZ=              0.4654   YZ=              0.0744

 Normal termination of Gaussian 09 at Wed Aug 26 21:49:27 2020.
