 Gaussian 09, Revision D.01,
 Gaussian 09:  ES64L-G09RevD.01 24-Apr-2013

 --------------------
 #p B2PLYPD3/Def2QZVP
 --------------------

 ------------
 cyanomethane
 ------------
 Symbolic Z-matrix:
 Charge =  0 Multiplicity = 1

                         Standard orientation:
 ---------------------------------------------------------------------
 Center     Atomic      Atomic             Coordinates (Angstroms)
 Number     Number       Type             X           Y           Z
 ---------------------------------------------------------------------
      1          6           0        1.151287   -0.020754    0.004402
      2          6           0       -0.256684   -0.003344   -0.070127
      3          7           0       -1.439790    0.010079    0.033993
      4          1           0        1.657519    0.991099   -0.185779
      5          1           0        1.533335   -0.676754   -0.602811
      6          1           0        1.520052   -0.240307    0.944987
 ---------------------------------------------------------------------

 SCF Done:  E(RB2PLYPD3) =  -132.512524031     A.U. after   11 cycles
 E2(B2PLYPD3) =    -0.1833309185D+00 E(B2PLYPD3) =    -0.13269585494961D+03

 The electronic state is 1-A.
 Alpha  occ. eigenvalues --  -14.85265 -10.67178 -10.65428  -1.03129  -0.91076
 Alpha  occ. eigenvalues --   -0.62555  -0.56358  -0.52584  -0.45172  -0.38461
 Alpha  occ. eigenvalues --   -0.38023
 Alpha virt. eigenvalues --    0.03598   0.06328   0.07948   0.09974   0.11012
 Alpha virt. eigenvalues --    0.11738   0.15846   0.16449   0.16898   0.20106
 Alpha virt. eigenvalues --    0.20397   0.26386   0.32416   0.34629   0.35624

 Mulliken charges:
               1
     1  C   -0.050892
     2  C    0.011710
     3  N   -0.220291
     4  H    0.080279
     5  H    0.093622
     6  H    0.085571
 Sum of Mulliken charges =   0.00000

 Dipole moment (field-independent basis, Debye):
    X=              4.1752    Y=             -0.0474    Z=              0.0036  Tot=              4.1755
 Quadrupole moment (field-independent basis, Debye-Ang):
   XX=            -20.5465   YY=            -17.8124   ZZ=            -17.9511
   XY=              0.0782   XZ=              0.2381   YZ=              0.0982

 Normal termination of Gaussian 09 at Wed Aug 26 21:19:33 2020.
