 Gaussian 09, Revision D.01,
 Gaussian 09:  ES64L-G09RevD.01 24-Apr-2013

 --------------------
 #p B2PLYPD3/Def2QZVP
 --------------------

 ------------
 cyanomethane
 ------------
 Symbolic Z-matrix:
 Charge =  0 Multiplicity = 1

                         Standard orientation:
 ---------------------------------------------------------------------
 Center     Atomic      Atomic             Coordinates (Angstroms)
 Number     Number       Type             X           Y           Z
 ---------------------------------------------------------------------
      1          6           0        1.173921    0.000376   -0.000665
      2          6           0       -0.274370   -0.002438    0.019927
      3          7           0       -1.438093    0.000738   -0.008159
      4          1           0        1.587533   -0.185392    0.981096
      5          1           0        1.539946    0.976416   -0.359384
      6          1           0        1.541869   -0.783819   -0.680170
 ---------------------------------------------------------------------

 SCF Done:  E(RB2PLYPD3) =  -132.534411921     A.U. after   11 cycles
 E2(B2PLYPD3) =    -0.1813741784D+00 E(B2PLYPD3) =    -0.13271578609893D+03

 The electronic state is 1-A.
 Alpha  occ. eigenvalues --  -14.84481 -10.67230 -10.66538  -1.03774  -0.89264
 Alpha  occ. eigenvalues --   -0.60023  -0.53898  -0.53663  -0.44861  -0.38827
 Alpha  occ. eigenvalues --   -0.38764
 Alpha virt. eigenvalues --    0.03712   0.07522   0.07685   0.10148   0.11368
 Alpha virt. eigenvalues --    0.11467   0.15431   0.16322   0.16352   0.20120
 Alpha virt. eigenvalues --    0.20146   0.25515   0.32675   0.34347   0.34674

 Mulliken charges:
               1
     1  C   -0.082223
     2  C    0.001246
     3  N   -0.210389
     4  H    0.096765
     5  H    0.097482
     6  H    0.097119
 Sum of Mulliken charges =   0.00000

 Dipole moment (field-independent basis, Debye):
    X=              4.1406    Y=             -0.0035    Z=              0.0112  Tot=              4.1406
 Quadrupole moment (field-independent basis, Debye-Ang):
   XX=            -20.9796   YY=            -17.7738   ZZ=            -17.8168
   XY=             -0.0113   XZ=             -0.0052   YZ=             -0.0052

 Normal termination of Gaussian 09 at Thu Aug 27 00:05:28 2020.
