 Gaussian 09, Revision D.01,
 Gaussian 09:  ES64L-G09RevD.01 24-Apr-2013

 --------------------
 #p B2PLYPD3/Def2QZVP
 --------------------

 ------------
 cyanomethane
 ------------
 Symbolic Z-matrix:
 Charge =  0 Multiplicity = 1

                         Standard orientation:
 ---------------------------------------------------------------------
 Center     Atomic      Atomic             Coordinates (Angstroms)
 Number     Number       Type             X           Y           Z
 ---------------------------------------------------------------------
      1          6           0        1.175150   -0.001325   -0.000513
      2          6           0       -0.272537    0.041247    0.019964
      3          7           0       -1.442768   -0.019684   -0.006787
      4          1           0        1.605851   -0.214374    0.987575
      5          1           0        1.566288    0.950196   -0.379968
      6          1           0        1.511560   -0.837567   -0.676810
 ---------------------------------------------------------------------

 SCF Done:  E(RB2PLYPD3) =  -132.531776078     A.U. after   11 cycles
 E2(B2PLYPD3) =    -0.1823126321D+00 E(B2PLYPD3) =    -0.13271408870958D+03

 The electronic state is 1-A.
 Alpha  occ. eigenvalues --  -14.84739 -10.67634 -10.66807  -1.03478  -0.89002
 Alpha  occ. eigenvalues --   -0.59955  -0.54013  -0.52978  -0.44915  -0.38671
 Alpha  occ. eigenvalues --   -0.38494
 Alpha virt. eigenvalues --    0.03568   0.07082   0.07492   0.10104   0.11195
 Alpha virt. eigenvalues --    0.11519   0.15381   0.16147   0.16442   0.20098
 Alpha virt. eigenvalues --    0.20201   0.25594   0.32506   0.33863   0.34674

 Mulliken charges:
               1
     1  C   -0.086299
     2  C    0.003866
     3  N   -0.213284
     4  H    0.097673
     5  H    0.099695
     6  H    0.098348
 Sum of Mulliken charges =   0.00000

 Dipole moment (field-independent basis, Debye):
    X=              4.1418    Y=              0.0125    Z=              0.0083  Tot=              4.1418
 Quadrupole moment (field-independent basis, Debye-Ang):
   XX=            -21.0143   YY=            -17.7814   ZZ=            -17.8958
   XY=             -0.1058   XZ=              0.0256   YZ=             -0.0365

 Normal termination of Gaussian 09 at Wed Aug 26 12:57:44 2020.
