 Gaussian 09, Revision D.01,
 Gaussian 09:  ES64L-G09RevD.01 24-Apr-2013

 --------------------
 #p B2PLYPD3/Def2QZVP
 --------------------

 ------------
 cyanomethane
 ------------
 Symbolic Z-matrix:
 Charge =  0 Multiplicity = 1

                         Standard orientation:
 ---------------------------------------------------------------------
 Center     Atomic      Atomic             Coordinates (Angstroms)
 Number     Number       Type             X           Y           Z
 ---------------------------------------------------------------------
      1          6           0        1.150599   -0.014663   -0.023792
      2          6           0       -0.257986   -0.031492   -0.047643
      3          7           0       -1.428418    0.027047    0.024387
      4          1           0        1.491951   -0.801191   -0.646010
      5          1           0        1.486521   -0.216585    1.159223
      6          1           0        1.664782    1.105377   -0.255315
 ---------------------------------------------------------------------

 SCF Done:  E(RB2PLYPD3) =  -132.502659807     A.U. after   12 cycles
 E2(B2PLYPD3) =    -0.1839552845D+00 E(B2PLYPD3) =    -0.13268661509166D+03

 The electronic state is 1-A.
 Alpha  occ. eigenvalues --  -14.84728 -10.69378 -10.66647  -1.03515  -0.88778
 Alpha  occ. eigenvalues --   -0.59252  -0.54464  -0.50280  -0.44936  -0.38453
 Alpha  occ. eigenvalues --   -0.37585
 Alpha virt. eigenvalues --    0.02634   0.04743   0.07570   0.09979   0.11133
 Alpha virt. eigenvalues --    0.12266   0.15305   0.15527   0.16749   0.20011
 Alpha virt. eigenvalues --    0.20365   0.25949   0.30893   0.31165   0.34238

 Mulliken charges:
               1
     1  C   -0.119212
     2  C    0.011391
     3  N   -0.213074
     4  H    0.118777
     5  H    0.099238
     6  H    0.102880
 Sum of Mulliken charges =   0.00000

 Dipole moment (field-independent basis, Debye):
    X=              4.0686    Y=             -0.0503    Z=             -0.0090  Tot=              4.0690
 Quadrupole moment (field-independent basis, Debye-Ang):
   XX=            -21.4029   YY=            -17.7301   ZZ=            -17.9319
   XY=              0.2651   XZ=              0.1404   YZ=              0.1677

 Normal termination of Gaussian 09 at Wed Aug 26 21:39:51 2020.
