 Gaussian 09, Revision D.01,
 Gaussian 09:  ES64L-G09RevD.01 24-Apr-2013

 --------------------
 #p B2PLYPD3/Def2QZVP
 --------------------

 ------------
 cyanomethane
 ------------
 Symbolic Z-matrix:
 Charge =  0 Multiplicity = 1

                         Standard orientation:
 ---------------------------------------------------------------------
 Center     Atomic      Atomic             Coordinates (Angstroms)
 Number     Number       Type             X           Y           Z
 ---------------------------------------------------------------------
      1          6           0        1.179076   -0.013228    0.005054
      2          6           0       -0.272638    0.032701    0.014843
      3          7           0       -1.448097   -0.016247   -0.005430
      4          1           0        1.606232   -0.166234    0.989807
      5          1           0        1.544354    0.977935   -0.396819
      6          1           0        1.547462   -0.814810   -0.674358
 ---------------------------------------------------------------------

 SCF Done:  E(RB2PLYPD3) =  -132.530552076     A.U. after   12 cycles
 E2(B2PLYPD3) =    -0.1827572273D+00 E(B2PLYPD3) =    -0.13271330930338D+03

 The electronic state is 1-A.
 Alpha  occ. eigenvalues --  -14.84883 -10.67760 -10.66984  -1.03294  -0.88910
 Alpha  occ. eigenvalues --   -0.60006  -0.53746  -0.53057  -0.44935  -0.38590
 Alpha  occ. eigenvalues --   -0.38404
 Alpha virt. eigenvalues --    0.03582   0.07037   0.07296   0.10074   0.11229
 Alpha virt. eigenvalues --    0.11385   0.15348   0.15872   0.16705   0.20160
 Alpha virt. eigenvalues --    0.20199   0.25503   0.32292   0.33806   0.34649

 Mulliken charges:
               1
     1  C   -0.086805
     2  C    0.004948
     3  N   -0.215045
     4  H    0.100565
     5  H    0.096079
     6  H    0.100259
 Sum of Mulliken charges =   0.00000

 Dipole moment (field-independent basis, Debye):
    X=              4.1521    Y=              0.0176    Z=              0.0055  Tot=              4.1521
 Quadrupole moment (field-independent basis, Debye-Ang):
   XX=            -21.0177   YY=            -17.8596   ZZ=            -17.8674
   XY=             -0.0982   XZ=              0.0176   YZ=              0.0035

 Normal termination of Gaussian 09 at Wed Aug 26 10:46:23 2020.
