 Gaussian 09, Revision D.01,
 Gaussian 09:  ES64L-G09RevD.01 24-Apr-2013

 --------------------
 #p B2PLYPD3/Def2QZVP
 --------------------

 ------------
 cyanomethane
 ------------
 Symbolic Z-matrix:
 Charge =  0 Multiplicity = 1

                         Standard orientation:
 ---------------------------------------------------------------------
 Center     Atomic      Atomic             Coordinates (Angstroms)
 Number     Number       Type             X           Y           Z
 ---------------------------------------------------------------------
      1          6           0       -1.154563    0.016548    0.009879
      2          6           0        0.277937   -0.010836   -0.034098
      3          7           0        1.423169   -0.006317    0.009534
      4          1           0       -1.496475    0.988060   -0.447349
      5          1           0       -1.478205   -0.062899    1.080067
      6          1           0       -1.727747   -0.915216   -0.554149
 ---------------------------------------------------------------------

 SCF Done:  E(RB2PLYPD3) =  -132.521935383     A.U. after   12 cycles
 E2(B2PLYPD3) =    -0.1808764530D+00 E(B2PLYPD3) =    -0.13270281183579D+03

 The electronic state is 1-A.
 Alpha  occ. eigenvalues --  -14.84010 -10.68845 -10.66000  -1.04581  -0.88332
 Alpha  occ. eigenvalues --   -0.59209  -0.53823  -0.51207  -0.44852  -0.39129
 Alpha  occ. eigenvalues --   -0.38790
 Alpha virt. eigenvalues --    0.03283   0.06237   0.07627   0.10152   0.11730
 Alpha virt. eigenvalues --    0.12102   0.15380   0.16047   0.16806   0.19994
 Alpha virt. eigenvalues --    0.20107   0.25801   0.31153   0.33751   0.34075

 Mulliken charges:
               1
     1  C   -0.107128
     2  C    0.003478
     3  N   -0.199794
     4  H    0.106243
     5  H    0.105413
     6  H    0.091786
 Sum of Mulliken charges =   0.00000

 Dipole moment (field-independent basis, Debye):
    X=             -4.0629    Y=              0.0335    Z=              0.0280  Tot=              4.0631
 Quadrupole moment (field-independent basis, Debye-Ang):
   XX=            -21.1459   YY=            -17.7353   ZZ=            -17.8576
   XY=              0.1619   XZ=             -0.0290   YZ=             -0.1024

 Normal termination of Gaussian 09 at Wed Aug 26 20:20:54 2020.
