 Gaussian 09, Revision D.01,
 Gaussian 09:  ES64L-G09RevD.01 24-Apr-2013

 --------------------
 #p B2PLYPD3/Def2QZVP
 --------------------

 ------------
 cyanomethane
 ------------
 Symbolic Z-matrix:
 Charge =  0 Multiplicity = 1

                         Standard orientation:
 ---------------------------------------------------------------------
 Center     Atomic      Atomic             Coordinates (Angstroms)
 Number     Number       Type             X           Y           Z
 ---------------------------------------------------------------------
      1          6           0       -1.188331   -0.015596   -0.014297
      2          6           0        0.272956    0.018084    0.026747
      3          7           0        1.439431   -0.012201   -0.011688
      4          1           0       -1.470269    0.969065   -0.404135
      5          1           0       -1.545477   -0.092499    1.006041
      6          1           0       -1.568021   -0.806083   -0.594793
 ---------------------------------------------------------------------

 SCF Done:  E(RB2PLYPD3) =  -132.532051823     A.U. after   12 cycles
 E2(B2PLYPD3) =    -0.1815051790D+00 E(B2PLYPD3) =    -0.13271355700189D+03

 The electronic state is 1-A.
 Alpha  occ. eigenvalues --  -14.84474 -10.66894 -10.66572  -1.03551  -0.89562
 Alpha  occ. eigenvalues --   -0.59632  -0.54854  -0.53905  -0.44737  -0.38843
 Alpha  occ. eigenvalues --   -0.38609
 Alpha virt. eigenvalues --    0.03778   0.07769   0.08068   0.10093   0.11219
 Alpha virt. eigenvalues --    0.11331   0.15237   0.15545   0.16717   0.20141
 Alpha virt. eigenvalues --    0.20197   0.25320   0.32597   0.34092   0.35220

 Mulliken charges:
               1
     1  C   -0.087554
     2  C    0.000343
     3  N   -0.213587
     4  H    0.099986
     5  H    0.097043
     6  H    0.103770
 Sum of Mulliken charges =   0.00000

 Dipole moment (field-independent basis, Debye):
    X=             -4.1416    Y=              0.0234    Z=              0.0255  Tot=              4.1418
 Quadrupole moment (field-independent basis, Debye-Ang):
   XX=            -21.1314   YY=            -17.6810   ZZ=            -17.8028
   XY=              0.1239   XZ=              0.0173   YZ=              0.0369

 Normal termination of Gaussian 09 at Wed Aug 26 15:23:39 2020.
