 Gaussian 09, Revision D.01,
 Gaussian 09:  ES64L-G09RevD.01 24-Apr-2013

 --------------------
 #p B2PLYPD3/Def2QZVP
 --------------------

 ------------
 cyanomethane
 ------------
 Symbolic Z-matrix:
 Charge =  0 Multiplicity = 1

                         Standard orientation:
 ---------------------------------------------------------------------
 Center     Atomic      Atomic             Coordinates (Angstroms)
 Number     Number       Type             X           Y           Z
 ---------------------------------------------------------------------
      1          6           0        1.180456    0.019391    0.000423
      2          6           0       -0.280282    0.006016   -0.027405
      3          7           0       -1.444082   -0.008458    0.011637
      4          1           0        1.529930    1.068189    0.001145
      5          1           0        1.621748   -0.606570   -0.858487
      6          1           0        1.555857   -0.554851    0.937777
 ---------------------------------------------------------------------

 SCF Done:  E(RB2PLYPD3) =  -132.527070788     A.U. after   12 cycles
 E2(B2PLYPD3) =    -0.1821362904D+00 E(B2PLYPD3) =    -0.13270920707864D+03

 The electronic state is 1-A.
 Alpha  occ. eigenvalues --  -14.84539 -10.68700 -10.66656  -1.03735  -0.88144
 Alpha  occ. eigenvalues --   -0.59140  -0.54195  -0.51452  -0.44857  -0.38932
 Alpha  occ. eigenvalues --   -0.38495
 Alpha virt. eigenvalues --    0.03391   0.06726   0.07476   0.10142   0.11153
 Alpha virt. eigenvalues --    0.11747   0.15154   0.16056   0.16526   0.20009
 Alpha virt. eigenvalues --    0.20200   0.25280   0.32007   0.32928   0.34600

 Mulliken charges:
               1
     1  C   -0.099701
     2  C    0.003564
     3  N   -0.208876
     4  H    0.109623
     5  H    0.097740
     6  H    0.097650
 Sum of Mulliken charges =   0.00000

 Dipole moment (field-independent basis, Debye):
    X=              4.1241    Y=             -0.0133    Z=             -0.0057  Tot=              4.1241
 Quadrupole moment (field-independent basis, Debye-Ang):
   XX=            -21.1570   YY=            -17.6211   ZZ=            -18.0693
   XY=             -0.1762   XZ=              0.0443   YZ=              0.0110

 Normal termination of Gaussian 09 at Wed Aug 26 15:15:38 2020.
