 Gaussian 09, Revision D.01,
 Gaussian 09:  ES64L-G09RevD.01 24-Apr-2013

 --------------------
 #p B2PLYPD3/Def2QZVP
 --------------------

 ------------
 cyanomethane
 ------------
 Symbolic Z-matrix:
 Charge =  0 Multiplicity = 1

                         Standard orientation:
 ---------------------------------------------------------------------
 Center     Atomic      Atomic             Coordinates (Angstroms)
 Number     Number       Type             X           Y           Z
 ---------------------------------------------------------------------
      1          6           0        1.184156   -0.007587   -0.003227
      2          6           0       -0.280590   -0.011069   -0.012403
      3          7           0       -1.438605    0.011025    0.009797
      4          1           0        1.476163   -0.822702   -0.557517
      5          1           0        1.585844   -0.070434    1.002774
      6          1           0        1.586836    0.927902   -0.420054
 ---------------------------------------------------------------------

 SCF Done:  E(RB2PLYPD3) =  -132.532155370     A.U. after   12 cycles
 E2(B2PLYPD3) =    -0.1806221091D+00 E(B2PLYPD3) =    -0.13271277747926D+03

 The electronic state is 1-A.
 Alpha  occ. eigenvalues --  -14.84316 -10.66649 -10.66396  -1.03954  -0.89595
 Alpha  occ. eigenvalues --   -0.59828  -0.55442  -0.53165  -0.44795  -0.39133
 Alpha  occ. eigenvalues --   -0.38944
 Alpha virt. eigenvalues --    0.03789   0.07609   0.08567   0.10192   0.11149
 Alpha virt. eigenvalues --    0.11518   0.15356   0.16065   0.16670   0.20044
 Alpha virt. eigenvalues --    0.20176   0.25208   0.32658   0.34468   0.35364

 Mulliken charges:
               1
     1  C   -0.077951
     2  C   -0.001547
     3  N   -0.208293
     4  H    0.101405
     5  H    0.093103
     6  H    0.093283
 Sum of Mulliken charges =   0.00000

 Dipole moment (field-independent basis, Debye):
    X=              4.1435    Y=             -0.0185    Z=             -0.0072  Tot=              4.1435
 Quadrupole moment (field-independent basis, Debye-Ang):
   XX=            -20.9290   YY=            -17.7039   ZZ=            -17.8105
   XY=              0.1345   XZ=              0.1233   YZ=              0.0654

 Normal termination of Gaussian 09 at Wed Aug 26 20:49:48 2020.
