 Gaussian 09, Revision D.01,
 Gaussian 09:  ES64L-G09RevD.01 24-Apr-2013

 --------------------
 #p B2PLYPD3/Def2QZVP
 --------------------

 ------------
 cyanomethane
 ------------
 Symbolic Z-matrix:
 Charge =  0 Multiplicity = 1

                         Standard orientation:
 ---------------------------------------------------------------------
 Center     Atomic      Atomic             Coordinates (Angstroms)
 Number     Number       Type             X           Y           Z
 ---------------------------------------------------------------------
      1          6           0        1.195196   -0.005225    0.003216
      2          6           0       -0.276387   -0.012233   -0.021560
      3          7           0       -1.442416    0.015785    0.008863
      4          1           0        1.454266   -0.809712   -0.626439
      5          1           0        1.481269   -0.171894    1.017530
      6          1           0        1.648520    0.975860   -0.343071
 ---------------------------------------------------------------------

 SCF Done:  E(RB2PLYPD3) =  -132.529751923     A.U. after   12 cycles
 E2(B2PLYPD3) =    -0.1815683473D+00 E(B2PLYPD3) =    -0.13271132026998D+03

 The electronic state is 1-A.
 Alpha  occ. eigenvalues --  -14.84450 -10.67231 -10.66577  -1.03549  -0.89341
 Alpha  occ. eigenvalues --   -0.58934  -0.55346  -0.53308  -0.44692  -0.38805
 Alpha  occ. eigenvalues --   -0.38719
 Alpha virt. eigenvalues --    0.03671   0.07366   0.08523   0.10169   0.11088
 Alpha virt. eigenvalues --    0.11353   0.15155   0.15448   0.16627   0.20117
 Alpha virt. eigenvalues --    0.20201   0.25058   0.32210   0.34375   0.34930

 Mulliken charges:
               1
     1  C   -0.094318
     2  C   -0.001524
     3  N   -0.212841
     4  H    0.106357
     5  H    0.104041
     6  H    0.098285
 Sum of Mulliken charges =   0.00000

 Dipole moment (field-independent basis, Debye):
    X=              4.1413    Y=             -0.0372    Z=              0.0057  Tot=              4.1415
 Quadrupole moment (field-independent basis, Debye-Ang):
   XX=            -21.1855   YY=            -17.7175   ZZ=            -17.7754
   XY=              0.2072   XZ=              0.0518   YZ=              0.0510

 Normal termination of Gaussian 09 at Wed Aug 26 10:33:08 2020.
