 Gaussian 09, Revision D.01,
 Gaussian 09:  ES64L-G09RevD.01 24-Apr-2013

 --------------------
 #p B2PLYPD3/Def2QZVP
 --------------------

 ------------
 cyanomethane
 ------------
 Symbolic Z-matrix:
 Charge =  0 Multiplicity = 1

                         Standard orientation:
 ---------------------------------------------------------------------
 Center     Atomic      Atomic             Coordinates (Angstroms)
 Number     Number       Type             X           Y           Z
 ---------------------------------------------------------------------
      1          6           0        1.182235   -0.003762   -0.000885
      2          6           0       -0.272441    0.010623   -0.007803
      3          7           0       -1.435048   -0.006651    0.002242
      4          1           0        1.519313    0.948504   -0.352014
      5          1           0        1.561126   -0.788794   -0.621639
      6          1           0        1.506133   -0.154320    1.010088
 ---------------------------------------------------------------------

 SCF Done:  E(RB2PLYPD3) =  -132.534470849     A.U. after   12 cycles
 E2(B2PLYPD3) =    -0.1809181029D+00 E(B2PLYPD3) =    -0.13271538895212D+03

 The electronic state is 1-A.
 Alpha  occ. eigenvalues --  -14.84333 -10.66579 -10.66389  -1.03751  -0.89797
 Alpha  occ. eigenvalues --   -0.59663  -0.54699  -0.54511  -0.44736  -0.38877
 Alpha  occ. eigenvalues --   -0.38817
 Alpha virt. eigenvalues --    0.03847   0.07961   0.08164   0.10170   0.11281
 Alpha virt. eigenvalues --    0.11357   0.15407   0.15908   0.16382   0.20134
 Alpha virt. eigenvalues --    0.20162   0.25368   0.32788   0.34732   0.34989

 Mulliken charges:
               1
     1  C   -0.082238
     2  C   -0.001802
     3  N   -0.211438
     4  H    0.098490
     5  H    0.098483
     6  H    0.098505
 Sum of Mulliken charges =   0.00000

 Dipole moment (field-independent basis, Debye):
    X=              4.1413    Y=              0.0114    Z=              0.0036  Tot=              4.1413
 Quadrupole moment (field-independent basis, Debye-Ang):
   XX=            -21.0683   YY=            -17.7044   ZZ=            -17.7329
   XY=             -0.0563   XZ=             -0.0066   YZ=              0.0019

 Normal termination of Gaussian 09 at Wed Aug 26 10:15:03 2020.
