 Gaussian 09, Revision D.01,
 Gaussian 09:  ES64L-G09RevD.01 24-Apr-2013

 --------------------
 #p B2PLYPD3/Def2QZVP
 --------------------

 ------------
 cyanomethane
 ------------
 Symbolic Z-matrix:
 Charge =  0 Multiplicity = 1

                         Standard orientation:
 ---------------------------------------------------------------------
 Center     Atomic      Atomic             Coordinates (Angstroms)
 Number     Number       Type             X           Y           Z
 ---------------------------------------------------------------------
      1          6           0       -1.183551    0.004683    0.011186
      2          6           0        0.284895   -0.002366   -0.021394
      3          7           0        1.436469   -0.000162    0.008317
      4          1           0       -1.544340    1.015086   -0.092179
      5          1           0       -1.537334   -0.432220    0.915907
      6          1           0       -1.581673   -0.595634   -0.820695
 ---------------------------------------------------------------------

 SCF Done:  E(RB2PLYPD3) =  -132.535459564     A.U. after   11 cycles
 E2(B2PLYPD3) =    -0.1801417442D+00 E(B2PLYPD3) =    -0.13271560130849D+03

 The electronic state is 1-A.
 Alpha  occ. eigenvalues --  -14.84142 -10.66978 -10.66231  -1.04201  -0.89190
 Alpha  occ. eigenvalues --   -0.59657  -0.54529  -0.53480  -0.44775  -0.39268
 Alpha  occ. eigenvalues --   -0.39131
 Alpha virt. eigenvalues --    0.03792   0.07995   0.08197   0.10206   0.11343
 Alpha virt. eigenvalues --    0.11491   0.15346   0.16239   0.16550   0.20053
 Alpha virt. eigenvalues --    0.20082   0.25172   0.32653   0.34519   0.35120

 Mulliken charges:
               1
     1  C   -0.080880
     2  C   -0.002381
     3  N   -0.204713
     4  H    0.097702
     5  H    0.098040
     6  H    0.092232
 Sum of Mulliken charges =   0.00000

 Dipole moment (field-independent basis, Debye):
    X=             -4.1316    Y=             -0.0062    Z=             -0.0093  Tot=              4.1316
 Quadrupole moment (field-independent basis, Debye-Ang):
   XX=            -20.9551   YY=            -17.7075   ZZ=            -17.7910
   XY=              0.0342   XZ=             -0.0195   YZ=             -0.0367

 Normal termination of Gaussian 09 at Wed Aug 26 10:06:10 2020.
