 Gaussian 09, Revision D.01,
 Gaussian 09:  ES64L-G09RevD.01 24-Apr-2013

 --------------------
 #p B2PLYPD3/Def2QZVP
 --------------------

 ------------
 cyanomethane
 ------------
 Symbolic Z-matrix:
 Charge =  0 Multiplicity = 1

                         Standard orientation:
 ---------------------------------------------------------------------
 Center     Atomic      Atomic             Coordinates (Angstroms)
 Number     Number       Type             X           Y           Z
 ---------------------------------------------------------------------
      1          6           0       -1.163557   -0.010034    0.003573
      2          6           0        0.281092    0.026511    0.003824
      3          7           0        1.429290   -0.005575    0.000550
      4          1           0       -1.591116   -0.229303    0.965787
      5          1           0       -1.468727   -0.793409   -0.681816
      6          1           0       -1.650401    0.962878   -0.332205
 ---------------------------------------------------------------------

 SCF Done:  E(RB2PLYPD3) =  -132.533406212     A.U. after   12 cycles
 E2(B2PLYPD3) =    -0.1801752472D+00 E(B2PLYPD3) =    -0.13271358145891D+03

 The electronic state is 1-A.
 Alpha  occ. eigenvalues --  -14.84105 -10.67239 -10.66142  -1.04448  -0.89160
 Alpha  occ. eigenvalues --   -0.60342  -0.54022  -0.52817  -0.44876  -0.39210
 Alpha  occ. eigenvalues --   -0.39113
 Alpha virt. eigenvalues --    0.03713   0.07390   0.08007   0.10183   0.11625
 Alpha virt. eigenvalues --    0.11700   0.15480   0.16339   0.16902   0.20042
 Alpha virt. eigenvalues --    0.20090   0.25629   0.32572   0.34469   0.34773

 Mulliken charges:
               1
     1  C   -0.079999
     2  C    0.001153
     3  N   -0.202616
     4  H    0.094464
     5  H    0.097375
     6  H    0.089623
 Sum of Mulliken charges =   0.00000

 Dipole moment (field-independent basis, Debye):
    X=             -4.1167    Y=             -0.0173    Z=              0.0064  Tot=              4.1168
 Quadrupole moment (field-independent basis, Debye-Ang):
   XX=            -20.8468   YY=            -17.7589   ZZ=            -17.8254
   XY=             -0.0369   XZ=             -0.0715   YZ=              0.0336

 Normal termination of Gaussian 09 at Wed Aug 26 11:27:25 2020.
