 Gaussian 09, Revision D.01,
 Gaussian 09:  ES64L-G09RevD.01 24-Apr-2013

 --------------------
 #p B2PLYPD3/Def2QZVP
 --------------------

 ------------
 cyanomethane
 ------------
 Symbolic Z-matrix:
 Charge =  0 Multiplicity = 1

                         Standard orientation:
 ---------------------------------------------------------------------
 Center     Atomic      Atomic             Coordinates (Angstroms)
 Number     Number       Type             X           Y           Z
 ---------------------------------------------------------------------
      1          6           0       -1.193320   -0.011209    0.009849
      2          6           0        0.277013    0.038309   -0.016318
      3          7           0        1.438155   -0.023489    0.010076
      4          1           0       -1.455055    0.980266   -0.111440
      5          1           0       -1.582178   -0.396613    0.873035
      6          1           0       -1.532009   -0.581827   -0.793308
 ---------------------------------------------------------------------

 SCF Done:  E(RB2PLYPD3) =  -132.526755127     A.U. after   12 cycles
 E2(B2PLYPD3) =    -0.1806546313D+00 E(B2PLYPD3) =    -0.13270740975843D+03

 The electronic state is 1-A.
 Alpha  occ. eigenvalues --  -14.84388 -10.66469 -10.65527  -1.03742  -0.90484
 Alpha  occ. eigenvalues --   -0.60167  -0.55446  -0.55044  -0.44739  -0.39043
 Alpha  occ. eigenvalues --   -0.38924
 Alpha virt. eigenvalues --    0.03944   0.08141   0.08847   0.10079   0.11152
 Alpha virt. eigenvalues --    0.11261   0.15314   0.15608   0.16968   0.20107
 Alpha virt. eigenvalues --    0.20205   0.25200   0.32887   0.35219   0.35649

 Mulliken charges:
               1
     1  C   -0.070877
     2  C   -0.000572
     3  N   -0.211946
     4  H    0.096231
     5  H    0.093881
     6  H    0.093282
 Sum of Mulliken charges =   0.00000

 Dipole moment (field-independent basis, Debye):
    X=             -4.1487    Y=              0.0358    Z=             -0.0190  Tot=              4.1489
 Quadrupole moment (field-independent basis, Debye-Ang):
   XX=            -20.9232   YY=            -17.6575   ZZ=            -17.7410
   XY=              0.1980   XZ=             -0.0830   YZ=             -0.0084

 Normal termination of Gaussian 09 at Wed Aug 26 10:59:25 2020.
