 Gaussian 09, Revision D.01,
 Gaussian 09:  ES64L-G09RevD.01 24-Apr-2013

 --------------------
 #p B2PLYPD3/Def2QZVP
 --------------------

 ------------
 cyanomethane
 ------------
 Symbolic Z-matrix:
 Charge =  0 Multiplicity = 1

                         Standard orientation:
 ---------------------------------------------------------------------
 Center     Atomic      Atomic             Coordinates (Angstroms)
 Number     Number       Type             X           Y           Z
 ---------------------------------------------------------------------
      1          6           0        1.161749    0.002376   -0.003906
      2          6           0       -0.270065    0.026449    0.012525
      3          7           0       -1.429531   -0.016932   -0.002523
      4          1           0        1.612970   -0.377305    0.918794
      5          1           0        1.505971    0.979079   -0.171729
      6          1           0        1.537670   -0.656202   -0.781117
 ---------------------------------------------------------------------

 SCF Done:  E(RB2PLYPD3) =  -132.533065157     A.U. after   11 cycles
 E2(B2PLYPD3) =    -0.1808822872D+00 E(B2PLYPD3) =    -0.13271394744461D+03

 The electronic state is 1-A.
 Alpha  occ. eigenvalues --  -14.84365 -10.66460 -10.66338  -1.03981  -0.89958
 Alpha  occ. eigenvalues --   -0.60685  -0.55033  -0.53298  -0.44886  -0.38933
 Alpha  occ. eigenvalues --   -0.38766
 Alpha virt. eigenvalues --    0.03793   0.07388   0.08149   0.10107   0.11341
 Alpha virt. eigenvalues --    0.11675   0.15607   0.16197   0.16765   0.20066
 Alpha virt. eigenvalues --    0.20207   0.25849   0.33031   0.34557   0.35094

 Mulliken charges:
               1
     1  C   -0.071413
     2  C    0.001482
     3  N   -0.209476
     4  H    0.089991
     5  H    0.096560
     6  H    0.092855
 Sum of Mulliken charges =   0.00000

 Dipole moment (field-independent basis, Debye):
    X=              4.1377    Y=              0.0182    Z=             -0.0026  Tot=              4.1377
 Quadrupole moment (field-independent basis, Debye-Ang):
   XX=            -20.8482   YY=            -17.6865   ZZ=            -17.8519
   XY=             -0.1573   XZ=              0.0345   YZ=             -0.0078

 Normal termination of Gaussian 09 at Wed Aug 26 10:52:36 2020.
