 Gaussian 09, Revision D.01,
 Gaussian 09:  ES64L-G09RevD.01 24-Apr-2013

 --------------------
 #p B2PLYPD3/Def2QZVP
 --------------------

 ------------
 cyanomethane
 ------------
 Symbolic Z-matrix:
 Charge =  0 Multiplicity = 1

                         Standard orientation:
 ---------------------------------------------------------------------
 Center     Atomic      Atomic             Coordinates (Angstroms)
 Number     Number       Type             X           Y           Z
 ---------------------------------------------------------------------
      1          6           0       -1.190487    0.008246    0.003982
      2          6           0        0.286424    0.022369   -0.019387
      3          7           0        1.433105   -0.009657    0.012093
      4          1           0       -1.556163   -0.295296    1.000875
      5          1           0       -1.486652   -0.793703   -0.716043
      6          1           0       -1.564547    0.972904   -0.277056
 ---------------------------------------------------------------------

 SCF Done:  E(RB2PLYPD3) =  -132.534081075     A.U. after   12 cycles
 E2(B2PLYPD3) =    -0.1800040441D+00 E(B2PLYPD3) =    -0.13271408511864D+03

 The electronic state is 1-A.
 Alpha  occ. eigenvalues --  -14.83925 -10.67602 -10.66035  -1.04298  -0.88740
 Alpha  occ. eigenvalues --   -0.58814  -0.54638  -0.53054  -0.44644  -0.39362
 Alpha  occ. eigenvalues --   -0.39090
 Alpha virt. eigenvalues --    0.03669   0.07878   0.08387   0.10215   0.11264
 Alpha virt. eigenvalues --    0.11646   0.15197   0.15834   0.16521   0.19996
 Alpha virt. eigenvalues --    0.20113   0.24998   0.32536   0.33811   0.35010

 Mulliken charges:
               1
     1  C   -0.097715
     2  C   -0.004205
     3  N   -0.202635
     4  H    0.100110
     5  H    0.099903
     6  H    0.104542
 Sum of Mulliken charges =   0.00000

 Dipole moment (field-independent basis, Debye):
    X=             -4.1103    Y=             -0.0002    Z=             -0.0132  Tot=              4.1103
 Quadrupole moment (field-independent basis, Debye-Ang):
   XX=            -21.1876   YY=            -17.6190   ZZ=            -17.7901
   XY=              0.0366   XZ=             -0.1208   YZ=             -0.0288

 Normal termination of Gaussian 09 at Wed Aug 26 16:18:55 2020.
