 Gaussian 09, Revision D.01,
 Gaussian 09:  ES64L-G09RevD.01 24-Apr-2013

 --------------------
 #p B2PLYPD3/Def2QZVP
 --------------------

 ------------
 cyanomethane
 ------------
 Symbolic Z-matrix:
 Charge =  0 Multiplicity = 1

                         Standard orientation:
 ---------------------------------------------------------------------
 Center     Atomic      Atomic             Coordinates (Angstroms)
 Number     Number       Type             X           Y           Z
 ---------------------------------------------------------------------
      1          6           0        1.195263   -0.001664   -0.016225
      2          6           0       -0.277159    0.008489   -0.045527
      3          7           0       -1.442271    0.007041    0.026732
      4          1           0        1.441068   -0.528965   -0.824253
      5          1           0        1.467313   -0.580533    0.913998
      6          1           0        1.678893    1.019260    0.093641
 ---------------------------------------------------------------------

 SCF Done:  E(RB2PLYPD3) =  -132.522057554     A.U. after   12 cycles
 E2(B2PLYPD3) =    -0.1817629879D+00 E(B2PLYPD3) =    -0.13270382054229D+03

 The electronic state is 1-A.
 Alpha  occ. eigenvalues --  -14.84487 -10.67253 -10.66623  -1.03548  -0.89462
 Alpha  occ. eigenvalues --   -0.58944  -0.56173  -0.52407  -0.44713  -0.38956
 Alpha  occ. eigenvalues --   -0.38512
 Alpha virt. eigenvalues --    0.03533   0.07002   0.08837   0.10166   0.10846
 Alpha virt. eigenvalues --    0.11570   0.15192   0.15310   0.16855   0.20054
 Alpha virt. eigenvalues --    0.20251   0.25082   0.32152   0.33284   0.35467

 Mulliken charges:
               1
     1  C   -0.098073
     2  C    0.000269
     3  N   -0.213031
     4  H    0.111267
     5  H    0.097595
     6  H    0.101973
 Sum of Mulliken charges =   0.00000

 Dipole moment (field-independent basis, Debye):
    X=              4.1402    Y=             -0.0376    Z=             -0.0138  Tot=              4.1404
 Quadrupole moment (field-independent basis, Debye-Ang):
   XX=            -21.1539   YY=            -17.7159   ZZ=            -17.8060
   XY=              0.1650   XZ=              0.2194   YZ=              0.1186

 Normal termination of Gaussian 09 at Wed Aug 26 23:05:26 2020.
