 Gaussian 09, Revision D.01,
 Gaussian 09:  ES64L-G09RevD.01 24-Apr-2013

 --------------------
 #p B2PLYPD3/Def2QZVP
 --------------------

 ------------
 cyanomethane
 ------------
 Symbolic Z-matrix:
 Charge =  0 Multiplicity = 1

                         Standard orientation:
 ---------------------------------------------------------------------
 Center     Atomic      Atomic             Coordinates (Angstroms)
 Number     Number       Type             X           Y           Z
 ---------------------------------------------------------------------
      1          6           0        1.183164   -0.011068   -0.002569
      2          6           0       -0.262169    0.042848   -0.005092
      3          7           0       -1.420164   -0.024328   -0.006689
      4          1           0        1.472434    1.020161   -0.303841
      5          1           0        1.583099   -0.819984   -0.663049
      6          1           0        1.359639   -0.220560    1.059682
 ---------------------------------------------------------------------

 SCF Done:  E(RB2PLYPD3) =  -132.527611293     A.U. after   12 cycles
 E2(B2PLYPD3) =    -0.1813802992D+00 E(B2PLYPD3) =    -0.13270899159180D+03

 The electronic state is 1-A.
 Alpha  occ. eigenvalues --  -14.83991 -10.67728 -10.66069  -1.03776  -0.89452
 Alpha  occ. eigenvalues --   -0.58176  -0.54802  -0.53895  -0.44487  -0.38654
 Alpha  occ. eigenvalues --   -0.38502
 Alpha virt. eigenvalues --    0.03571   0.07423   0.08324   0.10067   0.11366
 Alpha virt. eigenvalues --    0.11639   0.14817   0.15226   0.16413   0.20114
 Alpha virt. eigenvalues --    0.20247   0.25525   0.32483   0.33791   0.34200

 Mulliken charges:
               1
     1  C   -0.117386
     2  C   -0.000049
     3  N   -0.212734
     4  H    0.109252
     5  H    0.109305
     6  H    0.111613
 Sum of Mulliken charges =   0.00000

 Dipole moment (field-independent basis, Debye):
    X=              4.0742    Y=              0.0246    Z=              0.0266  Tot=              4.0743
 Quadrupole moment (field-independent basis, Debye-Ang):
   XX=            -21.6397   YY=            -17.5498   ZZ=            -17.6876
   XY=             -0.2048   XZ=             -0.1748   YZ=             -0.0066

 Normal termination of Gaussian 09 at Wed Aug 26 21:35:39 2020.
