 Gaussian 09, Revision D.01,
 Gaussian 09:  ES64L-G09RevD.01 24-Apr-2013

 --------------------
 #p B2PLYPD3/Def2QZVP
 --------------------

 ------------
 cyanomethane
 ------------
 Symbolic Z-matrix:
 Charge =  0 Multiplicity = 1

                         Standard orientation:
 ---------------------------------------------------------------------
 Center     Atomic      Atomic             Coordinates (Angstroms)
 Number     Number       Type             X           Y           Z
 ---------------------------------------------------------------------
      1          6           0       -1.168332    0.002952   -0.007765
      2          6           0        0.276145    0.005888    0.017624
      3          7           0        1.432070   -0.002624   -0.007522
      4          1           0       -1.568133   -0.102107    1.012689
      5          1           0       -1.541347   -0.854163   -0.586826
      6          1           0       -1.561883    0.921603   -0.432361
 ---------------------------------------------------------------------

 SCF Done:  E(RB2PLYPD3) =  -132.535194430     A.U. after   11 cycles
 E2(B2PLYPD3) =    -0.1807045430D+00 E(B2PLYPD3) =    -0.13271589897346D+03

 The electronic state is 1-A.
 Alpha  occ. eigenvalues --  -14.84261 -10.67165 -10.66287  -1.04099  -0.89280
 Alpha  occ. eigenvalues --   -0.60078  -0.54037  -0.53431  -0.44847  -0.39022
 Alpha  occ. eigenvalues --   -0.38908
 Alpha virt. eigenvalues --    0.03734   0.07655   0.07755   0.10144   0.11473
 Alpha virt. eigenvalues --    0.11591   0.15499   0.16226   0.16611   0.20089
 Alpha virt. eigenvalues --    0.20114   0.25601   0.32809   0.34329   0.34773

 Mulliken charges:
               1
     1  C   -0.081430
     2  C    0.000252
     3  N   -0.206695
     4  H    0.093684
     5  H    0.096447
     6  H    0.097743
 Sum of Mulliken charges =   0.00000

 Dipole moment (field-independent basis, Debye):
    X=             -4.1264    Y=             -0.0007    Z=              0.0148  Tot=              4.1264
 Quadrupole moment (field-independent basis, Debye-Ang):
   XX=            -20.9537   YY=            -17.7324   ZZ=            -17.8131
   XY=              0.0129   XZ=              0.0146   YZ=             -0.0109

 Normal termination of Gaussian 09 at Wed Aug 26 23:04:48 2020.
