 Gaussian 09, Revision D.01,
 Gaussian 09:  ES64L-G09RevD.01 24-Apr-2013

 --------------------
 #p B2PLYPD3/Def2QZVP
 --------------------

 ------------
 cyanomethane
 ------------
 Symbolic Z-matrix:
 Charge =  0 Multiplicity = 1

                         Standard orientation:
 ---------------------------------------------------------------------
 Center     Atomic      Atomic             Coordinates (Angstroms)
 Number     Number       Type             X           Y           Z
 ---------------------------------------------------------------------
      1          6           0        1.182942    0.007821   -0.024366
      2          6           0       -0.302876   -0.042267    0.022446
      3          7           0       -1.438546    0.031870   -0.010289
      4          1           0        1.727473    1.058543   -0.204259
      5          1           0        1.517994   -0.758079   -0.717455
      6          1           0        1.543956   -0.316875    1.005253
 ---------------------------------------------------------------------

 SCF Done:  E(RB2PLYPD3) =  -132.522730940     A.U. after   12 cycles
 E2(B2PLYPD3) =    -0.1801761800D+00 E(B2PLYPD3) =    -0.13270290712024D+03

 The electronic state is 1-A.
 Alpha  occ. eigenvalues --  -14.83945 -10.68821 -10.66105  -1.04827  -0.87589
 Alpha  occ. eigenvalues --   -0.58869  -0.53442  -0.51173  -0.44850  -0.39684
 Alpha  occ. eigenvalues --   -0.39274
 Alpha virt. eigenvalues --    0.03153   0.06842   0.08366   0.10147   0.11446
 Alpha virt. eigenvalues --    0.11826   0.15165   0.15527   0.17877   0.19977
 Alpha virt. eigenvalues --    0.20240   0.25132   0.31775   0.32910   0.34549

 Mulliken charges:
               1
     1  C   -0.099967
     2  C    0.001245
     3  N   -0.194390
     4  H    0.099208
     5  H    0.102902
     6  H    0.091002
 Sum of Mulliken charges =   0.00000

 Dipole moment (field-independent basis, Debye):
    X=              4.0961    Y=             -0.0877    Z=              0.0518  Tot=              4.0974
 Quadrupole moment (field-independent basis, Debye-Ang):
   XX=            -20.9295   YY=            -17.6909   ZZ=            -17.9997
   XY=              0.2728   XZ=              0.0158   YZ=              0.0933

 Normal termination of Gaussian 09 at Wed Aug 26 18:54:06 2020.
