 Gaussian 09, Revision D.01,
 Gaussian 09:  ES64L-G09RevD.01 24-Apr-2013

 --------------------
 #p B2PLYPD3/Def2QZVP
 --------------------

 ------------
 cyanomethane
 ------------
 Symbolic Z-matrix:
 Charge =  0 Multiplicity = 1

                         Standard orientation:
 ---------------------------------------------------------------------
 Center     Atomic      Atomic             Coordinates (Angstroms)
 Number     Number       Type             X           Y           Z
 ---------------------------------------------------------------------
      1          6           0        1.179962    0.027671   -0.006238
      2          6           0       -0.281367   -0.064358    0.021351
      3          7           0       -1.411661    0.032081   -0.012521
      4          1           0        1.508806    1.070336   -0.003524
      5          1           0        1.512021   -0.546253   -0.909382
      6          1           0        1.469230   -0.528524    0.909871
 ---------------------------------------------------------------------

 SCF Done:  E(RB2PLYPD3) =  -132.531188126     A.U. after   12 cycles
 E2(B2PLYPD3) =    -0.1792271605D+00 E(B2PLYPD3) =    -0.13271041528677D+03

 The electronic state is 1-A.
 Alpha  occ. eigenvalues --  -14.83430 -10.67710 -10.65417  -1.04789  -0.88808
 Alpha  occ. eigenvalues --   -0.58153  -0.54344  -0.53555  -0.44513  -0.39469
 Alpha  occ. eigenvalues --   -0.39226
 Alpha virt. eigenvalues --    0.03574   0.07953   0.08523   0.10086   0.11566
 Alpha virt. eigenvalues --    0.11833   0.15119   0.15306   0.16798   0.19946
 Alpha virt. eigenvalues --    0.20084   0.25581   0.32836   0.33594   0.34748

 Mulliken charges:
               1
     1  C   -0.113004
     2  C   -0.004858
     3  N   -0.197256
     4  H    0.110631
     5  H    0.102725
     6  H    0.101762
 Sum of Mulliken charges =   0.00000

 Dipole moment (field-independent basis, Debye):
    X=              4.0318    Y=             -0.0594    Z=              0.0251  Tot=              4.0323
 Quadrupole moment (field-independent basis, Debye-Ang):
   XX=            -21.4600   YY=            -17.4861   ZZ=            -17.6797
   XY=              0.1759   XZ=             -0.0946   YZ=              0.0106

 Normal termination of Gaussian 09 at Wed Aug 26 23:35:10 2020.
