 Gaussian 09, Revision D.01,
 Gaussian 09:  ES64L-G09RevD.01 24-Apr-2013

 --------------------
 #p B2PLYPD3/Def2QZVP
 --------------------

 ------------
 cyanomethane
 ------------
 Symbolic Z-matrix:
 Charge =  0 Multiplicity = 1

                         Standard orientation:
 ---------------------------------------------------------------------
 Center     Atomic      Atomic             Coordinates (Angstroms)
 Number     Number       Type             X           Y           Z
 ---------------------------------------------------------------------
      1          6           0       -1.168292   -0.002054   -0.019737
      2          6           0        0.281448    0.026172   -0.008972
      3          7           0        1.441156   -0.016525    0.008690
      4          1           0       -1.545091    0.998792   -0.223633
      5          1           0       -1.620607   -0.283375    1.030139
      6          1           0       -1.601328   -0.744446   -0.695080
 ---------------------------------------------------------------------

 SCF Done:  E(RB2PLYPD3) =  -132.528937143     A.U. after   12 cycles
 E2(B2PLYPD3) =    -0.1815788681D+00 E(B2PLYPD3) =    -0.13271051601082D+03

 The electronic state is 1-A.
 Alpha  occ. eigenvalues --  -14.84543 -10.67931 -10.66611  -1.04002  -0.88671
 Alpha  occ. eigenvalues --   -0.60256  -0.54315  -0.51517  -0.44990  -0.39093
 Alpha  occ. eigenvalues --   -0.38656
 Alpha virt. eigenvalues --    0.03467   0.06747   0.07718   0.10087   0.11275
 Alpha virt. eigenvalues --    0.11808   0.15430   0.16241   0.17016   0.20008
 Alpha virt. eigenvalues --    0.20205   0.25526   0.32199   0.33399   0.35072

 Mulliken charges:
               1
     1  C   -0.082146
     2  C    0.004109
     3  N   -0.206717
     4  H    0.098453
     5  H    0.086552
     6  H    0.099749
 Sum of Mulliken charges =   0.00000

 Dipole moment (field-independent basis, Debye):
    X=             -4.1283    Y=              0.0251    Z=             -0.0125  Tot=              4.1284
 Quadrupole moment (field-independent basis, Debye-Ang):
   XX=            -20.8621   YY=            -17.7616   ZZ=            -17.9982
   XY=              0.1412   XZ=             -0.0945   YZ=              0.0541

 Normal termination of Gaussian 09 at Wed Aug 26 11:29:10 2020.
