 Gaussian 09, Revision D.01,
 Gaussian 09:  ES64L-G09RevD.01 24-Apr-2013

 --------------------
 #p B2PLYPD3/Def2QZVP
 --------------------

 ------------
 cyanomethane
 ------------
 Symbolic Z-matrix:
 Charge =  0 Multiplicity = 1

                         Standard orientation:
 ---------------------------------------------------------------------
 Center     Atomic      Atomic             Coordinates (Angstroms)
 Number     Number       Type             X           Y           Z
 ---------------------------------------------------------------------
      1          6           0       -1.179167    0.017828   -0.001192
      2          6           0        0.280689    0.029422    0.042049
      3          7           0        1.425663   -0.026378   -0.021498
      4          1           0       -1.620112   -0.763454   -0.684748
      5          1           0       -1.406787    0.908953   -0.338029
      6          1           0       -1.561876   -0.244350    0.928121
 ---------------------------------------------------------------------

 SCF Done:  E(RB2PLYPD3) =  -132.521330116     A.U. after   12 cycles
 E2(B2PLYPD3) =    -0.1796453395D+00 E(B2PLYPD3) =    -0.13270097545499D+03

 The electronic state is 1-A.
 Alpha  occ. eigenvalues --  -14.83991 -10.65989 -10.65811  -1.04395  -0.90368
 Alpha  occ. eigenvalues --   -0.59858  -0.57371  -0.52522  -0.44740  -0.39509
 Alpha  occ. eigenvalues --   -0.39036
 Alpha virt. eigenvalues --    0.03682   0.07744   0.09356   0.10235   0.11061
 Alpha virt. eigenvalues --    0.11693   0.15442   0.15948   0.16887   0.19986
 Alpha virt. eigenvalues --    0.20166   0.25429   0.32863   0.34101   0.36356

 Mulliken charges:
               1
     1  C   -0.078992
     2  C   -0.003281
     3  N   -0.203806
     4  H    0.085084
     5  H    0.106295
     6  H    0.094700
 Sum of Mulliken charges =   0.00000

 Dipole moment (field-independent basis, Debye):
    X=             -4.1107    Y=              0.0312    Z=              0.0392  Tot=              4.1110
 Quadrupole moment (field-independent basis, Debye-Ang):
   XX=            -20.8872   YY=            -17.6181   ZZ=            -17.7460
   XY=              0.3334   XZ=              0.0991   YZ=             -0.1484

 Normal termination of Gaussian 09 at Wed Aug 26 18:58:55 2020.
