 Gaussian 09, Revision D.01,
 Gaussian 09:  ES64L-G09RevD.01 24-Apr-2013

 --------------------
 #p B2PLYPD3/Def2QZVP
 --------------------

 ------------
 cyanomethane
 ------------
 Symbolic Z-matrix:
 Charge =  0 Multiplicity = 1

                         Standard orientation:
 ---------------------------------------------------------------------
 Center     Atomic      Atomic             Coordinates (Angstroms)
 Number     Number       Type             X           Y           Z
 ---------------------------------------------------------------------
      1          6           0        1.181622    0.005175   -0.003826
      2          6           0       -0.285231    0.016635   -0.011433
      3          7           0       -1.435115   -0.008138    0.004259
      4          1           0        1.560345   -0.852188   -0.582897
      5          1           0        1.524345   -0.134636    1.034532
      6          1           0        1.582769    0.912932   -0.389898
 ---------------------------------------------------------------------

 SCF Done:  E(RB2PLYPD3) =  -132.535345997     A.U. after   11 cycles
 E2(B2PLYPD3) =    -0.1801057387D+00 E(B2PLYPD3) =    -0.13271545173610D+03

 The electronic state is 1-A.
 Alpha  occ. eigenvalues --  -14.84092 -10.67213 -10.66185  -1.04273  -0.89022
 Alpha  occ. eigenvalues --   -0.59620  -0.54359  -0.53245  -0.44772  -0.39310
 Alpha  occ. eigenvalues --   -0.39108
 Alpha virt. eigenvalues --    0.03734   0.07861   0.08207   0.10212   0.11326
 Alpha virt. eigenvalues --    0.11609   0.15348   0.16228   0.16578   0.20019
 Alpha virt. eigenvalues --    0.20103   0.25179   0.32681   0.34200   0.35061

 Mulliken charges:
               1
     1  C   -0.084228
     2  C   -0.002218
     3  N   -0.203630
     4  H    0.095719
     5  H    0.095458
     6  H    0.098899
 Sum of Mulliken charges =   0.00000

 Dipole moment (field-independent basis, Debye):
    X=              4.1262    Y=              0.0063    Z=              0.0027  Tot=              4.1262
 Quadrupole moment (field-independent basis, Debye-Ang):
   XX=            -20.9776   YY=            -17.7131   ZZ=            -17.7917
   XY=             -0.0406   XZ=              0.0091   YZ=             -0.0246

 Normal termination of Gaussian 09 at Thu Aug 27 00:12:26 2020.
