 Gaussian 09, Revision D.01,
 Gaussian 09:  ES64L-G09RevD.01 24-Apr-2013

 --------------------
 #p B2PLYPD3/Def2QZVP
 --------------------

 ------------
 cyanomethane
 ------------
 Symbolic Z-matrix:
 Charge =  0 Multiplicity = 1

                         Standard orientation:
 ---------------------------------------------------------------------
 Center     Atomic      Atomic             Coordinates (Angstroms)
 Number     Number       Type             X           Y           Z
 ---------------------------------------------------------------------
      1          6           0       -1.185690    0.002740    0.000323
      2          6           0        0.283080    0.018141    0.005743
      3          7           0        1.435172   -0.011087   -0.006955
      4          1           0       -1.587542   -0.873235   -0.573357
      5          1           0       -1.551109    0.921921   -0.437414
      6          1           0       -1.491896   -0.096362    1.023056
 ---------------------------------------------------------------------

 SCF Done:  E(RB2PLYPD3) =  -132.534405949     A.U. after   12 cycles
 E2(B2PLYPD3) =    -0.1803334263D+00 E(B2PLYPD3) =    -0.13271473937497D+03

 The electronic state is 1-A.
 Alpha  occ. eigenvalues --  -14.84105 -10.67321 -10.66194  -1.04144  -0.89028
 Alpha  occ. eigenvalues --   -0.59184  -0.54623  -0.53276  -0.44719  -0.39188
 Alpha  occ. eigenvalues --   -0.39058
 Alpha virt. eigenvalues --    0.03702   0.07705   0.08385   0.10203   0.11316
 Alpha virt. eigenvalues --    0.11521   0.15294   0.15896   0.16593   0.20052
 Alpha virt. eigenvalues --    0.20111   0.25138   0.32565   0.34273   0.34891

 Mulliken charges:
               1
     1  C   -0.090514
     2  C   -0.003066
     3  N   -0.205127
     4  H    0.096653
     5  H    0.100954
     6  H    0.101100
 Sum of Mulliken charges =   0.00000

 Dipole moment (field-independent basis, Debye):
    X=             -4.1223    Y=              0.0148    Z=              0.0235  Tot=              4.1224
 Quadrupole moment (field-independent basis, Debye-Ang):
   XX=            -21.0901   YY=            -17.7105   ZZ=            -17.7518
   XY=              0.0892   XZ=              0.0776   YZ=             -0.0409

 Normal termination of Gaussian 09 at Thu Aug 27 00:11:52 2020.
