 Gaussian 09, Revision D.01,
 Gaussian 09:  ES64L-G09RevD.01 24-Apr-2013

 --------------------
 #p B2PLYPD3/Def2QZVP
 --------------------

 ------------
 cyanomethane
 ------------
 Symbolic Z-matrix:
 Charge =  0 Multiplicity = 1

                         Standard orientation:
 ---------------------------------------------------------------------
 Center     Atomic      Atomic             Coordinates (Angstroms)
 Number     Number       Type             X           Y           Z
 ---------------------------------------------------------------------
      1          6           0        1.177393    0.008701   -0.007456
      2          6           0       -0.284015   -0.012772    0.005722
      3          7           0       -1.435530    0.006586   -0.001320
      4          1           0        1.572539    1.039005   -0.070947
      5          1           0        1.546816   -0.600047   -0.834428
      6          1           0        1.569084   -0.460631    0.925021
 ---------------------------------------------------------------------

 SCF Done:  E(RB2PLYPD3) =  -132.534829423     A.U. after   12 cycles
 E2(B2PLYPD3) =    -0.1804332601D+00 E(B2PLYPD3) =    -0.13271526268290D+03

 The electronic state is 1-A.
 Alpha  occ. eigenvalues --  -14.84157 -10.67589 -10.66238  -1.04241  -0.88786
 Alpha  occ. eigenvalues --   -0.59591  -0.53947  -0.53003  -0.44809  -0.39215
 Alpha  occ. eigenvalues --   -0.39044
 Alpha virt. eigenvalues --    0.03675   0.07657   0.07899   0.10178   0.11429
 Alpha virt. eigenvalues --    0.11611   0.15355   0.16099   0.16748   0.20045
 Alpha virt. eigenvalues --    0.20091   0.25297   0.32588   0.34111   0.34754

 Mulliken charges:
               1
     1  C   -0.087187
     2  C   -0.000900
     3  N   -0.203861
     4  H    0.099870
     5  H    0.098181
     6  H    0.093896
 Sum of Mulliken charges =   0.00000

 Dipole moment (field-independent basis, Debye):
    X=              4.1219    Y=             -0.0250    Z=              0.0053  Tot=              4.1220
 Quadrupole moment (field-independent basis, Debye-Ang):
   XX=            -20.9962   YY=            -17.6915   ZZ=            -17.8614
   XY=              0.0107   XZ=              0.0190   YZ=              0.0246

 Normal termination of Gaussian 09 at Wed Aug 26 23:34:17 2020.
