 Gaussian 09, Revision D.01,
 Gaussian 09:  ES64L-G09RevD.01 24-Apr-2013

 --------------------
 #p B2PLYPD3/Def2QZVP
 --------------------

 ------------
 cyanomethane
 ------------
 Symbolic Z-matrix:
 Charge =  0 Multiplicity = 1

                         Standard orientation:
 ---------------------------------------------------------------------
 Center     Atomic      Atomic             Coordinates (Angstroms)
 Number     Number       Type             X           Y           Z
 ---------------------------------------------------------------------
      1          6           0       -1.181506    0.017310   -0.020541
      2          6           0        0.294965    0.021319    0.032862
      3          7           0        1.443697   -0.011546   -0.020662
      4          1           0       -1.637244   -0.709687   -0.623329
      5          1           0       -1.644421    0.856121   -0.207810
      6          1           0       -1.504962   -0.297389    0.901844
 ---------------------------------------------------------------------

 SCF Done:  E(RB2PLYPD3) =  -132.517273669     A.U. after   12 cycles
 E2(B2PLYPD3) =    -0.1796864654D+00 E(B2PLYPD3) =    -0.13269696013430D+03

 The electronic state is 1-A.
 Alpha  occ. eigenvalues --  -14.84353 -10.66540 -10.64959  -1.04432  -0.90672
 Alpha  occ. eigenvalues --   -0.61975  -0.55699  -0.53138  -0.45025  -0.39744
 Alpha  occ. eigenvalues --   -0.39290
 Alpha virt. eigenvalues --    0.03895   0.08174   0.08906   0.10139   0.11147
 Alpha virt. eigenvalues --    0.11670   0.15527   0.16081   0.18198   0.20034
 Alpha virt. eigenvalues --    0.20409   0.25069   0.32952   0.35012   0.36304

 Mulliken charges:
               1
     1  C   -0.042172
     2  C    0.012277
     3  N   -0.204392
     4  H    0.074551
     5  H    0.083864
     6  H    0.075873
 Sum of Mulliken charges =   0.00000

 Dipole moment (field-independent basis, Debye):
    X=             -4.1732    Y=             -0.0171    Z=              0.0803  Tot=              4.1740
 Quadrupole moment (field-independent basis, Debye-Ang):
   XX=            -20.2855   YY=            -17.7234   ZZ=            -17.9393
   XY=              0.1267   XZ=              0.0904   YZ=             -0.0519

 Normal termination of Gaussian 09 at Wed Aug 26 23:34:15 2020.
