 Gaussian 09, Revision D.01,
 Gaussian 09:  ES64L-G09RevD.01 24-Apr-2013

 --------------------
 #p B2PLYPD3/Def2QZVP
 --------------------

 ------------
 cyanomethane
 ------------
 Symbolic Z-matrix:
 Charge =  0 Multiplicity = 1

                         Standard orientation:
 ---------------------------------------------------------------------
 Center     Atomic      Atomic             Coordinates (Angstroms)
 Number     Number       Type             X           Y           Z
 ---------------------------------------------------------------------
      1          6           0       -1.182041   -0.003146    0.005804
      2          6           0        0.277761    0.005420    0.016728
      3          7           0        1.432847   -0.001825   -0.012901
      4          1           0       -1.486178   -0.324305    0.957831
      5          1           0       -1.564386   -0.701610   -0.774825
      6          1           0       -1.553686    1.025048   -0.227887
 ---------------------------------------------------------------------

 SCF Done:  E(RB2PLYPD3) =  -132.533126163     A.U. after   12 cycles
 E2(B2PLYPD3) =    -0.1806133086D+00 E(B2PLYPD3) =    -0.13271373947158D+03

 The electronic state is 1-A.
 Alpha  occ. eigenvalues --  -14.84149 -10.67313 -10.66210  -1.04031  -0.89198
 Alpha  occ. eigenvalues --   -0.59177  -0.54878  -0.53200  -0.44711  -0.39067
 Alpha  occ. eigenvalues --   -0.38911
 Alpha virt. eigenvalues --    0.03685   0.07517   0.08383   0.10179   0.11300
 Alpha virt. eigenvalues --    0.11554   0.15330   0.15884   0.16425   0.20073
 Alpha virt. eigenvalues --    0.20133   0.25283   0.32566   0.34053   0.34880

 Mulliken charges:
               1
     1  C   -0.093164
     2  C   -0.002380
     3  N   -0.207040
     4  H    0.104585
     5  H    0.098482
     6  H    0.099516
 Sum of Mulliken charges =   0.00000

 Dipole moment (field-independent basis, Debye):
    X=             -4.1173    Y=             -0.0055    Z=              0.0243  Tot=              4.1173
 Quadrupole moment (field-independent basis, Debye-Ang):
   XX=            -21.1541   YY=            -17.7111   ZZ=            -17.7262
   XY=              0.0176   XZ=              0.1217   YZ=             -0.0392

 Normal termination of Gaussian 09 at Thu Aug 27 00:09:51 2020.
