 Gaussian 09, Revision D.01,
 Gaussian 09:  ES64L-G09RevD.01 24-Apr-2013

 --------------------
 #p B2PLYPD3/Def2QZVP
 --------------------

 ------------
 cyanomethane
 ------------
 Symbolic Z-matrix:
 Charge =  0 Multiplicity = 1

                         Standard orientation:
 ---------------------------------------------------------------------
 Center     Atomic      Atomic             Coordinates (Angstroms)
 Number     Number       Type             X           Y           Z
 ---------------------------------------------------------------------
      1          6           0       -1.181941   -0.013632    0.013436
      2          6           0        0.287327    0.073034    0.001781
      3          7           0        1.419863   -0.028680   -0.005401
      4          1           0       -1.459024   -0.266746    0.940456
      5          1           0       -1.471126   -0.849029   -0.665730
      6          1           0       -1.641205    0.960117   -0.328217
 ---------------------------------------------------------------------

 SCF Done:  E(RB2PLYPD3) =  -132.527981400     A.U. after   12 cycles
 E2(B2PLYPD3) =    -0.1789889391D+00 E(B2PLYPD3) =    -0.13270697033888D+03

 The electronic state is 1-A.
 Alpha  occ. eigenvalues --  -14.83628 -10.66927 -10.65650  -1.04772  -0.89301
 Alpha  occ. eigenvalues --   -0.59105  -0.54993  -0.53293  -0.44632  -0.39637
 Alpha  occ. eigenvalues --   -0.39373
 Alpha virt. eigenvalues --    0.03682   0.07878   0.08946   0.10180   0.11432
 Alpha virt. eigenvalues --    0.11699   0.15377   0.16127   0.16376   0.19883
 Alpha virt. eigenvalues --    0.20077   0.25402   0.32427   0.34021   0.35388

 Mulliken charges:
               1
     1  C   -0.096466
     2  C   -0.005311
     3  N   -0.197545
     4  H    0.104902
     5  H    0.097662
     6  H    0.096758
 Sum of Mulliken charges =   0.00000

 Dipole moment (field-independent basis, Debye):
    X=             -4.0688    Y=              0.0097    Z=              0.0336  Tot=              4.0690
 Quadrupole moment (field-independent basis, Debye-Ang):
   XX=            -21.1257   YY=            -17.5225   ZZ=            -17.7571
   XY=              0.1046   XZ=              0.0262   YZ=             -0.0469

 Normal termination of Gaussian 09 at Wed Aug 26 22:47:33 2020.
