 Gaussian 09, Revision D.01,
 Gaussian 09:  ES64L-G09RevD.01 24-Apr-2013

 --------------------
 #p B2PLYPD3/Def2QZVP
 --------------------

 ------------
 cyanomethane
 ------------
 Symbolic Z-matrix:
 Charge =  0 Multiplicity = 1

                         Standard orientation:
 ---------------------------------------------------------------------
 Center     Atomic      Atomic             Coordinates (Angstroms)
 Number     Number       Type             X           Y           Z
 ---------------------------------------------------------------------
      1          6           0       -1.178924   -0.012357   -0.008779
      2          6           0        0.278427   -0.001664    0.026538
      3          7           0        1.439875    0.001763   -0.015451
      4          1           0       -1.529371   -0.346341    0.952271
      5          1           0       -1.588943   -0.619664   -0.794113
      6          1           0       -1.557830    1.037789   -0.156552
 ---------------------------------------------------------------------

 SCF Done:  E(RB2PLYPD3) =  -132.533237625     A.U. after   12 cycles
 E2(B2PLYPD3) =    -0.1812268572D+00 E(B2PLYPD3) =    -0.13271446448269D+03

 The electronic state is 1-A.
 Alpha  occ. eigenvalues --  -14.84454 -10.67233 -10.66535  -1.03837  -0.89173
 Alpha  occ. eigenvalues --   -0.59953  -0.54458  -0.53058  -0.44856  -0.38994
 Alpha  occ. eigenvalues --   -0.38775
 Alpha virt. eigenvalues --    0.03693   0.07426   0.07978   0.10119   0.11274
 Alpha virt. eigenvalues --    0.11516   0.15403   0.15891   0.16854   0.20082
 Alpha virt. eigenvalues --    0.20170   0.25390   0.32578   0.34010   0.35093

 Mulliken charges:
               1
     1  C   -0.082453
     2  C    0.001294
     3  N   -0.209387
     4  H    0.097761
     5  H    0.099765
     6  H    0.093019
 Sum of Mulliken charges =   0.00000

 Dipole moment (field-independent basis, Debye):
    X=             -4.1382    Y=             -0.0009    Z=              0.0280  Tot=              4.1383
 Quadrupole moment (field-independent basis, Debye-Ang):
   XX=            -20.9686   YY=            -17.8343   ZZ=            -17.7600
   XY=             -0.0126   XZ=              0.1098   YZ=              0.0223

 Normal termination of Gaussian 09 at Thu Aug 27 00:08:24 2020.
