 Gaussian 09, Revision D.01,
 Gaussian 09:  ES64L-G09RevD.01 24-Apr-2013

 --------------------
 #p B2PLYPD3/Def2QZVP
 --------------------

 ------------
 cyanomethane
 ------------
 Symbolic Z-matrix:
 Charge =  0 Multiplicity = 1

                         Standard orientation:
 ---------------------------------------------------------------------
 Center     Atomic      Atomic             Coordinates (Angstroms)
 Number     Number       Type             X           Y           Z
 ---------------------------------------------------------------------
      1          6           0       -1.183203   -0.007469    0.009936
      2          6           0        0.284189    0.027359    0.010853
      3          7           0        1.425605   -0.010332   -0.010222
      4          1           0       -1.469369   -0.381819    0.947823
      5          1           0       -1.537057   -0.697160   -0.805506
      6          1           0       -1.578726    1.031960   -0.195498
 ---------------------------------------------------------------------

 SCF Done:  E(RB2PLYPD3) =  -132.532523290     A.U. after   12 cycles
 E2(B2PLYPD3) =    -0.1795899593D+00 E(B2PLYPD3) =    -0.13271211324958D+03

 The electronic state is 1-A.
 Alpha  occ. eigenvalues --  -14.83741 -10.67576 -10.65798  -1.04525  -0.88880
 Alpha  occ. eigenvalues --   -0.58681  -0.54832  -0.52946  -0.44617  -0.39408
 Alpha  occ. eigenvalues --   -0.39194
 Alpha virt. eigenvalues --    0.03653   0.07695   0.08580   0.10210   0.11457
 Alpha virt. eigenvalues --    0.11698   0.15277   0.15976   0.16322   0.20006
 Alpha virt. eigenvalues --    0.20070   0.25179   0.32464   0.33817   0.34955

 Mulliken charges:
               1
     1  C   -0.101002
     2  C   -0.005353
     3  N   -0.200038
     4  H    0.107028
     5  H    0.099421
     6  H    0.099944
 Sum of Mulliken charges =   0.00000

 Dipole moment (field-independent basis, Debye):
    X=             -4.0876    Y=             -0.0006    Z=              0.0199  Tot=              4.0877
 Quadrupole moment (field-independent basis, Debye-Ang):
   XX=            -21.2349   YY=            -17.6415   ZZ=            -17.6936
   XY=              0.0410   XZ=              0.1130   YZ=             -0.0539

 Normal termination of Gaussian 09 at Wed Aug 26 13:15:47 2020.
