 Gaussian 09, Revision D.01,
 Gaussian 09:  ES64L-G09RevD.01 24-Apr-2013

 --------------------
 #p B2PLYPD3/Def2QZVP
 --------------------

 ------------
 cyanomethane
 ------------
 Symbolic Z-matrix:
 Charge =  0 Multiplicity = 1

                         Standard orientation:
 ---------------------------------------------------------------------
 Center     Atomic      Atomic             Coordinates (Angstroms)
 Number     Number       Type             X           Y           Z
 ---------------------------------------------------------------------
      1          6           0       -1.163705   -0.014910   -0.001203
      2          6           0        0.282195    0.029541   -0.009593
      3          7           0        1.425982   -0.010874    0.006567
      4          1           0       -1.576276   -0.167976    0.964748
      5          1           0       -1.518935   -0.770726   -0.613201
      6          1           0       -1.597604    0.927035   -0.332741
 ---------------------------------------------------------------------

 SCF Done:  E(RB2PLYPD3) =  -132.533516756     A.U. after   11 cycles
 E2(B2PLYPD3) =    -0.1793564693D+00 E(B2PLYPD3) =    -0.13271287322507D+03

 The electronic state is 1-A.
 Alpha  occ. eigenvalues --  -14.83988 -10.66068 -10.65981  -1.04607  -0.89934
 Alpha  occ. eigenvalues --   -0.60876  -0.54902  -0.53441  -0.44866  -0.39464
 Alpha  occ. eigenvalues --   -0.39278
 Alpha virt. eigenvalues --    0.03898   0.08042   0.08399   0.10174   0.11504
 Alpha virt. eigenvalues --    0.11687   0.15640   0.16518   0.16918   0.20007
 Alpha virt. eigenvalues --    0.20090   0.25649   0.33087   0.34856   0.35541

 Mulliken charges:
               1
     1  C   -0.062743
     2  C    0.000066
     3  N   -0.201422
     4  H    0.086913
     5  H    0.092485
     6  H    0.084700
 Sum of Mulliken charges =   0.00000

 Dipole moment (field-independent basis, Debye):
    X=             -4.1248    Y=              0.0108    Z=             -0.0006  Tot=              4.1248
 Quadrupole moment (field-independent basis, Debye-Ang):
   XX=            -20.6936   YY=            -17.7050   ZZ=            -17.7817
   XY=              0.0211   XZ=             -0.0851   YZ=              0.0514

 Normal termination of Gaussian 09 at Wed Aug 26 13:36:06 2020.
