 Gaussian 09, Revision D.01,
 Gaussian 09:  ES64L-G09RevD.01 24-Apr-2013

 --------------------
 #p B2PLYPD3/Def2QZVP
 --------------------

 ------------
 cyanomethane
 ------------
 Symbolic Z-matrix:
 Charge =  0 Multiplicity = 1

                         Standard orientation:
 ---------------------------------------------------------------------
 Center     Atomic      Atomic             Coordinates (Angstroms)
 Number     Number       Type             X           Y           Z
 ---------------------------------------------------------------------
      1          6           0       -1.177889    0.015628   -0.008653
      2          6           0        0.288966   -0.008090   -0.038005
      3          7           0        1.436409   -0.001593    0.020927
      4          1           0       -1.519688    1.055218    0.003596
      5          1           0       -1.596439   -0.506883    0.940559
      6          1           0       -1.605193   -0.582411   -0.810698
 ---------------------------------------------------------------------

 SCF Done:  E(RB2PLYPD3) =  -132.531098208     A.U. after   12 cycles
 E2(B2PLYPD3) =    -0.1804499582D+00 E(B2PLYPD3) =    -0.13271154816662D+03

 The electronic state is 1-A.
 Alpha  occ. eigenvalues --  -14.84141 -10.67944 -10.66233  -1.04377  -0.88444
 Alpha  occ. eigenvalues --   -0.59547  -0.54598  -0.51629  -0.44840  -0.39421
 Alpha  occ. eigenvalues --   -0.38972
 Alpha virt. eigenvalues --    0.03499   0.07248   0.08115   0.10189   0.11270
 Alpha virt. eigenvalues --    0.11822   0.15287   0.16365   0.16690   0.19938
 Alpha virt. eigenvalues --    0.20121   0.25249   0.32414   0.33348   0.35140

 Mulliken charges:
               1
     1  C   -0.088531
     2  C    0.000028
     3  N   -0.201573
     4  H    0.103556
     5  H    0.089071
     6  H    0.097449
 Sum of Mulliken charges =   0.00000

 Dipole moment (field-independent basis, Debye):
    X=             -4.1126    Y=             -0.0166    Z=             -0.0272  Tot=              4.1127
 Quadrupole moment (field-independent basis, Debye-Ang):
   XX=            -20.9681   YY=            -17.6208   ZZ=            -17.9922
   XY=              0.1396   XZ=             -0.1387   YZ=              0.0665

 Normal termination of Gaussian 09 at Wed Aug 26 12:07:58 2020.
