 Gaussian 09, Revision D.01,
 Gaussian 09:  ES64L-G09RevD.01 24-Apr-2013

 --------------------
 #p B2PLYPD3/Def2QZVP
 --------------------

 ------------
 cyanomethane
 ------------
 Symbolic Z-matrix:
 Charge =  0 Multiplicity = 1

                         Standard orientation:
 ---------------------------------------------------------------------
 Center     Atomic      Atomic             Coordinates (Angstroms)
 Number     Number       Type             X           Y           Z
 ---------------------------------------------------------------------
      1          6           0        1.155746   -0.010711   -0.035858
      2          6           0       -0.285847    0.037420    0.059335
      3          7           0       -1.416180   -0.019844   -0.028211
      4          1           0        1.550192    0.999051   -0.112289
      5          1           0        1.585219   -0.626022   -0.687439
      6          1           0        1.558456   -0.394368    0.856342
 ---------------------------------------------------------------------

 SCF Done:  E(RB2PLYPD3) =  -132.523432383     A.U. after   12 cycles
 E2(B2PLYPD3) =    -0.1786918405D+00 E(B2PLYPD3) =    -0.13270212422349D+03

 The electronic state is 1-A.
 Alpha  occ. eigenvalues --  -14.83783 -10.65741 -10.65398  -1.05062  -0.90389
 Alpha  occ. eigenvalues --   -0.61954  -0.54849  -0.53243  -0.44916  -0.39791
 Alpha  occ. eigenvalues --   -0.39428
 Alpha virt. eigenvalues --    0.03900   0.08145   0.08636   0.10030   0.11539
 Alpha virt. eigenvalues --    0.11934   0.15607   0.16089   0.17987   0.19983
 Alpha virt. eigenvalues --    0.20219   0.26078   0.33438   0.34520   0.35958

 Mulliken charges:
               1
     1  C   -0.057020
     2  C    0.006844
     3  N   -0.196289
     4  H    0.085923
     5  H    0.086399
     6  H    0.074143
 Sum of Mulliken charges =   0.00000

 Dipole moment (field-independent basis, Debye):
    X=              4.0930    Y=             -0.0151    Z=              0.0943  Tot=              4.0941
 Quadrupole moment (field-independent basis, Debye-Ang):
   XX=            -20.5509   YY=            -17.4838   ZZ=            -17.9526
   XY=             -0.2449   XZ=             -0.0601   YZ=              0.0412

 Normal termination of Gaussian 09 at Wed Aug 26 23:25:28 2020.
