 Gaussian 09, Revision D.01,
 Gaussian 09:  ES64L-G09RevD.01 24-Apr-2013

 --------------------
 #p B2PLYPD3/Def2QZVP
 --------------------

 ------------
 cyanomethane
 ------------
 Symbolic Z-matrix:
 Charge =  0 Multiplicity = 1

                         Standard orientation:
 ---------------------------------------------------------------------
 Center     Atomic      Atomic             Coordinates (Angstroms)
 Number     Number       Type             X           Y           Z
 ---------------------------------------------------------------------
      1          6           0       -1.182919    0.008372    0.004578
      2          6           0        0.275031    0.021271    0.015887
      3          7           0        1.429398   -0.008049   -0.007583
      4          1           0       -1.517743   -0.372846    0.939731
      5          1           0       -1.473601   -0.718139   -0.785914
      6          1           0       -1.567115    0.969476   -0.223529
 ---------------------------------------------------------------------

 SCF Done:  E(RB2PLYPD3) =  -132.534010057     A.U. after   12 cycles
 E2(B2PLYPD3) =    -0.1803582710D+00 E(B2PLYPD3) =    -0.13271436832786D+03

 The electronic state is 1-A.
 Alpha  occ. eigenvalues --  -14.84066 -10.66844 -10.66132  -1.04025  -0.89583
 Alpha  occ. eigenvalues --   -0.59298  -0.55356  -0.53629  -0.44659  -0.39143
 Alpha  occ. eigenvalues --   -0.38832
 Alpha virt. eigenvalues --    0.03776   0.08009   0.08371   0.10196   0.11205
 Alpha virt. eigenvalues --    0.11616   0.15348   0.15814   0.16388   0.20059
 Alpha virt. eigenvalues --    0.20165   0.25309   0.32794   0.33909   0.35424

 Mulliken charges:
               1
     1  C   -0.090457
     2  C   -0.003049
     3  N   -0.207937
     4  H    0.101272
     5  H    0.097607
     6  H    0.102565
 Sum of Mulliken charges =   0.00000

 Dipole moment (field-independent basis, Debye):
    X=             -4.1213    Y=             -0.0054    Z=              0.0074  Tot=              4.1213
 Quadrupole moment (field-independent basis, Debye-Ang):
   XX=            -21.1638   YY=            -17.6361   ZZ=            -17.7298
   XY=              0.0153   XZ=              0.0302   YZ=             -0.0570

 Normal termination of Gaussian 09 at Wed Aug 26 12:54:41 2020.
