 Gaussian 09, Revision D.01,
 Gaussian 09:  ES64L-G09RevD.01 24-Apr-2013

 --------------------
 #p B2PLYPD3/Def2QZVP
 --------------------

 ------------
 cyanomethane
 ------------
 Symbolic Z-matrix:
 Charge =  0 Multiplicity = 1

                         Standard orientation:
 ---------------------------------------------------------------------
 Center     Atomic      Atomic             Coordinates (Angstroms)
 Number     Number       Type             X           Y           Z
 ---------------------------------------------------------------------
      1          6           0        1.178651    0.015179   -0.007492
      2          6           0       -0.279300   -0.010708   -0.032186
      3          7           0       -1.438008   -0.000964    0.015594
      4          1           0        1.490473    1.055120    0.081958
      5          1           0        1.612994   -0.501952   -0.853428
      6          1           0        1.566488   -0.573244    0.900378
 ---------------------------------------------------------------------

 SCF Done:  E(RB2PLYPD3) =  -132.531742133     A.U. after   12 cycles
 E2(B2PLYPD3) =    -0.1812210648D+00 E(B2PLYPD3) =    -0.13271296319785D+03

 The electronic state is 1-A.
 Alpha  occ. eigenvalues --  -14.84362 -10.67692 -10.66448  -1.03920  -0.88858
 Alpha  occ. eigenvalues --   -0.59616  -0.54790  -0.52217  -0.44820  -0.39069
 Alpha  occ. eigenvalues --   -0.38702
 Alpha virt. eigenvalues --    0.03571   0.07265   0.07944   0.10179   0.11203
 Alpha virt. eigenvalues --    0.11682   0.15269   0.16192   0.16473   0.20022
 Alpha virt. eigenvalues --    0.20170   0.25365   0.32446   0.33479   0.35085

 Mulliken charges:
               1
     1  C   -0.089478
     2  C    0.001122
     3  N   -0.208069
     4  H    0.105271
     5  H    0.098853
     6  H    0.092299
 Sum of Mulliken charges =   0.00000

 Dipole moment (field-independent basis, Debye):
    X=              4.1280    Y=             -0.0145    Z=             -0.0180  Tot=              4.1280
 Quadrupole moment (field-independent basis, Debye-Ang):
   XX=            -21.0503   YY=            -17.6409   ZZ=            -17.9501
   XY=             -0.1443   XZ=              0.0652   YZ=              0.0646

 Normal termination of Gaussian 09 at Wed Aug 26 14:29:18 2020.
