 Gaussian 09, Revision D.01,
 Gaussian 09:  ES64L-G09RevD.01 24-Apr-2013

 --------------------
 #p B2PLYPD3/Def2QZVP
 --------------------

 ------------
 cyanomethane
 ------------
 Symbolic Z-matrix:
 Charge =  0 Multiplicity = 1

                         Standard orientation:
 ---------------------------------------------------------------------
 Center     Atomic      Atomic             Coordinates (Angstroms)
 Number     Number       Type             X           Y           Z
 ---------------------------------------------------------------------
      1          6           0        1.176575    0.004715   -0.013902
      2          6           0       -0.273008   -0.017301   -0.014094
      3          7           0       -1.432111    0.013169    0.006906
      4          1           0        1.505284   -0.801813   -0.642615
      5          1           0        1.498156   -0.207944    1.060708
      6          1           0        1.599928    0.993095   -0.298456
 ---------------------------------------------------------------------

 SCF Done:  E(RB2PLYPD3) =  -132.531585776     A.U. after   12 cycles
 E2(B2PLYPD3) =    -0.1812193939D+00 E(B2PLYPD3) =    -0.13271280517008D+03

 The electronic state is 1-A.
 Alpha  occ. eigenvalues --  -14.84252 -10.67690 -10.66313  -1.03886  -0.89065
 Alpha  occ. eigenvalues --   -0.59258  -0.54730  -0.52772  -0.44739  -0.38951
 Alpha  occ. eigenvalues --   -0.38616
 Alpha virt. eigenvalues --    0.03599   0.07245   0.08034   0.10126   0.11272
 Alpha virt. eigenvalues --    0.11701   0.15348   0.15589   0.16688   0.20072
 Alpha virt. eigenvalues --    0.20196   0.25465   0.32517   0.33401   0.34953

 Mulliken charges:
               1
     1  C   -0.097886
     2  C    0.000546
     3  N   -0.209139
     4  H    0.105582
     5  H    0.097483
     6  H    0.103413
 Sum of Mulliken charges =   0.00000

 Dipole moment (field-independent basis, Debye):
    X=              4.1156    Y=             -0.0261    Z=              0.0042  Tot=              4.1157
 Quadrupole moment (field-independent basis, Debye-Ang):
   XX=            -21.2093   YY=            -17.6613   ZZ=            -17.8208
   XY=              0.1331   XZ=              0.0426   YZ=              0.0464

 Normal termination of Gaussian 09 at Wed Aug 26 14:49:15 2020.
