 Gaussian 09, Revision D.01,
 Gaussian 09:  ES64L-G09RevD.01 24-Apr-2013

 --------------------
 #p B2PLYPD3/Def2QZVP
 --------------------

 ------------
 cyanomethane
 ------------
 Symbolic Z-matrix:
 Charge =  0 Multiplicity = 1

                         Standard orientation:
 ---------------------------------------------------------------------
 Center     Atomic      Atomic             Coordinates (Angstroms)
 Number     Number       Type             X           Y           Z
 ---------------------------------------------------------------------
      1          6           0        1.168385   -0.006909   -0.011848
      2          6           0       -0.279155    0.008451   -0.011449
      3          7           0       -1.434719   -0.003450    0.012137
      4          1           0        1.628087   -0.423195    0.931790
      5          1           0        1.566024    1.026501   -0.075113
      6          1           0        1.513541   -0.588408   -0.801850
 ---------------------------------------------------------------------

 SCF Done:  E(RB2PLYPD3) =  -132.531869129     A.U. after   12 cycles
 E2(B2PLYPD3) =    -0.1807118671D+00 E(B2PLYPD3) =    -0.13271258099567D+03

 The electronic state is 1-A.
 Alpha  occ. eigenvalues --  -14.84316 -10.67083 -10.66353  -1.04148  -0.89327
 Alpha  occ. eigenvalues --   -0.60336  -0.54875  -0.52405  -0.44899  -0.39171
 Alpha  occ. eigenvalues --   -0.38864
 Alpha virt. eigenvalues --    0.03686   0.07206   0.08183   0.10150   0.11320
 Alpha virt. eigenvalues --    0.11725   0.15501   0.16333   0.16774   0.20027
 Alpha virt. eigenvalues --    0.20169   0.25542   0.32665   0.33972   0.35208

 Mulliken charges:
               1
     1  C   -0.076689
     2  C    0.000937
     3  N   -0.206068
     4  H    0.088835
     5  H    0.093039
     6  H    0.099946
 Sum of Mulliken charges =   0.00000

 Dipole moment (field-independent basis, Debye):
    X=              4.1310    Y=              0.0013    Z=             -0.0198  Tot=              4.1310
 Quadrupole moment (field-independent basis, Debye-Ang):
   XX=            -20.8514   YY=            -17.7629   ZZ=            -17.8450
   XY=             -0.0225   XZ=              0.1520   YZ=              0.0861

 Normal termination of Gaussian 09 at Wed Aug 26 11:36:03 2020.
