 Gaussian 09, Revision D.01,
 Gaussian 09:  ES64L-G09RevD.01 24-Apr-2013

 --------------------
 #p B2PLYPD3/Def2QZVP
 --------------------

 ------------
 cyanomethane
 ------------
 Symbolic Z-matrix:
 Charge =  0 Multiplicity = 1

                         Standard orientation:
 ---------------------------------------------------------------------
 Center     Atomic      Atomic             Coordinates (Angstroms)
 Number     Number       Type             X           Y           Z
 ---------------------------------------------------------------------
      1          6           0        1.174752   -0.000063    0.009698
      2          6           0       -0.282539    0.006739   -0.014754
      3          7           0       -1.433560   -0.003727    0.008494
      4          1           0        1.585125   -0.163289    0.993508
      5          1           0        1.549459    0.956839   -0.375626
      6          1           0        1.547060   -0.807517   -0.647001
 ---------------------------------------------------------------------

 SCF Done:  E(RB2PLYPD3) =  -132.535347731     A.U. after   12 cycles
 E2(B2PLYPD3) =    -0.1802676081D+00 E(B2PLYPD3) =    -0.13271561533943D+03

 The electronic state is 1-A.
 Alpha  occ. eigenvalues --  -14.84143 -10.67231 -10.66208  -1.04271  -0.89070
 Alpha  occ. eigenvalues --   -0.59914  -0.53842  -0.53471  -0.44820  -0.39199
 Alpha  occ. eigenvalues --   -0.39096
 Alpha virt. eigenvalues --    0.03740   0.07802   0.07940   0.10163   0.11486
 Alpha virt. eigenvalues --    0.11564   0.15434   0.16134   0.16785   0.20058
 Alpha virt. eigenvalues --    0.20091   0.25379   0.32736   0.34305   0.34866

 Mulliken charges:
               1
     1  C   -0.082655
     2  C   -0.000717
     3  N   -0.204038
     4  H    0.097242
     5  H    0.095672
     6  H    0.094496
 Sum of Mulliken charges =   0.00000

 Dipole moment (field-independent basis, Debye):
    X=              4.1229    Y=              0.0024    Z=             -0.0118  Tot=              4.1229
 Quadrupole moment (field-independent basis, Debye-Ang):
   XX=            -20.9450   YY=            -17.7513   ZZ=            -17.7834
   XY=             -0.0321   XZ=              0.0774   YZ=             -0.0142

 Normal termination of Gaussian 09 at Wed Aug 26 23:43:48 2020.
