 Gaussian 09, Revision D.01,
 Gaussian 09:  ES64L-G09RevD.01 24-Apr-2013

 --------------------
 #p B2PLYPD3/Def2QZVP
 --------------------

 ------------
 cyanomethane
 ------------
 Symbolic Z-matrix:
 Charge =  0 Multiplicity = 1

                         Standard orientation:
 ---------------------------------------------------------------------
 Center     Atomic      Atomic             Coordinates (Angstroms)
 Number     Number       Type             X           Y           Z
 ---------------------------------------------------------------------
      1          6           0        1.177319    0.017709   -0.008268
      2          6           0       -0.259685   -0.039212    0.021092
      3          7           0       -1.435654    0.019771   -0.009289
      4          1           0        1.495457   -0.678079   -0.780103
      5          1           0        1.518718   -0.339038    0.962275
      6          1           0        1.529603    1.007736   -0.194095
 ---------------------------------------------------------------------

 SCF Done:  E(RB2PLYPD3) =  -132.530886708     A.U. after   12 cycles
 E2(B2PLYPD3) =    -0.1824571635D+00 E(B2PLYPD3) =    -0.13271334387165D+03

 The electronic state is 1-A.
 Alpha  occ. eigenvalues --  -14.84694 -10.66806 -10.66709  -1.03199  -0.89939
 Alpha  occ. eigenvalues --   -0.59697  -0.54890  -0.54344  -0.44767  -0.38429
 Alpha  occ. eigenvalues --   -0.38280
 Alpha virt. eigenvalues --    0.03745   0.07405   0.07801   0.10026   0.11251
 Alpha virt. eigenvalues --    0.11272   0.15388   0.15485   0.16465   0.20204
 Alpha virt. eigenvalues --    0.20249   0.25773   0.32711   0.34191   0.34952

 Mulliken charges:
               1
     1  C   -0.088973
     2  C    0.002226
     3  N   -0.218820
     4  H    0.101490
     5  H    0.099182
     6  H    0.104895
 Sum of Mulliken charges =   0.00000

 Dipole moment (field-independent basis, Debye):
    X=              4.1397    Y=             -0.0303    Z=              0.0141  Tot=              4.1398
 Quadrupole moment (field-independent basis, Debye-Ang):
   XX=            -21.2138   YY=            -17.6929   ZZ=            -17.7786
   XY=              0.1034   XZ=             -0.0232   YZ=              0.0035

 Normal termination of Gaussian 09 at Wed Aug 26 12:56:30 2020.
