 Gaussian 09, Revision D.01,
 Gaussian 09:  ES64L-G09RevD.01 24-Apr-2013

 --------------------
 #p B2PLYPD3/Def2QZVP
 --------------------

 ------------
 cyanomethane
 ------------
 Symbolic Z-matrix:
 Charge =  0 Multiplicity = 1

                         Standard orientation:
 ---------------------------------------------------------------------
 Center     Atomic      Atomic             Coordinates (Angstroms)
 Number     Number       Type             X           Y           Z
 ---------------------------------------------------------------------
      1          6           0       -1.146885    0.018052   -0.009693
      2          6           0        0.273519   -0.068814   -0.000484
      3          7           0        1.425513    0.039519    0.000248
      4          1           0       -1.554160   -0.542782   -0.850245
      5          1           0       -1.653205    1.039337   -0.022859
      6          1           0       -1.531033   -0.468622    0.932432
 ---------------------------------------------------------------------

 SCF Done:  E(RB2PLYPD3) =  -132.527785979     A.U. after   12 cycles
 E2(B2PLYPD3) =    -0.1814480986D+00 E(B2PLYPD3) =    -0.13270923407722D+03

 The electronic state is 1-A.
 Alpha  occ. eigenvalues --  -14.84436 -10.67565 -10.66346  -1.04251  -0.89123
 Alpha  occ. eigenvalues --   -0.60722  -0.53673  -0.52230  -0.45044  -0.38917
 Alpha  occ. eigenvalues --   -0.38686
 Alpha virt. eigenvalues --    0.03400   0.06541   0.07749   0.09894   0.11559
 Alpha virt. eigenvalues --    0.11888   0.15700   0.15747   0.17566   0.20058
 Alpha virt. eigenvalues --    0.20329   0.26322   0.32999   0.33735   0.34374

 Mulliken charges:
               1
     1  C   -0.081330
     2  C    0.007059
     3  N   -0.205272
     4  H    0.094852
     5  H    0.094827
     6  H    0.089865
 Sum of Mulliken charges =   0.00000

 Dipole moment (field-independent basis, Debye):
    X=             -4.0947    Y=             -0.0713    Z=              0.0065  Tot=              4.0953
 Quadrupole moment (field-independent basis, Debye-Ang):
   XX=            -20.8058   YY=            -17.8637   ZZ=            -17.8422
   XY=             -0.2749   XZ=             -0.0018   YZ=              0.0385

 Normal termination of Gaussian 09 at Wed Aug 26 19:12:55 2020.
