 Gaussian 09, Revision D.01,
 Gaussian 09:  ES64L-G09RevD.01 24-Apr-2013

 --------------------
 #p B2PLYPD3/Def2QZVP
 --------------------

 ------------
 cyanomethane
 ------------
 Symbolic Z-matrix:
 Charge =  0 Multiplicity = 1

                         Standard orientation:
 ---------------------------------------------------------------------
 Center     Atomic      Atomic             Coordinates (Angstroms)
 Number     Number       Type             X           Y           Z
 ---------------------------------------------------------------------
      1          6           0       -1.210892   -0.015272   -0.007371
      2          6           0        0.274643   -0.045594   -0.005776
      3          7           0        1.450412    0.018487    0.000204
      4          1           0       -1.462637    0.079725    0.999616
      5          1           0       -1.609675   -0.828244   -0.455552
      6          1           0       -1.463073    0.984307   -0.466607
 ---------------------------------------------------------------------

 SCF Done:  E(RB2PLYPD3) =  -132.523389114     A.U. after   12 cycles
 E2(B2PLYPD3) =    -0.1822852352D+00 E(B2PLYPD3) =    -0.13270567434938D+03

 The electronic state is 1-A.
 Alpha  occ. eigenvalues --  -14.84694 -10.66913 -10.66709  -1.03062  -0.89790
 Alpha  occ. eigenvalues --   -0.59372  -0.56436  -0.53304  -0.44639  -0.38782
 Alpha  occ. eigenvalues --   -0.38312
 Alpha virt. eigenvalues --    0.03671   0.07862   0.08449   0.10204   0.10639
 Alpha virt. eigenvalues --    0.11352   0.14948   0.15377   0.16463   0.20078
 Alpha virt. eigenvalues --    0.20313   0.24750   0.32142   0.33528   0.35864

 Mulliken charges:
               1
     1  C   -0.090237
     2  C    0.000147
     3  N   -0.218812
     4  H    0.101655
     5  H    0.106893
     6  H    0.100355
 Sum of Mulliken charges =   0.00000

 Dipole moment (field-independent basis, Debye):
    X=             -4.1754    Y=              0.0000    Z=              0.0433  Tot=              4.1756
 Quadrupole moment (field-independent basis, Debye-Ang):
   XX=            -21.1958   YY=            -17.5850   ZZ=            -17.9140
   XY=             -0.0160   XZ=             -0.0391   YZ=              0.0967

 Normal termination of Gaussian 09 at Wed Aug 26 21:34:50 2020.
