 Gaussian 09, Revision D.01,
 Gaussian 09:  ES64L-G09RevD.01 24-Apr-2013

 --------------------
 #p B2PLYPD3/Def2QZVP
 --------------------

 ------------
 cyanomethane
 ------------
 Symbolic Z-matrix:
 Charge =  0 Multiplicity = 1

                         Standard orientation:
 ---------------------------------------------------------------------
 Center     Atomic      Atomic             Coordinates (Angstroms)
 Number     Number       Type             X           Y           Z
 ---------------------------------------------------------------------
      1          6           0       -1.174299    0.005178   -0.012438
      2          6           0        0.280186   -0.004635    0.020213
      3          7           0        1.439051    0.002746   -0.010175
      4          1           0       -1.553118   -0.363009    0.945813
      5          1           0       -1.571757   -0.650625   -0.765983
      6          1           0       -1.583808    0.991157   -0.155258
 ---------------------------------------------------------------------

 SCF Done:  E(RB2PLYPD3) =  -132.534645570     A.U. after   11 cycles
 E2(B2PLYPD3) =    -0.1808478828D+00 E(B2PLYPD3) =    -0.13271549345278D+03

 The electronic state is 1-A.
 Alpha  occ. eigenvalues --  -14.84419 -10.66869 -10.66490  -1.03991  -0.89370
 Alpha  occ. eigenvalues --   -0.60408  -0.54168  -0.53441  -0.44904  -0.39089
 Alpha  occ. eigenvalues --   -0.38916
 Alpha virt. eigenvalues --    0.03781   0.07745   0.07826   0.10141   0.11369
 Alpha virt. eigenvalues --    0.11498   0.15484   0.16110   0.16981   0.20105
 Alpha virt. eigenvalues --    0.20122   0.25446   0.32756   0.34429   0.35158

 Mulliken charges:
               1
     1  C   -0.072369
     2  C    0.001587
     3  N   -0.207951
     4  H    0.089916
     5  H    0.094244
     6  H    0.094573
 Sum of Mulliken charges =   0.00000

 Dipole moment (field-independent basis, Debye):
    X=             -4.1454    Y=             -0.0118    Z=              0.0232  Tot=              4.1455
 Quadrupole moment (field-independent basis, Debye-Ang):
   XX=            -20.8207   YY=            -17.7669   ZZ=            -17.8520
   XY=             -0.0095   XZ=              0.0469   YZ=              0.0181

 Normal termination of Gaussian 09 at Thu Aug 27 00:06:17 2020.
