 Gaussian 09, Revision D.01,
 Gaussian 09:  ES64L-G09RevD.01 24-Apr-2013

 --------------------
 #p B2PLYPD3/Def2QZVP
 --------------------

 ------------
 cyanomethane
 ------------
 Symbolic Z-matrix:
 Charge =  0 Multiplicity = 1

                         Standard orientation:
 ---------------------------------------------------------------------
 Center     Atomic      Atomic             Coordinates (Angstroms)
 Number     Number       Type             X           Y           Z
 ---------------------------------------------------------------------
      1          6           0       -1.171692    0.000165   -0.001457
      2          6           0        0.285045   -0.007615   -0.016817
      3          7           0        1.436447    0.006406    0.002501
      4          1           0       -1.615019    1.071456   -0.033494
      5          1           0       -1.485672   -0.479489    0.971415
      6          1           0       -1.634559   -0.592105   -0.845782
 ---------------------------------------------------------------------

 SCF Done:  E(RB2PLYPD3) =  -132.529446489     A.U. after   12 cycles
 E2(B2PLYPD3) =    -0.1809919370D+00 E(B2PLYPD3) =    -0.13271043842626D+03

 The electronic state is 1-A.
 Alpha  occ. eigenvalues --  -14.84214 -10.68596 -10.66315  -1.04296  -0.88115
 Alpha  occ. eigenvalues --   -0.59406  -0.52863  -0.52387  -0.44867  -0.39088
 Alpha  occ. eigenvalues --   -0.38981
 Alpha virt. eigenvalues --    0.03451   0.07016   0.07486   0.10176   0.11604
 Alpha virt. eigenvalues --    0.11718   0.15289   0.16037   0.16915   0.20054
 Alpha virt. eigenvalues --    0.20082   0.25367   0.32164   0.33644   0.34034

 Mulliken charges:
               1
     1  C   -0.098607
     2  C    0.002615
     3  N   -0.202478
     4  H    0.098243
     5  H    0.100922
     6  H    0.099305
 Sum of Mulliken charges =   0.00000

 Dipole moment (field-independent basis, Debye):
    X=             -4.1069    Y=             -0.0238    Z=              0.0109  Tot=              4.1070
 Quadrupole moment (field-independent basis, Debye-Ang):
   XX=            -21.0418   YY=            -17.8066   ZZ=            -17.8565
   XY=             -0.0464   XZ=              0.0651   YZ=              0.0000

 Normal termination of Gaussian 09 at Wed Aug 26 12:54:24 2020.
