 Gaussian 09, Revision D.01,
 Gaussian 09:  ES64L-G09RevD.01 24-Apr-2013

 --------------------
 #p B2PLYPD3/Def2QZVP
 --------------------

 ------------
 cyanomethane
 ------------
 Symbolic Z-matrix:
 Charge =  0 Multiplicity = 1

                         Standard orientation:
 ---------------------------------------------------------------------
 Center     Atomic      Atomic             Coordinates (Angstroms)
 Number     Number       Type             X           Y           Z
 ---------------------------------------------------------------------
      1          6           0        1.175919    0.004652   -0.006340
      2          6           0       -0.278095    0.003830   -0.021413
      3          7           0       -1.428353   -0.001372    0.014697
      4          1           0        1.574795   -0.118093    0.999164
      5          1           0        1.535019    0.915263   -0.379533
      6          1           0        1.501715   -0.838457   -0.555994
 ---------------------------------------------------------------------

 SCF Done:  E(RB2PLYPD3) =  -132.533929160     A.U. after   11 cycles
 E2(B2PLYPD3) =    -0.1798602569D+00 E(B2PLYPD3) =    -0.13271378941659D+03

 The electronic state is 1-A.
 Alpha  occ. eigenvalues --  -14.84040 -10.66308 -10.66064  -1.04256  -0.89874
 Alpha  occ. eigenvalues --   -0.59961  -0.55612  -0.53459  -0.44745  -0.39289
 Alpha  occ. eigenvalues --   -0.39041
 Alpha virt. eigenvalues --    0.03859   0.07962   0.08609   0.10189   0.11265
 Alpha virt. eigenvalues --    0.11641   0.15489   0.16159   0.16578   0.20024
 Alpha virt. eigenvalues --    0.20149   0.25421   0.33013   0.34523   0.35502

 Mulliken charges:
               1
     1  C   -0.075897
     2  C   -0.002925
     3  N   -0.205284
     4  H    0.089557
     5  H    0.097905
     6  H    0.096645
 Sum of Mulliken charges =   0.00000

 Dipole moment (field-independent basis, Debye):
    X=              4.1265    Y=             -0.0072    Z=             -0.0077  Tot=              4.1265
 Quadrupole moment (field-independent basis, Debye-Ang):
   XX=            -20.9442   YY=            -17.5750   ZZ=            -17.8264
   XY=             -0.0101   XZ=              0.1681   YZ=              0.0007

 Normal termination of Gaussian 09 at Thu Aug 27 00:11:56 2020.
