 Gaussian 09, Revision D.01,
 Gaussian 09:  ES64L-G09RevD.01 24-Apr-2013

 --------------------
 #p B2PLYPD3/Def2QZVP
 --------------------

 ------------
 cyanomethane
 ------------
 Symbolic Z-matrix:
 Charge =  0 Multiplicity = 1

                         Standard orientation:
 ---------------------------------------------------------------------
 Center     Atomic      Atomic             Coordinates (Angstroms)
 Number     Number       Type             X           Y           Z
 ---------------------------------------------------------------------
      1          6           0       -1.175939   -0.019700   -0.031784
      2          6           0        0.266584    0.005219    0.054425
      3          7           0        1.422361    0.002564   -0.026063
      4          1           0       -1.484690   -0.058998    0.985002
      5          1           0       -1.471728   -0.871227   -0.529697
      6          1           0       -1.543975    0.999162   -0.408709
 ---------------------------------------------------------------------

 SCF Done:  E(RB2PLYPD3) =  -132.526571060     A.U. after   12 cycles
 E2(B2PLYPD3) =    -0.1809038200D+00 E(B2PLYPD3) =    -0.13270747487954D+03

 The electronic state is 1-A.
 Alpha  occ. eigenvalues --  -14.84105 -10.66741 -10.66093  -1.03913  -0.89989
 Alpha  occ. eigenvalues --   -0.59199  -0.56163  -0.53171  -0.44641  -0.39018
 Alpha  occ. eigenvalues --   -0.38527
 Alpha virt. eigenvalues --    0.03621   0.07670   0.08480   0.10070   0.11232
 Alpha virt. eigenvalues --    0.11626   0.14784   0.15591   0.17056   0.20077
 Alpha virt. eigenvalues --    0.20200   0.25765   0.32627   0.33433   0.35688

 Mulliken charges:
               1
     1  C   -0.095187
     2  C    0.000643
     3  N   -0.211390
     4  H    0.095317
     5  H    0.109414
     6  H    0.101203
 Sum of Mulliken charges =   0.00000

 Dipole moment (field-independent basis, Debye):
    X=             -4.1002    Y=             -0.0073    Z=              0.1008  Tot=              4.1015
 Quadrupole moment (field-independent basis, Debye-Ang):
   XX=            -21.2804   YY=            -17.4027   ZZ=            -17.8979
   XY=             -0.0660   XZ=             -0.0016   YZ=              0.0924

 Normal termination of Gaussian 09 at Wed Aug 26 23:39:55 2020.
