 Gaussian 09, Revision D.01,
 Gaussian 09:  ES64L-G09RevD.01 24-Apr-2013

 --------------------
 #p B2PLYPD3/Def2QZVP
 --------------------

 ------------
 cyanomethane
 ------------
 Symbolic Z-matrix:
 Charge =  0 Multiplicity = 1

                         Standard orientation:
 ---------------------------------------------------------------------
 Center     Atomic      Atomic             Coordinates (Angstroms)
 Number     Number       Type             X           Y           Z
 ---------------------------------------------------------------------
      1          6           0        1.179610   -0.012302   -0.000841
      2          6           0       -0.276450    0.009285   -0.007465
      3          7           0       -1.429213   -0.000659    0.005040
      4          1           0        1.488410   -0.797769   -0.622524
      5          1           0        1.536975   -0.138716    1.008582
      6          1           0        1.560141    0.959201   -0.371504
 ---------------------------------------------------------------------

 SCF Done:  E(RB2PLYPD3) =  -132.534536692     A.U. after   11 cycles
 E2(B2PLYPD3) =    -0.1801515720D+00 E(B2PLYPD3) =    -0.13271468826423D+03

 The electronic state is 1-A.
 Alpha  occ. eigenvalues --  -14.84048 -10.66770 -10.66089  -1.04135  -0.89597
 Alpha  occ. eigenvalues --   -0.59428  -0.55242  -0.53621  -0.44693  -0.39158
 Alpha  occ. eigenvalues --   -0.38979
 Alpha virt. eigenvalues --    0.03818   0.07905   0.08424   0.10192   0.11333
 Alpha virt. eigenvalues --    0.11555   0.15394   0.16111   0.16266   0.20072
 Alpha virt. eigenvalues --    0.20127   0.25351   0.32753   0.34360   0.35211

 Mulliken charges:
               1
     1  C   -0.086557
     2  C   -0.003541
     3  N   -0.206474
     4  H    0.102939
     5  H    0.098367
     6  H    0.095265
 Sum of Mulliken charges =   0.00000

 Dipole moment (field-independent basis, Debye):
    X=              4.1200    Y=             -0.0006    Z=             -0.0017  Tot=              4.1200
 Quadrupole moment (field-independent basis, Debye-Ang):
   XX=            -21.0979   YY=            -17.6782   ZZ=            -17.7026
   XY=              0.0477   XZ=              0.0605   YZ=              0.0535

 Normal termination of Gaussian 09 at Wed Aug 26 23:59:50 2020.
