 Gaussian 09, Revision D.01,
 Gaussian 09:  ES64L-G09RevD.01 24-Apr-2013

 --------------------
 #p B2PLYPD3/Def2QZVP
 --------------------

 ------------
 cyanomethane
 ------------
 Symbolic Z-matrix:
 Charge =  0 Multiplicity = 1

                         Standard orientation:
 ---------------------------------------------------------------------
 Center     Atomic      Atomic             Coordinates (Angstroms)
 Number     Number       Type             X           Y           Z
 ---------------------------------------------------------------------
      1          6           0        1.191099   -0.003427    0.009853
      2          6           0       -0.287539   -0.027762    0.011862
      3          7           0       -1.432800    0.016166   -0.013145
      4          1           0        1.587815    0.937965   -0.456233
      5          1           0        1.567763   -0.829720   -0.560584
      6          1           0        1.452660   -0.034267    0.978538
 ---------------------------------------------------------------------

 SCF Done:  E(RB2PLYPD3) =  -132.529252941     A.U. after   12 cycles
 E2(B2PLYPD3) =    -0.1795462252D+00 E(B2PLYPD3) =    -0.13270879916618D+03

 The electronic state is 1-A.
 Alpha  occ. eigenvalues --  -14.83927 -10.66593 -10.66003  -1.04375  -0.89563
 Alpha  occ. eigenvalues --   -0.59143  -0.55973  -0.53100  -0.44672  -0.39491
 Alpha  occ. eigenvalues --   -0.39237
 Alpha virt. eigenvalues --    0.03743   0.07896   0.09140   0.10255   0.11176
 Alpha virt. eigenvalues --    0.11542   0.15308   0.15860   0.16711   0.20012
 Alpha virt. eigenvalues --    0.20096   0.24979   0.32604   0.34244   0.35677

 Mulliken charges:
               1
     1  C   -0.086104
     2  C   -0.005895
     3  N   -0.202407
     4  H    0.092510
     5  H    0.097509
     6  H    0.104387
 Sum of Mulliken charges =   0.00000

 Dipole moment (field-independent basis, Debye):
    X=              4.1203    Y=             -0.0262    Z=              0.0306  Tot=              4.1205
 Quadrupole moment (field-independent basis, Debye-Ang):
   XX=            -21.0088   YY=            -17.7155   ZZ=            -17.6599
   XY=              0.1113   XZ=             -0.1538   YZ=              0.0394

 Normal termination of Gaussian 09 at Wed Aug 26 14:23:20 2020.
