 Gaussian 09, Revision D.01,
 Gaussian 09:  ES64L-G09RevD.01 24-Apr-2013

 --------------------
 #p B2PLYPD3/Def2QZVP
 --------------------

 ------------
 cyanomethane
 ------------
 Symbolic Z-matrix:
 Charge =  0 Multiplicity = 1

                         Standard orientation:
 ---------------------------------------------------------------------
 Center     Atomic      Atomic             Coordinates (Angstroms)
 Number     Number       Type             X           Y           Z
 ---------------------------------------------------------------------
      1          6           0        1.177743   -0.006645   -0.002715
      2          6           0       -0.279317    0.004585   -0.012557
      3          7           0       -1.444695   -0.003646    0.003360
      4          1           0        1.552688    1.021413   -0.082014
      5          1           0        1.633310   -0.589364   -0.733953
      6          1           0        1.536315   -0.394163    0.884083
 ---------------------------------------------------------------------

 SCF Done:  E(RB2PLYPD3) =  -132.529907675     A.U. after   12 cycles
 E2(B2PLYPD3) =    -0.1811268406D+00 E(B2PLYPD3) =    -0.13271103451609D+03

 The electronic state is 1-A.
 Alpha  occ. eigenvalues --  -14.84629 -10.66741 -10.66100  -1.03768  -0.89993
 Alpha  occ. eigenvalues --   -0.61211  -0.54245  -0.54058  -0.44960  -0.38990
 Alpha  occ. eigenvalues --   -0.38898
 Alpha virt. eigenvalues --    0.03866   0.07768   0.08028   0.10161   0.11268
 Alpha virt. eigenvalues --    0.11419   0.15468   0.16310   0.17000   0.20111
 Alpha virt. eigenvalues --    0.20193   0.25349   0.32700   0.34719   0.35529

 Mulliken charges:
               1
     1  C   -0.058840
     2  C    0.005020
     3  N   -0.211506
     4  H    0.089193
     5  H    0.087788
     6  H    0.088345
 Sum of Mulliken charges =   0.00000

 Dipole moment (field-independent basis, Debye):
    X=              4.1728    Y=             -0.0206    Z=              0.0210  Tot=              4.1729
 Quadrupole moment (field-independent basis, Debye-Ang):
   XX=            -20.6588   YY=            -17.7070   ZZ=            -17.9547
   XY=             -0.1125   XZ=              0.0211   YZ=              0.0039

 Normal termination of Gaussian 09 at Wed Aug 26 12:11:06 2020.
