 Gaussian 09, Revision D.01,
 Gaussian 09:  ES64L-G09RevD.01 24-Apr-2013

 --------------------
 #p B2PLYPD3/Def2QZVP
 --------------------

 ------------
 cyanomethane
 ------------
 Symbolic Z-matrix:
 Charge =  0 Multiplicity = 1

                         Standard orientation:
 ---------------------------------------------------------------------
 Center     Atomic      Atomic             Coordinates (Angstroms)
 Number     Number       Type             X           Y           Z
 ---------------------------------------------------------------------
      1          6           0       -1.183027    0.003218   -0.005308
      2          6           0        0.275946    0.009045   -0.004839
      3          7           0        1.432710   -0.008633    0.005998
      4          1           0       -1.473497    1.012144   -0.233759
      5          1           0       -1.580152   -0.300963    0.992831
      6          1           0       -1.532830   -0.724328   -0.740177
 ---------------------------------------------------------------------

 SCF Done:  E(RB2PLYPD3) =  -132.533915001     A.U. after   12 cycles
 E2(B2PLYPD3) =    -0.1807357603D+00 E(B2PLYPD3) =    -0.13271465076115D+03

 The electronic state is 1-A.
 Alpha  occ. eigenvalues --  -14.84157 -10.67329 -10.66225  -1.03956  -0.89218
 Alpha  occ. eigenvalues --   -0.59096  -0.54915  -0.53305  -0.44687  -0.38995
 Alpha  occ. eigenvalues --   -0.38863
 Alpha virt. eigenvalues --    0.03714   0.07606   0.08273   0.10179   0.11300
 Alpha virt. eigenvalues --    0.11536   0.15274   0.15871   0.16344   0.20081
 Alpha virt. eigenvalues --    0.20152   0.25277   0.32599   0.34167   0.34792

 Mulliken charges:
               1
     1  C   -0.094502
     2  C   -0.002453
     3  N   -0.208134
     4  H    0.105141
     5  H    0.097779
     6  H    0.102170
 Sum of Mulliken charges =   0.00000

 Dipole moment (field-independent basis, Debye):
    X=             -4.1192    Y=              0.0089    Z=             -0.0069  Tot=              4.1192
 Quadrupole moment (field-independent basis, Debye-Ang):
   XX=            -21.1963   YY=            -17.6312   ZZ=            -17.7940
   XY=              0.1222   XZ=             -0.0915   YZ=              0.0073

 Normal termination of Gaussian 09 at Thu Aug 27 00:08:48 2020.
