 Gaussian 09, Revision D.01,
 Gaussian 09:  ES64L-G09RevD.01 24-Apr-2013

 --------------------
 #p B2PLYPD3/Def2QZVP
 --------------------

 ------------
 cyanomethane
 ------------
 Symbolic Z-matrix:
 Charge =  0 Multiplicity = 1

                         Standard orientation:
 ---------------------------------------------------------------------
 Center     Atomic      Atomic             Coordinates (Angstroms)
 Number     Number       Type             X           Y           Z
 ---------------------------------------------------------------------
      1          6           0        1.199565    0.013876    0.004912
      2          6           0       -0.284801    0.020722   -0.037732
      3          7           0       -1.436665   -0.015076    0.022206
      4          1           0        1.572280   -0.325931    0.979377
      5          1           0        1.475101    0.966345   -0.216834
      6          1           0        1.520693   -0.742472   -0.721066
 ---------------------------------------------------------------------

 SCF Done:  E(RB2PLYPD3) =  -132.529622026     A.U. after   12 cycles
 E2(B2PLYPD3) =    -0.1802894114D+00 E(B2PLYPD3) =    -0.13270991143749D+03

 The electronic state is 1-A.
 Alpha  occ. eigenvalues --  -14.84094 -10.66842 -10.66186  -1.04020  -0.89402
 Alpha  occ. eigenvalues --   -0.58753  -0.56205  -0.53047  -0.44625  -0.39298
 Alpha  occ. eigenvalues --   -0.38985
 Alpha virt. eigenvalues --    0.03719   0.07809   0.09025   0.10188   0.10963
 Alpha virt. eigenvalues --    0.11505   0.15186   0.15678   0.16496   0.20016
 Alpha virt. eigenvalues --    0.20155   0.24900   0.32574   0.34043   0.35561

 Mulliken charges:
               1
     1  C   -0.090908
     2  C   -0.005314
     3  N   -0.206608
     4  H    0.097320
     5  H    0.107451
     6  H    0.098059
 Sum of Mulliken charges =   0.00000

 Dipole moment (field-independent basis, Debye):
    X=              4.1232    Y=              0.0052    Z=             -0.0263  Tot=              4.1233
 Quadrupole moment (field-independent basis, Debye-Ang):
   XX=            -21.1551   YY=            -17.5628   ZZ=            -17.8126
   XY=             -0.1712   XZ=              0.1866   YZ=             -0.0282

 Normal termination of Gaussian 09 at Wed Aug 26 13:28:05 2020.
