 Gaussian 09, Revision D.01,
 Gaussian 09:  ES64L-G09RevD.01 24-Apr-2013

 --------------------
 #p B2PLYPD3/Def2QZVP
 --------------------

 ------------
 cyanomethane
 ------------
 Symbolic Z-matrix:
 Charge =  0 Multiplicity = 1

                         Standard orientation:
 ---------------------------------------------------------------------
 Center     Atomic      Atomic             Coordinates (Angstroms)
 Number     Number       Type             X           Y           Z
 ---------------------------------------------------------------------
      1          6           0        1.178761   -0.007545   -0.002835
      2          6           0       -0.286500    0.021691    0.002099
      3          7           0       -1.435382   -0.008658    0.001556
      4          1           0        1.522611   -0.524143   -0.868331
      5          1           0        1.579793   -0.510560    0.871981
      6          1           0        1.591704    1.010431   -0.010132
 ---------------------------------------------------------------------

 SCF Done:  E(RB2PLYPD3) =  -132.535586794     A.U. after   11 cycles
 E2(B2PLYPD3) =    -0.1799561517D+00 E(B2PLYPD3) =    -0.13271554294582D+03

 The electronic state is 1-A.
 Alpha  occ. eigenvalues --  -14.84111 -10.66975 -10.66194  -1.04347  -0.89152
 Alpha  occ. eigenvalues --   -0.59929  -0.54182  -0.53444  -0.44819  -0.39307
 Alpha  occ. eigenvalues --   -0.39244
 Alpha virt. eigenvalues --    0.03786   0.07913   0.08191   0.10205   0.11450
 Alpha virt. eigenvalues --    0.11513   0.15406   0.16390   0.16654   0.20034
 Alpha virt. eigenvalues --    0.20073   0.25240   0.32708   0.34660   0.35001

 Mulliken charges:
               1
     1  C   -0.077521
     2  C   -0.001708
     3  N   -0.202965
     4  H    0.096594
     5  H    0.093476
     6  H    0.092123
 Sum of Mulliken charges =   0.00000

 Dipole moment (field-independent basis, Debye):
    X=              4.1293    Y=              0.0036    Z=             -0.0055  Tot=              4.1294
 Quadrupole moment (field-independent basis, Debye-Ang):
   XX=            -20.8731   YY=            -17.7573   ZZ=            -17.7763
   XY=             -0.0352   XZ=              0.0437   YZ=              0.0203

 Normal termination of Gaussian 09 at Wed Aug 26 23:45:46 2020.
