 Gaussian 09, Revision D.01,
 Gaussian 09:  ES64L-G09RevD.01 24-Apr-2013

 --------------------
 #p B2PLYPD3/Def2QZVP
 --------------------

 ------------
 cyanomethane
 ------------
 Symbolic Z-matrix:
 Charge =  0 Multiplicity = 1

                         Standard orientation:
 ---------------------------------------------------------------------
 Center     Atomic      Atomic             Coordinates (Angstroms)
 Number     Number       Type             X           Y           Z
 ---------------------------------------------------------------------
      1          6           0       -1.175520    0.010581    0.004425
      2          6           0        0.278131    0.016239   -0.010988
      3          7           0        1.432215   -0.012165    0.005894
      4          1           0       -1.514103    1.036140   -0.015287
      5          1           0       -1.570118   -0.542143    0.897018
      6          1           0       -1.556950   -0.569758   -0.883607
 ---------------------------------------------------------------------

 SCF Done:  E(RB2PLYPD3) =  -132.533071508     A.U. after   12 cycles
 E2(B2PLYPD3) =    -0.1807622684D+00 E(B2PLYPD3) =    -0.13271383377671D+03

 The electronic state is 1-A.
 Alpha  occ. eigenvalues --  -14.84166 -10.67706 -10.66217  -1.04107  -0.88890
 Alpha  occ. eigenvalues --   -0.59338  -0.54635  -0.52546  -0.44766  -0.39105
 Alpha  occ. eigenvalues --   -0.38823
 Alpha virt. eigenvalues --    0.03622   0.07328   0.08032   0.10155   0.11312
 Alpha virt. eigenvalues --    0.11735   0.15336   0.16111   0.16426   0.20019
 Alpha virt. eigenvalues --    0.20160   0.25404   0.32579   0.33709   0.34805

 Mulliken charges:
               1
     1  C   -0.093466
     2  C   -0.000906
     3  N   -0.205776
     4  H    0.105254
     5  H    0.098152
     6  H    0.096742
 Sum of Mulliken charges =   0.00000

 Dipole moment (field-independent basis, Debye):
    X=             -4.1121    Y=              0.0015    Z=             -0.0087  Tot=              4.1121
 Quadrupole moment (field-independent basis, Debye-Ang):
   XX=            -21.1285   YY=            -17.6153   ZZ=            -17.8862
   XY=              0.1559   XZ=             -0.0418   YZ=             -0.0072

 Normal termination of Gaussian 09 at Wed Aug 26 10:15:57 2020.
