 Gaussian 09, Revision D.01,
 Gaussian 09:  ES64L-G09RevD.01 24-Apr-2013

 --------------------
 #p B2PLYPD3/Def2QZVP
 --------------------

 ------------
 cyanomethane
 ------------
 Symbolic Z-matrix:
 Charge =  0 Multiplicity = 1

                         Standard orientation:
 ---------------------------------------------------------------------
 Center     Atomic      Atomic             Coordinates (Angstroms)
 Number     Number       Type             X           Y           Z
 ---------------------------------------------------------------------
      1          6           0       -1.175076   -0.004236   -0.013108
      2          6           0        0.271027   -0.000346    0.024869
      3          7           0        1.431295   -0.001068   -0.010627
      4          1           0       -1.507830    1.022765   -0.057212
      5          1           0       -1.554159   -0.442694    0.892744
      6          1           0       -1.532782   -0.545106   -0.831702
 ---------------------------------------------------------------------

 SCF Done:  E(RB2PLYPD3) =  -132.533863707     A.U. after   11 cycles
 E2(B2PLYPD3) =    -0.1807187157D+00 E(B2PLYPD3) =    -0.13271458242282D+03

 The electronic state is 1-A.
 Alpha  occ. eigenvalues --  -14.84294 -10.66362 -10.66299  -1.03870  -0.89992
 Alpha  occ. eigenvalues --   -0.60068  -0.55022  -0.54202  -0.44771  -0.38952
 Alpha  occ. eigenvalues --   -0.38808
 Alpha virt. eigenvalues --    0.03868   0.08045   0.08062   0.10145   0.11343
 Alpha virt. eigenvalues --    0.11431   0.15496   0.15960   0.16524   0.20129
 Alpha virt. eigenvalues --    0.20151   0.25573   0.32916   0.34562   0.35282

 Mulliken charges:
               1
     1  C   -0.077410
     2  C   -0.000885
     3  N   -0.210613
     4  H    0.096318
     5  H    0.093693
     6  H    0.098896
 Sum of Mulliken charges =   0.00000

 Dipole moment (field-independent basis, Debye):
    X=             -4.1364    Y=              0.0008    Z=              0.0185  Tot=              4.1365
 Quadrupole moment (field-independent basis, Debye-Ang):
   XX=            -21.0007   YY=            -17.6943   ZZ=            -17.7380
   XY=              0.0373   XZ=              0.0277   YZ=              0.0323

 Normal termination of Gaussian 09 at Wed Aug 26 09:31:09 2020.
