 Gaussian 09, Revision D.01,
 Gaussian 09:  ES64L-G09RevD.01 24-Apr-2013

 --------------------
 #p B2PLYPD3/Def2QZVP
 --------------------

 ------------
 cyanomethane
 ------------
 Symbolic Z-matrix:
 Charge =  0 Multiplicity = 1

                         Standard orientation:
 ---------------------------------------------------------------------
 Center     Atomic      Atomic             Coordinates (Angstroms)
 Number     Number       Type             X           Y           Z
 ---------------------------------------------------------------------
      1          6           0        1.180850    0.005165   -0.001348
      2          6           0       -0.293694    0.055314   -0.018707
      3          7           0       -1.420086   -0.013957    0.006735
      4          1           0        1.441338   -0.764636   -0.746438
      5          1           0        1.422647   -0.448073    0.960491
      6          1           0        1.753687    0.947538   -0.140865
 ---------------------------------------------------------------------

 SCF Done:  E(RB2PLYPD3) =  -132.531532784     A.U. after   12 cycles
 E2(B2PLYPD3) =    -0.1786198785D+00 E(B2PLYPD3) =    -0.13271015266230D+03

 The electronic state is 1-A.
 Alpha  occ. eigenvalues --  -14.83373 -10.67606 -10.65551  -1.05098  -0.88665
 Alpha  occ. eigenvalues --   -0.58992  -0.53838  -0.53187  -0.44594  -0.39829
 Alpha  occ. eigenvalues --   -0.39454
 Alpha virt. eigenvalues --    0.03686   0.08009   0.08574   0.10369   0.11574
 Alpha virt. eigenvalues --    0.12065   0.15228   0.15631   0.17351   0.19905
 Alpha virt. eigenvalues --    0.20095   0.25107   0.32414   0.33891   0.35281

 Mulliken charges:
               1
     1  C   -0.101953
     2  C   -0.004374
     3  N   -0.192803
     4  H    0.098514
     5  H    0.098975
     6  H    0.101641
 Sum of Mulliken charges =   0.00000

 Dipole moment (field-independent basis, Debye):
    X=              4.0925    Y=             -0.0257    Z=              0.0123  Tot=              4.0926
 Quadrupole moment (field-independent basis, Debye-Ang):
   XX=            -21.0293   YY=            -17.5511   ZZ=            -17.8429
   XY=              0.0717   XZ=              0.0408   YZ=             -0.0020

 Normal termination of Gaussian 09 at Wed Aug 26 19:56:14 2020.
