 Gaussian 09, Revision D.01,
 Gaussian 09:  ES64L-G09RevD.01 24-Apr-2013

 --------------------
 #p B2PLYPD3/Def2QZVP
 --------------------

 ------------
 cyanomethane
 ------------
 Symbolic Z-matrix:
 Charge =  0 Multiplicity = 1

                         Standard orientation:
 ---------------------------------------------------------------------
 Center     Atomic      Atomic             Coordinates (Angstroms)
 Number     Number       Type             X           Y           Z
 ---------------------------------------------------------------------
      1          6           0       -1.158075    0.003242   -0.003775
      2          6           0        0.281419    0.028700   -0.011480
      3          7           0        1.425659   -0.011480    0.010540
      4          1           0       -1.623381   -0.148659    0.984601
      5          1           0       -1.493686   -0.852010   -0.579515
      6          1           0       -1.602609    0.889381   -0.387331
 ---------------------------------------------------------------------

 SCF Done:  E(RB2PLYPD3) =  -132.534001888     A.U. after   11 cycles
 E2(B2PLYPD3) =    -0.1797173309D+00 E(B2PLYPD3) =    -0.13271371921853D+03

 The electronic state is 1-A.
 Alpha  occ. eigenvalues --  -14.84026 -10.66658 -10.66031  -1.04617  -0.89543
 Alpha  occ. eigenvalues --   -0.60893  -0.54487  -0.52796  -0.44901  -0.39398
 Alpha  occ. eigenvalues --   -0.39143
 Alpha virt. eigenvalues --    0.03771   0.07608   0.08206   0.10164   0.11508
 Alpha virt. eigenvalues --    0.11869   0.15613   0.16473   0.17074   0.19977
 Alpha virt. eigenvalues --    0.20143   0.25737   0.33100   0.34414   0.35188

 Mulliken charges:
               1
     1  C   -0.068875
     2  C    0.001323
     3  N   -0.201078
     4  H    0.085567
     5  H    0.091332
     6  H    0.091732
 Sum of Mulliken charges =   0.00000

 Dipole moment (field-independent basis, Debye):
    X=             -4.1214    Y=              0.0013    Z=             -0.0126  Tot=              4.1215
 Quadrupole moment (field-independent basis, Debye-Ang):
   XX=            -20.7077   YY=            -17.6802   ZZ=            -17.8888
   XY=              0.0375   XZ=             -0.1409   YZ=             -0.0033

 Normal termination of Gaussian 09 at Wed Aug 26 10:34:34 2020.
