 Gaussian 09, Revision D.01,
 Gaussian 09:  ES64L-G09RevD.01 24-Apr-2013

 --------------------
 #p B2PLYPD3/Def2QZVP
 --------------------

 ------------
 cyanomethane
 ------------
 Symbolic Z-matrix:
 Charge =  0 Multiplicity = 1

                         Standard orientation:
 ---------------------------------------------------------------------
 Center     Atomic      Atomic             Coordinates (Angstroms)
 Number     Number       Type             X           Y           Z
 ---------------------------------------------------------------------
      1          6           0        1.172438    0.003246   -0.008905
      2          6           0       -0.284917    0.005114   -0.014991
      3          7           0       -1.434797   -0.004469    0.010812
      4          1           0        1.600783   -0.117115    1.019717
      5          1           0        1.544764    0.924372   -0.380523
      6          1           0        1.572906   -0.826139   -0.571502
 ---------------------------------------------------------------------

 SCF Done:  E(RB2PLYPD3) =  -132.534284085     A.U. after   11 cycles
 E2(B2PLYPD3) =    -0.1801284744D+00 E(B2PLYPD3) =    -0.13271441255945D+03

 The electronic state is 1-A.
 Alpha  occ. eigenvalues --  -14.84173 -10.66991 -10.66236  -1.04354  -0.89204
 Alpha  occ. eigenvalues --   -0.60259  -0.54651  -0.52664  -0.44875  -0.39354
 Alpha  occ. eigenvalues --   -0.39092
 Alpha virt. eigenvalues --    0.03733   0.07585   0.08248   0.10181   0.11344
 Alpha virt. eigenvalues --    0.11706   0.15474   0.16548   0.16694   0.19998
 Alpha virt. eigenvalues --    0.20125   0.25370   0.32770   0.34223   0.35274

 Mulliken charges:
               1
     1  C   -0.074029
     2  C   -0.000380
     3  N   -0.203143
     4  H    0.087627
     5  H    0.096051
     6  H    0.093874
 Sum of Mulliken charges =   0.00000

 Dipole moment (field-independent basis, Debye):
    X=              4.1304    Y=              0.0056    Z=             -0.0116  Tot=              4.1304
 Quadrupole moment (field-independent basis, Debye-Ang):
   XX=            -20.8111   YY=            -17.7018   ZZ=            -17.8828
   XY=             -0.0540   XZ=              0.1119   YZ=             -0.0026

 Normal termination of Gaussian 09 at Wed Aug 26 10:06:09 2020.
