 Gaussian 09, Revision D.01,
 Gaussian 09:  ES64L-G09RevD.01 24-Apr-2013

 --------------------
 #p B2PLYPD3/Def2QZVP
 --------------------

 ------------
 cyanomethane
 ------------
 Symbolic Z-matrix:
 Charge =  0 Multiplicity = 1

                         Standard orientation:
 ---------------------------------------------------------------------
 Center     Atomic      Atomic             Coordinates (Angstroms)
 Number     Number       Type             X           Y           Z
 ---------------------------------------------------------------------
      1          6           0        1.159247   -0.011184   -0.021786
      2          6           0       -0.258948   -0.038355    0.056857
      3          7           0       -1.428824    0.027652   -0.032265
      4          1           0        1.510082   -0.756529   -0.636310
      5          1           0        1.448123   -0.128817    0.991291
      6          1           0        1.641770    0.989015   -0.339553
 ---------------------------------------------------------------------

 SCF Done:  E(RB2PLYPD3) =  -132.521893958     A.U. after   12 cycles
 E2(B2PLYPD3) =    -0.1825227493D+00 E(B2PLYPD3) =    -0.13270441670725D+03

 The electronic state is 1-A.
 Alpha  occ. eigenvalues --  -14.84750 -10.66675 -10.66472  -1.03473  -0.90321
 Alpha  occ. eigenvalues --   -0.60583  -0.56106  -0.52547  -0.44933  -0.38612
 Alpha  occ. eigenvalues --   -0.38122
 Alpha virt. eigenvalues --    0.03396   0.06748   0.08245   0.09866   0.11148
 Alpha virt. eigenvalues --    0.11657   0.15170   0.15747   0.17408   0.20131
 Alpha virt. eigenvalues --    0.20375   0.26262   0.32922   0.33601   0.35496

 Mulliken charges:
               1
     1  C   -0.081929
     2  C    0.006494
     3  N   -0.216274
     4  H    0.103653
     5  H    0.097052
     6  H    0.091005
 Sum of Mulliken charges =   0.00000

 Dipole moment (field-independent basis, Debye):
    X=              4.1219    Y=             -0.0448    Z=              0.0744  Tot=              4.1228
 Quadrupole moment (field-independent basis, Debye-Ang):
   XX=            -20.9774   YY=            -17.7949   ZZ=            -17.7664
   XY=              0.2439   XZ=             -0.1773   YZ=              0.1209

 Normal termination of Gaussian 09 at Wed Aug 26 19:35:27 2020.
