 Gaussian 09, Revision D.01,
 Gaussian 09:  ES64L-G09RevD.01 24-Apr-2013

 --------------------
 #p B2PLYPD3/Def2QZVP
 --------------------

 ------------
 cyanomethane
 ------------
 Symbolic Z-matrix:
 Charge =  0 Multiplicity = 1

                         Standard orientation:
 ---------------------------------------------------------------------
 Center     Atomic      Atomic             Coordinates (Angstroms)
 Number     Number       Type             X           Y           Z
 ---------------------------------------------------------------------
      1          6           0        1.178767   -0.005067    0.001434
      2          6           0       -0.274753    0.020118   -0.000005
      3          7           0       -1.436652   -0.009931   -0.002398
      4          1           0        1.552183    0.998852   -0.235801
      5          1           0        1.565950   -0.720415   -0.732266
      6          1           0        1.514348   -0.299225    0.976280
 ---------------------------------------------------------------------

 SCF Done:  E(RB2PLYPD3) =  -132.534623851     A.U. after   12 cycles
 E2(B2PLYPD3) =    -0.1811168731D+00 E(B2PLYPD3) =    -0.13271574072401D+03

 The electronic state is 1-A.
 Alpha  occ. eigenvalues --  -14.84382 -10.67088 -10.66442  -1.03803  -0.89365
 Alpha  occ. eigenvalues --   -0.59708  -0.54297  -0.53818  -0.44794  -0.38857
 Alpha  occ. eigenvalues --   -0.38836
 Alpha virt. eigenvalues --    0.03752   0.07638   0.07957   0.10151   0.11341
 Alpha virt. eigenvalues --    0.11421   0.15404   0.16022   0.16450   0.20110
 Alpha virt. eigenvalues --    0.20152   0.25417   0.32659   0.34527   0.34708

 Mulliken charges:
               1
     1  C   -0.084923
     2  C   -0.000375
     3  N   -0.210137
     4  H    0.097789
     5  H    0.097950
     6  H    0.099696
 Sum of Mulliken charges =   0.00000

 Dipole moment (field-independent basis, Debye):
    X=              4.1357    Y=              0.0070    Z=              0.0123  Tot=              4.1357
 Quadrupole moment (field-independent basis, Debye-Ang):
   XX=            -21.0493   YY=            -17.7301   ZZ=            -17.7859
   XY=             -0.0678   XZ=             -0.0323   YZ=             -0.0116

 Normal termination of Gaussian 09 at Wed Aug 26 18:36:23 2020.
