 Gaussian 09, Revision D.01,
 Gaussian 09:  ES64L-G09RevD.01 24-Apr-2013

 --------------------
 #p B2PLYPD3/Def2QZVP
 --------------------

 ------------
 cyanomethane
 ------------
 Symbolic Z-matrix:
 Charge =  0 Multiplicity = 1

                         Standard orientation:
 ---------------------------------------------------------------------
 Center     Atomic      Atomic             Coordinates (Angstroms)
 Number     Number       Type             X           Y           Z
 ---------------------------------------------------------------------
      1          6           0        1.185537   -0.024117   -0.003513
      2          6           0       -0.282890    0.004344   -0.035257
      3          7           0       -1.435760   -0.001213    0.021735
      4          1           0        1.583073    0.070985    1.043865
      5          1           0        1.508269    0.926812   -0.507543
      6          1           0        1.543092   -0.870670   -0.455848
 ---------------------------------------------------------------------

 SCF Done:  E(RB2PLYPD3) =  -132.529800842     A.U. after   12 cycles
 E2(B2PLYPD3) =    -0.1805724492D+00 E(B2PLYPD3) =    -0.13271037329148D+03

 The electronic state is 1-A.
 Alpha  occ. eigenvalues --  -14.84179 -10.67290 -10.66272  -1.04095  -0.89099
 Alpha  occ. eigenvalues --   -0.59549  -0.55429  -0.52306  -0.44752  -0.39310
 Alpha  occ. eigenvalues --   -0.38818
 Alpha virt. eigenvalues --    0.03638   0.07462   0.08506   0.10147   0.11103
 Alpha virt. eigenvalues --    0.11692   0.15322   0.15748   0.16850   0.20005
 Alpha virt. eigenvalues --    0.20161   0.25197   0.32522   0.33443   0.35361

 Mulliken charges:
               1
     1  C   -0.089218
     2  C   -0.000885
     3  N   -0.205983
     4  H    0.094664
     5  H    0.095252
     6  H    0.106170
 Sum of Mulliken charges =   0.00000

 Dipole moment (field-independent basis, Debye):
    X=              4.1194    Y=              0.0174    Z=             -0.0222  Tot=              4.1195
 Quadrupole moment (field-independent basis, Debye-Ang):
   XX=            -21.0746   YY=            -17.6377   ZZ=            -17.8542
   XY=              0.0065   XZ=              0.1957   YZ=              0.0871

 Normal termination of Gaussian 09 at Wed Aug 26 11:01:55 2020.
