 Gaussian 09, Revision D.01,
 Gaussian 09:  ES64L-G09RevD.01 24-Apr-2013

 --------------------
 #p B2PLYPD3/Def2QZVP
 --------------------

 ------------
 cyanomethane
 ------------
 Symbolic Z-matrix:
 Charge =  0 Multiplicity = 1

                         Standard orientation:
 ---------------------------------------------------------------------
 Center     Atomic      Atomic             Coordinates (Angstroms)
 Number     Number       Type             X           Y           Z
 ---------------------------------------------------------------------
      1          6           0        1.169211    0.006905   -0.011767
      2          6           0       -0.276294   -0.006091   -0.016587
      3          7           0       -1.441426    0.006246    0.012188
      4          1           0        1.525405   -0.534039   -0.836418
      5          1           0        1.576955   -0.522533    0.898982
      6          1           0        1.630123    1.007973    0.022239
 ---------------------------------------------------------------------

 SCF Done:  E(RB2PLYPD3) =  -132.531116024     A.U. after   12 cycles
 E2(B2PLYPD3) =    -0.1816065244D+00 E(B2PLYPD3) =    -0.13271272254808D+03

 The electronic state is 1-A.
 Alpha  occ. eigenvalues --  -14.84624 -10.67129 -10.66686  -1.03789  -0.89346
 Alpha  occ. eigenvalues --   -0.60605  -0.54634  -0.52467  -0.44973  -0.38950
 Alpha  occ. eigenvalues --   -0.38640
 Alpha virt. eigenvalues --    0.03659   0.07009   0.07911   0.10110   0.11241
 Alpha virt. eigenvalues --    0.11653   0.15504   0.16131   0.17030   0.20080
 Alpha virt. eigenvalues --    0.20222   0.25576   0.32603   0.33902   0.35203

 Mulliken charges:
               1
     1  C   -0.073159
     2  C    0.003468
     3  N   -0.210323
     4  H    0.097520
     5  H    0.087870
     6  H    0.094623
 Sum of Mulliken charges =   0.00000

 Dipole moment (field-independent basis, Debye):
    X=              4.1517    Y=             -0.0272    Z=             -0.0145  Tot=              4.1518
 Quadrupole moment (field-independent basis, Debye-Ang):
   XX=            -20.8009   YY=            -17.8076   ZZ=            -17.9030
   XY=              0.0509   XZ=              0.1181   YZ=              0.0759

 Normal termination of Gaussian 09 at Wed Aug 26 15:38:32 2020.
