 Gaussian 09, Revision D.01,
 Gaussian 09:  ES64L-G09RevD.01 24-Apr-2013

 --------------------
 #p B2PLYPD3/Def2QZVP
 --------------------

 ------------
 cyanomethane
 ------------
 Symbolic Z-matrix:
 Charge =  0 Multiplicity = 1

                         Standard orientation:
 ---------------------------------------------------------------------
 Center     Atomic      Atomic             Coordinates (Angstroms)
 Number     Number       Type             X           Y           Z
 ---------------------------------------------------------------------
      1          6           0       -1.168194    0.006182   -0.010920
      2          6           0        0.286573   -0.030967   -0.000010
      3          7           0        1.425576    0.013573   -0.000655
      4          1           0       -1.537516    1.033216   -0.108025
      5          1           0       -1.549746   -0.373210    0.944302
      6          1           0       -1.602048   -0.606308   -0.766114
 ---------------------------------------------------------------------

 SCF Done:  E(RB2PLYPD3) =  -132.535522414     A.U. after   11 cycles
 E2(B2PLYPD3) =    -0.1792201096D+00 E(B2PLYPD3) =    -0.13271474252378D+03

 The electronic state is 1-A.
 Alpha  occ. eigenvalues --  -14.83831 -10.66889 -10.65866  -1.04753  -0.89224
 Alpha  occ. eigenvalues --   -0.60153  -0.54178  -0.53248  -0.44804  -0.39549
 Alpha  occ. eigenvalues --   -0.39340
 Alpha virt. eigenvalues --    0.03770   0.07997   0.08277   0.10197   0.11544
 Alpha virt. eigenvalues --    0.11772   0.15509   0.16254   0.17007   0.19997
 Alpha virt. eigenvalues --    0.20044   0.25488   0.33010   0.34341   0.35147

 Mulliken charges:
               1
     1  C   -0.077232
     2  C   -0.002134
     3  N   -0.198197
     4  H    0.094686
     5  H    0.089117
     6  H    0.093760
 Sum of Mulliken charges =   0.00000

 Dipole moment (field-independent basis, Debye):
    X=             -4.1086    Y=             -0.0292    Z=              0.0154  Tot=              4.1088
 Quadrupole moment (field-independent basis, Debye-Ang):
   XX=            -20.8417   YY=            -17.6693   ZZ=            -17.8070
   XY=             -0.0230   XZ=             -0.0022   YZ=              0.0319

 Normal termination of Gaussian 09 at Wed Aug 26 12:33:16 2020.
