 Gaussian 09, Revision D.01,
 Gaussian 09:  ES64L-G09RevD.01 24-Apr-2013

 --------------------
 #p B2PLYPD3/Def2QZVP
 --------------------

 ------------
 cyanomethane
 ------------
 Symbolic Z-matrix:
 Charge =  0 Multiplicity = 1

                         Standard orientation:
 ---------------------------------------------------------------------
 Center     Atomic      Atomic             Coordinates (Angstroms)
 Number     Number       Type             X           Y           Z
 ---------------------------------------------------------------------
      1          6           0        1.188901    0.010188    0.003441
      2          6           0       -0.279681   -0.019639   -0.006545
      3          7           0       -1.437394    0.007937    0.000679
      4          1           0        1.527952    0.974230   -0.291495
      5          1           0        1.571214   -0.745269   -0.681275
      6          1           0        1.507266   -0.227814    0.986637
 ---------------------------------------------------------------------

 SCF Done:  E(RB2PLYPD3) =  -132.534657235     A.U. after   12 cycles
 E2(B2PLYPD3) =    -0.1805232616D+00 E(B2PLYPD3) =    -0.13271518049696D+03

 The electronic state is 1-A.
 Alpha  occ. eigenvalues --  -14.84236 -10.66718 -10.66324  -1.03913  -0.89520
 Alpha  occ. eigenvalues --   -0.59405  -0.54936  -0.54047  -0.44716  -0.39079
 Alpha  occ. eigenvalues --   -0.38981
 Alpha virt. eigenvalues --    0.03834   0.08060   0.08321   0.10204   0.11262
 Alpha virt. eigenvalues --    0.11348   0.15307   0.16000   0.16386   0.20099
 Alpha virt. eigenvalues --    0.20120   0.25137   0.32648   0.34690   0.35138

 Mulliken charges:
               1
     1  C   -0.083076
     2  C   -0.003025
     3  N   -0.208686
     4  H    0.100417
     5  H    0.095216
     6  H    0.099154
 Sum of Mulliken charges =   0.00000

 Dipole moment (field-independent basis, Debye):
    X=              4.1392    Y=             -0.0142    Z=              0.0061  Tot=              4.1393
 Quadrupole moment (field-independent basis, Debye-Ang):
   XX=            -21.0500   YY=            -17.6956   ZZ=            -17.7459
   XY=              0.0095   XZ=             -0.0232   YZ=             -0.0314

 Normal termination of Gaussian 09 at Thu Aug 27 00:08:48 2020.
