 Gaussian 09, Revision D.01,
 Gaussian 09:  ES64L-G09RevD.01 24-Apr-2013

 --------------------
 #p B2PLYPD3/Def2QZVP
 --------------------

 ------------
 cyanomethane
 ------------
 Symbolic Z-matrix:
 Charge =  0 Multiplicity = 1

                         Standard orientation:
 ---------------------------------------------------------------------
 Center     Atomic      Atomic             Coordinates (Angstroms)
 Number     Number       Type             X           Y           Z
 ---------------------------------------------------------------------
      1          6           0       -1.173899   -0.001318    0.001302
      2          6           0        0.279690    0.009545    0.006190
      3          7           0        1.428516   -0.005094   -0.005956
      4          1           0       -1.572282   -0.706385   -0.741757
      5          1           0       -1.549926    0.994242   -0.232921
      6          1           0       -1.512145   -0.301562    0.971417
 ---------------------------------------------------------------------

 SCF Done:  E(RB2PLYPD3) =  -132.535850126     A.U. after   11 cycles
 E2(B2PLYPD3) =    -0.1799351098D+00 E(B2PLYPD3) =    -0.13271578523584D+03

 The electronic state is 1-A.
 Alpha  occ. eigenvalues --  -14.84004 -10.66963 -10.66039  -1.04333  -0.89353
 Alpha  occ. eigenvalues --   -0.59701  -0.54397  -0.53652  -0.44751  -0.39198
 Alpha  occ. eigenvalues --   -0.39146
 Alpha virt. eigenvalues --    0.03783   0.07852   0.08261   0.10187   0.11490
 Alpha virt. eigenvalues --    0.11584   0.15456   0.16141   0.16571   0.20059
 Alpha virt. eigenvalues --    0.20091   0.25421   0.32864   0.34569   0.34817

 Mulliken charges:
               1
     1  C   -0.084227
     2  C   -0.002761
     3  N   -0.203633
     4  H    0.095566
     5  H    0.096725
     6  H    0.098329
 Sum of Mulliken charges =   0.00000

 Dipole moment (field-independent basis, Debye):
    X=             -4.1165    Y=              0.0046    Z=              0.0151  Tot=              4.1166
 Quadrupole moment (field-independent basis, Debye-Ang):
   XX=            -21.0067   YY=            -17.7098   ZZ=            -17.7271
   XY=              0.0399   XZ=              0.0649   YZ=             -0.0211

 Normal termination of Gaussian 09 at Wed Aug 26 23:53:55 2020.
