 Gaussian 09, Revision D.01,
 Gaussian 09:  ES64L-G09RevD.01 24-Apr-2013

 --------------------
 #p B2PLYPD3/Def2QZVP
 --------------------

 ------------
 cyanomethane
 ------------
 Symbolic Z-matrix:
 Charge =  0 Multiplicity = 1

                         Standard orientation:
 ---------------------------------------------------------------------
 Center     Atomic      Atomic             Coordinates (Angstroms)
 Number     Number       Type             X           Y           Z
 ---------------------------------------------------------------------
      1          6           0       -1.177328   -0.006123   -0.004510
      2          6           0        0.291509    0.014928    0.014830
      3          7           0        1.436592   -0.005039   -0.012396
      4          1           0       -1.606286   -0.745200   -0.659908
      5          1           0       -1.631165    0.953732   -0.287221
      6          1           0       -1.503776   -0.226097    0.971984
 ---------------------------------------------------------------------

 SCF Done:  E(RB2PLYPD3) =  -132.533977098     A.U. after   12 cycles
 E2(B2PLYPD3) =    -0.1796414233D+00 E(B2PLYPD3) =    -0.13271361852095D+03

 The electronic state is 1-A.
 Alpha  occ. eigenvalues --  -14.84084 -10.66754 -10.66189  -1.04541  -0.89227
 Alpha  occ. eigenvalues --   -0.60338  -0.54136  -0.53237  -0.44876  -0.39453
 Alpha  occ. eigenvalues --   -0.39412
 Alpha virt. eigenvalues --    0.03791   0.07796   0.08479   0.10206   0.11475
 Alpha virt. eigenvalues --    0.11553   0.15439   0.16206   0.17286   0.20009
 Alpha virt. eigenvalues --    0.20100   0.25195   0.32739   0.34895   0.35075

 Mulliken charges:
               1
     1  C   -0.070260
     2  C   -0.000146
     3  N   -0.200855
     4  H    0.090869
     5  H    0.088158
     6  H    0.092233
 Sum of Mulliken charges =   0.00000

 Dipole moment (field-independent basis, Debye):
    X=             -4.1349    Y=             -0.0027    Z=              0.0383  Tot=              4.1350
 Quadrupole moment (field-independent basis, Debye-Ang):
   XX=            -20.7093   YY=            -17.7928   ZZ=            -17.7988
   XY=              0.0146   XZ=              0.1120   YZ=              0.0002

 Normal termination of Gaussian 09 at Wed Aug 26 12:59:50 2020.
