 Gaussian 09, Revision D.01,
 Gaussian 09:  ES64L-G09RevD.01 24-Apr-2013

 --------------------
 #p B2PLYPD3/Def2QZVP
 --------------------

 ------------
 cyanomethane
 ------------
 Symbolic Z-matrix:
 Charge =  0 Multiplicity = 1

                         Standard orientation:
 ---------------------------------------------------------------------
 Center     Atomic      Atomic             Coordinates (Angstroms)
 Number     Number       Type             X           Y           Z
 ---------------------------------------------------------------------
      1          6           0       -1.167984    0.006022   -0.001802
      2          6           0        0.281287   -0.017646    0.016024
      3          7           0        1.426890    0.003080   -0.007725
      4          1           0       -1.614392   -0.841008   -0.579693
      5          1           0       -1.485357    0.940505   -0.461221
      6          1           0       -1.568292   -0.051321    1.009659
 ---------------------------------------------------------------------

 SCF Done:  E(RB2PLYPD3) =  -132.535238875     A.U. after   12 cycles
 E2(B2PLYPD3) =    -0.1798772932D+00 E(B2PLYPD3) =    -0.13271511616802D+03

 The electronic state is 1-A.
 Alpha  occ. eigenvalues --  -14.83964 -10.67271 -10.65994  -1.04493  -0.89104
 Alpha  occ. eigenvalues --   -0.59833  -0.54074  -0.53186  -0.44792  -0.39242
 Alpha  occ. eigenvalues --   -0.39189
 Alpha virt. eigenvalues --    0.03723   0.07662   0.08086   0.10192   0.11603
 Alpha virt. eigenvalues --    0.11684   0.15456   0.16256   0.16685   0.20037
 Alpha virt. eigenvalues --    0.20069   0.25535   0.32782   0.34455   0.34650

 Mulliken charges:
               1
     1  C   -0.085399
     2  C   -0.001590
     3  N   -0.201518
     4  H    0.093647
     5  H    0.099148
     6  H    0.095713
 Sum of Mulliken charges =   0.00000

 Dipole moment (field-independent basis, Debye):
    X=             -4.1084    Y=              0.0054    Z=              0.0154  Tot=              4.1084
 Quadrupole moment (field-independent basis, Debye-Ang):
   XX=            -20.9633   YY=            -17.7297   ZZ=            -17.7595
   XY=              0.0578   XZ=              0.0254   YZ=             -0.0280

 Normal termination of Gaussian 09 at Wed Aug 26 10:48:20 2020.
