 Gaussian 09, Revision D.01,
 Gaussian 09:  ES64L-G09RevD.01 24-Apr-2013

 --------------------
 #p B2PLYPD3/Def2QZVP
 --------------------

 ------------
 cyanomethane
 ------------
 Symbolic Z-matrix:
 Charge =  0 Multiplicity = 1

                         Standard orientation:
 ---------------------------------------------------------------------
 Center     Atomic      Atomic             Coordinates (Angstroms)
 Number     Number       Type             X           Y           Z
 ---------------------------------------------------------------------
      1          6           0       -1.195888   -0.011282   -0.005563
      2          6           0        0.269872   -0.052293   -0.002297
      3          7           0        1.450004    0.028232    0.006119
      4          1           0       -1.597402    0.145401    0.920668
      5          1           0       -1.502251   -0.858529   -0.390627
      6          1           0       -1.494276    0.896953   -0.525711
 ---------------------------------------------------------------------

 SCF Done:  E(RB2PLYPD3) =  -132.517346559     A.U. after   11 cycles
 E2(B2PLYPD3) =    -0.1824651471D+00 E(B2PLYPD3) =    -0.13269981170610D+03

 The electronic state is 1-A.
 Alpha  occ. eigenvalues --  -14.84973 -10.67081 -10.65484  -1.03003  -0.90729
 Alpha  occ. eigenvalues --   -0.60552  -0.57524  -0.53224  -0.44841  -0.38713
 Alpha  occ. eigenvalues --   -0.38302
 Alpha virt. eigenvalues --    0.03778   0.07520   0.08528   0.10084   0.10651
 Alpha virt. eigenvalues --    0.11478   0.15233   0.16116   0.16401   0.20054
 Alpha virt. eigenvalues --    0.20363   0.25221   0.32628   0.34263   0.36149

 Mulliken charges:
               1
     1  C   -0.065619
     2  C    0.003865
     3  N   -0.220177
     4  H    0.086660
     5  H    0.102336
     6  H    0.092935
 Sum of Mulliken charges =   0.00000

 Dipole moment (field-independent basis, Debye):
    X=             -4.1879    Y=             -0.0016    Z=              0.0315  Tot=              4.1880
 Quadrupole moment (field-independent basis, Debye-Ang):
   XX=            -20.8622   YY=            -17.5339   ZZ=            -18.0268
   XY=             -0.2115   XZ=             -0.1977   YZ=              0.0892

 Normal termination of Gaussian 09 at Wed Aug 26 21:53:38 2020.
