 Gaussian 09, Revision D.01,
 Gaussian 09:  ES64L-G09RevD.01 24-Apr-2013

 --------------------
 #p B2PLYPD3/Def2QZVP
 --------------------

 ------------
 cyanomethane
 ------------
 Symbolic Z-matrix:
 Charge =  0 Multiplicity = 1

                         Standard orientation:
 ---------------------------------------------------------------------
 Center     Atomic      Atomic             Coordinates (Angstroms)
 Number     Number       Type             X           Y           Z
 ---------------------------------------------------------------------
      1          6           0       -1.174817    0.020241   -0.009256
      2          6           0        0.275507    0.023215   -0.025184
      3          7           0        1.443953   -0.011298    0.011770
      4          1           0       -1.577354   -0.592454   -0.806198
      5          1           0       -1.616153    0.942996    0.015659
      6          1           0       -1.518301   -0.532186    0.914791
 ---------------------------------------------------------------------

 SCF Done:  E(RB2PLYPD3) =  -132.528847437     A.U. after   12 cycles
 E2(B2PLYPD3) =    -0.1817935432D+00 E(B2PLYPD3) =    -0.13271064098059D+03

 The electronic state is 1-A.
 Alpha  occ. eigenvalues --  -14.84715 -10.66837 -10.66750  -1.03611  -0.89617
 Alpha  occ. eigenvalues --   -0.60956  -0.55315  -0.52365  -0.44966  -0.38992
 Alpha  occ. eigenvalues --   -0.38463
 Alpha virt. eigenvalues --    0.03661   0.07295   0.07922   0.10138   0.11033
 Alpha virt. eigenvalues --    0.11687   0.15472   0.16042   0.17125   0.20090
 Alpha virt. eigenvalues --    0.20235   0.25467   0.32657   0.33517   0.35679

 Mulliken charges:
               1
     1  C   -0.069169
     2  C    0.005412
     3  N   -0.212810
     4  H    0.091994
     5  H    0.098121
     6  H    0.086452
 Sum of Mulliken charges =   0.00000

 Dipole moment (field-independent basis, Debye):
    X=             -4.1655    Y=             -0.0108    Z=              0.0002  Tot=              4.1655
 Quadrupole moment (field-independent basis, Debye-Ang):
   XX=            -20.7807   YY=            -17.7368   ZZ=            -17.9707
   XY=              0.0772   XZ=             -0.0685   YZ=              0.0519

 Normal termination of Gaussian 09 at Wed Aug 26 11:45:24 2020.
