 Gaussian 09, Revision D.01,
 Gaussian 09:  ES64L-G09RevD.01 24-Apr-2013

 --------------------
 #p B2PLYPD3/Def2QZVP
 --------------------

 ------------
 cyanomethane
 ------------
 Symbolic Z-matrix:
 Charge =  0 Multiplicity = 1

                         Standard orientation:
 ---------------------------------------------------------------------
 Center     Atomic      Atomic             Coordinates (Angstroms)
 Number     Number       Type             X           Y           Z
 ---------------------------------------------------------------------
      1          6           0        1.173938   -0.015468   -0.003848
      2          6           0       -0.275199    0.014080   -0.036077
      3          7           0       -1.454966   -0.006534    0.008089
      4          1           0        1.623385    1.053607   -0.152547
      5          1           0        1.731230   -0.707655   -0.629441
      6          1           0        1.437714   -0.291884    0.964912
 ---------------------------------------------------------------------

 SCF Done:  E(RB2PLYPD3) =  -132.522870659     A.U. after   13 cycles
 E2(B2PLYPD3) =    -0.1832308189D+00 E(B2PLYPD3) =    -0.13270610147755D+03

 The electronic state is 1-A.
 Alpha  occ. eigenvalues --  -14.85138 -10.67397 -10.67319  -1.03257  -0.89305
 Alpha  occ. eigenvalues --   -0.61221  -0.53661  -0.52499  -0.45103  -0.38568
 Alpha  occ. eigenvalues --   -0.38386
 Alpha virt. eigenvalues --    0.03589   0.06479   0.07386   0.10102   0.11285
 Alpha virt. eigenvalues --    0.11497   0.15370   0.15738   0.17674   0.20193
 Alpha virt. eigenvalues --    0.20368   0.25515   0.31615   0.33932   0.35094

 Mulliken charges:
               1
     1  C   -0.074711
     2  C    0.012028
     3  N   -0.216746
     4  H    0.087904
     5  H    0.093920
     6  H    0.097605
 Sum of Mulliken charges =   0.00000

 Dipole moment (field-independent basis, Debye):
    X=              4.1833    Y=             -0.0322    Z=              0.0646  Tot=              4.1839
 Quadrupole moment (field-independent basis, Debye-Ang):
   XX=            -20.6774   YY=            -17.8164   ZZ=            -18.1295
   XY=             -0.1321   XZ=              0.0275   YZ=              0.0057

 Normal termination of Gaussian 09 at Wed Aug 26 22:11:57 2020.
