 Gaussian 09, Revision D.01,
 Gaussian 09:  ES64L-G09RevD.01 24-Apr-2013

 --------------------
 #p B2PLYPD3/Def2QZVP
 --------------------

 ------------
 cyanomethane
 ------------
 Symbolic Z-matrix:
 Charge =  0 Multiplicity = 1

                         Standard orientation:
 ---------------------------------------------------------------------
 Center     Atomic      Atomic             Coordinates (Angstroms)
 Number     Number       Type             X           Y           Z
 ---------------------------------------------------------------------
      1          6           0       -1.195139    0.025272    0.004994
      2          6           0        0.264713   -0.052781    0.018735
      3          7           0        1.451514    0.028961   -0.011857
      4          1           0       -1.492804   -0.236956    0.988212
      5          1           0       -1.503145   -0.856834   -0.704731
      6          1           0       -1.582093    1.056119   -0.342854
 ---------------------------------------------------------------------

 SCF Done:  E(RB2PLYPD3) =  -132.518781878     A.U. after   13 cycles
 E2(B2PLYPD3) =    -0.1844123131D+00 E(B2PLYPD3) =    -0.13270319419147D+03

 The electronic state is 1-A.
 Alpha  occ. eigenvalues --  -14.85082 -10.68533 -10.67223  -1.02655  -0.88708
 Alpha  occ. eigenvalues --   -0.58645  -0.54352  -0.52633  -0.44757  -0.38204
 Alpha  occ. eigenvalues --   -0.37887
 Alpha virt. eigenvalues --    0.03172   0.06389   0.07688   0.09953   0.10957
 Alpha virt. eigenvalues --    0.11221   0.14811   0.15123   0.16631   0.20195
 Alpha virt. eigenvalues --    0.20321   0.25419   0.31508   0.33070   0.34082

 Mulliken charges:
               1
     1  C   -0.110743
     2  C    0.007195
     3  N   -0.222072
     4  H    0.110695
     5  H    0.102039
     6  H    0.112886
 Sum of Mulliken charges =   0.00000

 Dipole moment (field-independent basis, Debye):
    X=             -4.1370    Y=             -0.0465    Z=              0.0430  Tot=              4.1374
 Quadrupole moment (field-independent basis, Debye-Ang):
   XX=            -21.4647   YY=            -17.6364   ZZ=            -17.9955
   XY=             -0.1696   XZ=              0.0130   YZ=             -0.0642

 Normal termination of Gaussian 09 at Wed Aug 26 22:18:31 2020.
