 Gaussian 09, Revision D.01,
 Gaussian 09:  ES64L-G09RevD.01 24-Apr-2013

 --------------------
 #p B2PLYPD3/Def2QZVP
 --------------------

 ------------
 cyanomethane
 ------------
 Symbolic Z-matrix:
 Charge =  0 Multiplicity = 1

                         Standard orientation:
 ---------------------------------------------------------------------
 Center     Atomic      Atomic             Coordinates (Angstroms)
 Number     Number       Type             X           Y           Z
 ---------------------------------------------------------------------
      1          6           0       -1.171186    0.004918   -0.001270
      2          6           0        0.273774   -0.010429   -0.014859
      3          7           0        1.430065    0.005301    0.005590
      4          1           0       -1.563754   -0.639194   -0.782723
      5          1           0       -1.551390    1.018209   -0.128105
      6          1           0       -1.510837   -0.383051    0.968471
 ---------------------------------------------------------------------

 SCF Done:  E(RB2PLYPD3) =  -132.535385399     A.U. after   11 cycles
 E2(B2PLYPD3) =    -0.1806509701D+00 E(B2PLYPD3) =    -0.13271603636956D+03

 The electronic state is 1-A.
 Alpha  occ. eigenvalues --  -14.84201 -10.67065 -10.66227  -1.04046  -0.89421
 Alpha  occ. eigenvalues --   -0.59806  -0.54204  -0.53806  -0.44781  -0.38984
 Alpha  occ. eigenvalues --   -0.38876
 Alpha virt. eigenvalues --    0.03756   0.07766   0.07884   0.10155   0.11435
 Alpha virt. eigenvalues --    0.11571   0.15473   0.16083   0.16480   0.20091
 Alpha virt. eigenvalues --    0.20134   0.25570   0.32838   0.34329   0.34797

 Mulliken charges:
               1
     1  C   -0.085417
     2  C   -0.000807
     3  N   -0.207615
     4  H    0.097538
     5  H    0.098964
     6  H    0.097338
 Sum of Mulliken charges =   0.00000

 Dipole moment (field-independent basis, Debye):
    X=             -4.1234    Y=             -0.0124    Z=             -0.0004  Tot=              4.1234
 Quadrupole moment (field-independent basis, Debye-Ang):
   XX=            -21.0452   YY=            -17.7087   ZZ=            -17.7647
   XY=             -0.0225   XZ=             -0.0082   YZ=              0.0066

 Normal termination of Gaussian 09 at Wed Aug 26 23:10:29 2020.
