 Gaussian 09, Revision D.01,
 Gaussian 09:  ES64L-G09RevD.01 24-Apr-2013

 --------------------
 #p B2PLYPD3/Def2QZVP
 --------------------

 ------------
 cyanomethane
 ------------
 Symbolic Z-matrix:
 Charge =  0 Multiplicity = 1

                         Standard orientation:
 ---------------------------------------------------------------------
 Center     Atomic      Atomic             Coordinates (Angstroms)
 Number     Number       Type             X           Y           Z
 ---------------------------------------------------------------------
      1          6           0        1.170443   -0.003691   -0.013669
      2          6           0       -0.279453   -0.001640    0.030032
      3          7           0       -1.424116    0.000961   -0.014531
      4          1           0        1.537143    1.025952   -0.072547
      5          1           0        1.545450   -0.566668   -0.810805
      6          1           0        1.540283   -0.434029    0.886892
 ---------------------------------------------------------------------

 SCF Done:  E(RB2PLYPD3) =  -132.534711828     A.U. after   11 cycles
 E2(B2PLYPD3) =    -0.1794465256D+00 E(B2PLYPD3) =    -0.13271415835382D+03

 The electronic state is 1-A.
 Alpha  occ. eigenvalues --  -14.83906 -10.66336 -10.65909  -1.04491  -0.89802
 Alpha  occ. eigenvalues --   -0.60136  -0.54650  -0.54051  -0.44755  -0.39353
 Alpha  occ. eigenvalues --   -0.39221
 Alpha virt. eigenvalues --    0.03863   0.08156   0.08429   0.10168   0.11520
 Alpha virt. eigenvalues --    0.11590   0.15547   0.16038   0.16850   0.20058
 Alpha virt. eigenvalues --    0.20067   0.25563   0.33086   0.34600   0.35324

 Mulliken charges:
               1
     1  C   -0.076030
     2  C   -0.002589
     3  N   -0.202453
     4  H    0.093742
     5  H    0.095923
     6  H    0.091407
 Sum of Mulliken charges =   0.00000

 Dipole moment (field-independent basis, Debye):
    X=              4.1134    Y=             -0.0153    Z=              0.0316  Tot=              4.1135
 Quadrupole moment (field-independent basis, Debye-Ang):
   XX=            -20.9171   YY=            -17.6337   ZZ=            -17.7491
   XY=             -0.0320   XZ=             -0.0610   YZ=              0.0265

 Normal termination of Gaussian 09 at Wed Aug 26 12:48:01 2020.
