 Gaussian 09, Revision D.01,
 Gaussian 09:  ES64L-G09RevD.01 24-Apr-2013

 --------------------
 #p B2PLYPD3/Def2QZVP
 --------------------

 ------------
 cyanomethane
 ------------
 Symbolic Z-matrix:
 Charge =  0 Multiplicity = 1

                         Standard orientation:
 ---------------------------------------------------------------------
 Center     Atomic      Atomic             Coordinates (Angstroms)
 Number     Number       Type             X           Y           Z
 ---------------------------------------------------------------------
      1          6           0       -1.176410   -0.000197    0.004780
      2          6           0        0.276704   -0.006765   -0.019992
      3          7           0        1.440187    0.001317    0.008669
      4          1           0       -1.596169   -0.836599   -0.579783
      5          1           0       -1.540825    0.950477   -0.422848
      6          1           0       -1.546074   -0.081322    1.033220
 ---------------------------------------------------------------------

 SCF Done:  E(RB2PLYPD3) =  -132.534184001     A.U. after   11 cycles
 E2(B2PLYPD3) =    -0.1814482269D+00 E(B2PLYPD3) =    -0.13271563222842D+03

 The electronic state is 1-A.
 Alpha  occ. eigenvalues --  -14.84496 -10.67472 -10.66572  -1.03778  -0.89030
 Alpha  occ. eigenvalues --   -0.59865  -0.53637  -0.53572  -0.44866  -0.38831
 Alpha  occ. eigenvalues --   -0.38798
 Alpha virt. eigenvalues --    0.03683   0.07492   0.07588   0.10147   0.11378
 Alpha virt. eigenvalues --    0.11447   0.15390   0.16212   0.16471   0.20111
 Alpha virt. eigenvalues --    0.20140   0.25434   0.32545   0.34345   0.34547

 Mulliken charges:
               1
     1  C   -0.084510
     2  C    0.001349
     3  N   -0.209891
     4  H    0.096790
     5  H    0.097687
     6  H    0.098576
 Sum of Mulliken charges =   0.00000

 Dipole moment (field-independent basis, Debye):
    X=             -4.1389    Y=              0.0021    Z=             -0.0053  Tot=              4.1389
 Quadrupole moment (field-independent basis, Debye-Ang):
   XX=            -20.9942   YY=            -17.7960   ZZ=            -17.8198
   XY=              0.0235   XZ=             -0.0388   YZ=             -0.0026

 Normal termination of Gaussian 09 at Thu Aug 27 00:05:30 2020.
