 Gaussian 09, Revision D.01,
 Gaussian 09:  ES64L-G09RevD.01 24-Apr-2013

 --------------------
 #p B2PLYPD3/Def2QZVP
 --------------------

 ------------
 cyanomethane
 ------------
 Symbolic Z-matrix:
 Charge =  0 Multiplicity = 1

                         Standard orientation:
 ---------------------------------------------------------------------
 Center     Atomic      Atomic             Coordinates (Angstroms)
 Number     Number       Type             X           Y           Z
 ---------------------------------------------------------------------
      1          6           0       -1.181161    0.010619    0.001419
      2          6           0        0.282217    0.012151   -0.006279
      3          7           0        1.438018   -0.009395    0.003790
      4          1           0       -1.531716    1.010969   -0.133404
      5          1           0       -1.574982   -0.422941    0.954139
      6          1           0       -1.565760   -0.658878   -0.818102
 ---------------------------------------------------------------------

 SCF Done:  E(RB2PLYPD3) =  -132.533462640     A.U. after   12 cycles
 E2(B2PLYPD3) =    -0.1808119513D+00 E(B2PLYPD3) =    -0.13271427459081D+03

 The electronic state is 1-A.
 Alpha  occ. eigenvalues --  -14.84260 -10.67645 -10.66350  -1.04048  -0.88809
 Alpha  occ. eigenvalues --   -0.59437  -0.54501  -0.52634  -0.44796  -0.39140
 Alpha  occ. eigenvalues --   -0.38892
 Alpha virt. eigenvalues --    0.03641   0.07401   0.08075   0.10179   0.11265
 Alpha virt. eigenvalues --    0.11627   0.15309   0.16239   0.16415   0.20031
 Alpha virt. eigenvalues --    0.20140   0.25226   0.32475   0.33838   0.34903

 Mulliken charges:
               1
     1  C   -0.089562
     2  C   -0.000811
     3  N   -0.206096
     4  H    0.103445
     5  H    0.096985
     6  H    0.096039
 Sum of Mulliken charges =   0.00000

 Dipole moment (field-independent basis, Debye):
    X=             -4.1259    Y=              0.0067    Z=             -0.0038  Tot=              4.1259
 Quadrupole moment (field-independent basis, Debye-Ang):
   XX=            -21.0526   YY=            -17.6935   ZZ=            -17.8614
   XY=              0.1062   XZ=             -0.0358   YZ=             -0.0218

 Normal termination of Gaussian 09 at Thu Aug 27 00:11:08 2020.
