 Gaussian 09, Revision D.01,
 Gaussian 09:  ES64L-G09RevD.01 24-Apr-2013

 --------------------
 #p B2PLYPD3/Def2QZVP
 --------------------

 ------------
 cyanomethane
 ------------
 Symbolic Z-matrix:
 Charge =  0 Multiplicity = 1

                         Standard orientation:
 ---------------------------------------------------------------------
 Center     Atomic      Atomic             Coordinates (Angstroms)
 Number     Number       Type             X           Y           Z
 ---------------------------------------------------------------------
      1          6           0       -1.172042    0.009159   -0.004700
      2          6           0        0.269813    0.017416    0.026861
      3          7           0        1.428481   -0.007291   -0.013767
      4          1           0       -1.520664   -0.189852    1.016629
      5          1           0       -1.503642   -0.902596   -0.649924
      6          1           0       -1.561690    0.984039   -0.403298
 ---------------------------------------------------------------------

 SCF Done:  E(RB2PLYPD3) =  -132.529423162     A.U. after   12 cycles
 E2(B2PLYPD3) =    -0.1814662083D+00 E(B2PLYPD3) =    -0.13271088937070D+03

 The electronic state is 1-A.
 Alpha  occ. eigenvalues --  -14.84215 -10.68174 -10.66245  -1.03887  -0.88835
 Alpha  occ. eigenvalues --   -0.58932  -0.54211  -0.52732  -0.44718  -0.38833
 Alpha  occ. eigenvalues --   -0.38541
 Alpha virt. eigenvalues --    0.03446   0.07109   0.07723   0.10120   0.11384
 Alpha virt. eigenvalues --    0.11736   0.15258   0.15666   0.16432   0.20077
 Alpha virt. eigenvalues --    0.20175   0.25587   0.32356   0.33223   0.34410

 Mulliken charges:
               1
     1  C   -0.106908
     2  C    0.001931
     3  N   -0.209041
     4  H    0.103750
     5  H    0.102107
     6  H    0.108162
 Sum of Mulliken charges =   0.00000

 Dipole moment (field-independent basis, Debye):
    X=             -4.0971    Y=             -0.0050    Z=              0.0428  Tot=              4.0973
 Quadrupole moment (field-independent basis, Debye-Ang):
   XX=            -21.3401   YY=            -17.5953   ZZ=            -17.8571
   XY=              0.0308   XZ=              0.0219   YZ=             -0.0591

 Normal termination of Gaussian 09 at Wed Aug 26 12:35:50 2020.
