 Gaussian 09, Revision D.01,
 Gaussian 09:  ES64L-G09RevD.01 24-Apr-2013

 --------------------
 #p B2PLYPD3/Def2QZVP
 --------------------

 ------------
 cyanomethane
 ------------
 Symbolic Z-matrix:
 Charge =  0 Multiplicity = 1

                         Standard orientation:
 ---------------------------------------------------------------------
 Center     Atomic      Atomic             Coordinates (Angstroms)
 Number     Number       Type             X           Y           Z
 ---------------------------------------------------------------------
      1          6           0        1.189397   -0.000053   -0.010309
      2          6           0       -0.281895   -0.001200   -0.004104
      3          7           0       -1.440006   -0.001690    0.010542
      4          1           0        1.648755   -0.060784    1.003571
      5          1           0        1.472681    0.971718   -0.441350
      6          1           0        1.513593   -0.891586   -0.549538
 ---------------------------------------------------------------------

 SCF Done:  E(RB2PLYPD3) =  -132.532029393     A.U. after   12 cycles
 E2(B2PLYPD3) =    -0.1810318643D+00 E(B2PLYPD3) =    -0.13271306125769D+03

 The electronic state is 1-A.
 Alpha  occ. eigenvalues --  -14.84259 -10.67709 -10.66390  -1.03906  -0.88798
 Alpha  occ. eigenvalues --   -0.59178  -0.54958  -0.52399  -0.44717  -0.39057
 Alpha  occ. eigenvalues --   -0.38831
 Alpha virt. eigenvalues --    0.03657   0.07382   0.08207   0.10206   0.11187
 Alpha virt. eigenvalues --    0.11592   0.15068   0.15937   0.16526   0.20034
 Alpha virt. eigenvalues --    0.20174   0.25057   0.32363   0.33883   0.34801

 Mulliken charges:
               1
     1  C   -0.094437
     2  C   -0.000857
     3  N   -0.208048
     4  H    0.093943
     5  H    0.105044
     6  H    0.104355
 Sum of Mulliken charges =   0.00000

 Dipole moment (field-independent basis, Debye):
    X=              4.1322    Y=             -0.0004    Z=              0.0066  Tot=              4.1322
 Quadrupole moment (field-independent basis, Debye-Ang):
   XX=            -21.1396   YY=            -17.5486   ZZ=            -17.9866
   XY=             -0.0610   XZ=              0.2440   YZ=              0.0098

 Normal termination of Gaussian 09 at Wed Aug 26 16:16:43 2020.
