 Gaussian 09, Revision D.01,
 Gaussian 09:  ES64L-G09RevD.01 24-Apr-2013

 --------------------
 #p B2PLYPD3/Def2QZVP
 --------------------

 ------------
 cyanomethane
 ------------
 Symbolic Z-matrix:
 Charge =  0 Multiplicity = 1

                         Standard orientation:
 ---------------------------------------------------------------------
 Center     Atomic      Atomic             Coordinates (Angstroms)
 Number     Number       Type             X           Y           Z
 ---------------------------------------------------------------------
      1          6           0       -1.176264    0.005635    0.018402
      2          6           0        0.270026   -0.026668    0.008107
      3          7           0        1.431881    0.010570   -0.010241
      4          1           0       -1.489800   -0.340216    0.980886
      5          1           0       -1.591907   -0.687268   -0.842424
      6          1           0       -1.504032    1.079694   -0.225828
 ---------------------------------------------------------------------

 SCF Done:  E(RB2PLYPD3) =  -132.526215998     A.U. after   12 cycles
 E2(B2PLYPD3) =    -0.1818074229D+00 E(B2PLYPD3) =    -0.13270802342092D+03

 The electronic state is 1-A.
 Alpha  occ. eigenvalues --  -14.84306 -10.68368 -10.66352  -1.03762  -0.88745
 Alpha  occ. eigenvalues --   -0.58730  -0.54755  -0.52108  -0.44716  -0.38806
 Alpha  occ. eigenvalues --   -0.38443
 Alpha virt. eigenvalues --    0.03402   0.06710   0.07924   0.10125   0.11262
 Alpha virt. eigenvalues --    0.11744   0.15217   0.15891   0.16031   0.20080
 Alpha virt. eigenvalues --    0.20185   0.25476   0.31890   0.33049   0.34533

 Mulliken charges:
               1
     1  C   -0.109683
     2  C    0.002110
     3  N   -0.210195
     4  H    0.112467
     5  H    0.098871
     6  H    0.106429
 Sum of Mulliken charges =   0.00000

 Dipole moment (field-independent basis, Debye):
    X=             -4.0952    Y=             -0.0072    Z=              0.0171  Tot=              4.0952
 Quadrupole moment (field-independent basis, Debye-Ang):
   XX=            -21.3935   YY=            -17.7679   ZZ=            -17.7058
   XY=             -0.0198   XZ=              0.1260   YZ=             -0.0860

 Normal termination of Gaussian 09 at Wed Aug 26 13:50:05 2020.
