 Gaussian 09, Revision D.01,
 Gaussian 09:  ES64L-G09RevD.01 24-Apr-2013

 --------------------
 #p B2PLYPD3/Def2QZVP
 --------------------

 ------------
 cyanomethane
 ------------
 Symbolic Z-matrix:
 Charge =  0 Multiplicity = 1

                         Standard orientation:
 ---------------------------------------------------------------------
 Center     Atomic      Atomic             Coordinates (Angstroms)
 Number     Number       Type             X           Y           Z
 ---------------------------------------------------------------------
      1          6           0       -1.165126    0.009728    0.000068
      2          6           0        0.286385   -0.021745   -0.024073
      3          7           0        1.423554    0.008359    0.004478
      4          1           0       -1.584309    0.978644   -0.391902
      5          1           0       -1.457284   -0.106463    1.081409
      6          1           0       -1.650837   -0.858593   -0.576823
 ---------------------------------------------------------------------

 SCF Done:  E(RB2PLYPD3) =  -132.530921050     A.U. after   12 cycles
 E2(B2PLYPD3) =    -0.1797277382D+00 E(B2PLYPD3) =    -0.13271064878841D+03

 The electronic state is 1-A.
 Alpha  occ. eigenvalues --  -14.83755 -10.68323 -10.65809  -1.04832  -0.88289
 Alpha  occ. eigenvalues --   -0.59288  -0.53172  -0.52506  -0.44773  -0.39403
 Alpha  occ. eigenvalues --   -0.39236
 Alpha virt. eigenvalues --    0.03530   0.07352   0.07745   0.10203   0.11757
 Alpha virt. eigenvalues --    0.11942   0.15351   0.16052   0.16964   0.19997
 Alpha virt. eigenvalues --    0.20030   0.25508   0.32353   0.33770   0.34273

 Mulliken charges:
               1
     1  C   -0.100787
     2  C   -0.000574
     3  N   -0.195957
     4  H    0.101113
     5  H    0.100561
     6  H    0.095644
 Sum of Mulliken charges =   0.00000

 Dipole moment (field-independent basis, Debye):
    X=             -4.0780    Y=             -0.0103    Z=              0.0160  Tot=              4.0781
 Quadrupole moment (field-independent basis, Debye-Ang):
   XX=            -21.0687   YY=            -17.7245   ZZ=            -17.7901
   XY=             -0.0196   XZ=              0.0607   YZ=             -0.0309

 Normal termination of Gaussian 09 at Wed Aug 26 11:46:39 2020.
