 Gaussian 09, Revision D.01,
 Gaussian 09:  ES64L-G09RevD.01 24-Apr-2013

 --------------------
 #p B2PLYPD3/Def2QZVP
 --------------------

 ------------
 cyanomethane
 ------------
 Symbolic Z-matrix:
 Charge =  0 Multiplicity = 1

                         Standard orientation:
 ---------------------------------------------------------------------
 Center     Atomic      Atomic             Coordinates (Angstroms)
 Number     Number       Type             X           Y           Z
 ---------------------------------------------------------------------
      1          6           0        1.176700   -0.008067    0.003326
      2          6           0       -0.277787   -0.013432   -0.010584
      3          7           0       -1.439800    0.012047    0.008693
      4          1           0        1.489246   -0.863766   -0.547945
      5          1           0        1.607658   -0.022996    1.015246
      6          1           0        1.588213    0.931430   -0.484604
 ---------------------------------------------------------------------

 SCF Done:  E(RB2PLYPD3) =  -132.532078695     A.U. after   12 cycles
 E2(B2PLYPD3) =    -0.1813645674D+00 E(B2PLYPD3) =    -0.13271344326230D+03

 The electronic state is 1-A.
 Alpha  occ. eigenvalues --  -14.84466 -10.67438 -10.66542  -1.03840  -0.89085
 Alpha  occ. eigenvalues --   -0.59873  -0.54578  -0.52630  -0.44865  -0.38943
 Alpha  occ. eigenvalues --   -0.38754
 Alpha virt. eigenvalues --    0.03642   0.07129   0.08037   0.10136   0.11257
 Alpha virt. eigenvalues --    0.11588   0.15363   0.16022   0.16753   0.20061
 Alpha virt. eigenvalues --    0.20193   0.25406   0.32481   0.33994   0.34900

 Mulliken charges:
               1
     1  C   -0.084628
     2  C    0.001234
     3  N   -0.209224
     4  H    0.101982
     5  H    0.096938
     6  H    0.093699
 Sum of Mulliken charges =   0.00000

 Dipole moment (field-independent basis, Debye):
    X=              4.1365    Y=             -0.0213    Z=             -0.0097  Tot=              4.1366
 Quadrupole moment (field-independent basis, Debye-Ang):
   XX=            -20.9775   YY=            -17.7760   ZZ=            -17.8424
   XY=              0.1341   XZ=              0.1137   YZ=              0.0640

 Normal termination of Gaussian 09 at Thu Aug 27 00:13:53 2020.
