 Gaussian 09, Revision D.01,
 Gaussian 09:  ES64L-G09RevD.01 24-Apr-2013

 --------------------
 #p B2PLYPD3/Def2QZVP
 --------------------

 ------------
 cyanomethane
 ------------
 Symbolic Z-matrix:
 Charge =  0 Multiplicity = 1

                         Standard orientation:
 ---------------------------------------------------------------------
 Center     Atomic      Atomic             Coordinates (Angstroms)
 Number     Number       Type             X           Y           Z
 ---------------------------------------------------------------------
      1          6           0       -1.181487   -0.005279    0.006712
      2          6           0        0.286480    0.038202   -0.000872
      3          7           0        1.421265   -0.013694   -0.003295
      4          1           0       -1.458855   -0.370665    0.912165
      5          1           0       -1.507398   -0.702185   -0.738457
      6          1           0       -1.612555    0.971169   -0.185683
 ---------------------------------------------------------------------

 SCF Done:  E(RB2PLYPD3) =  -132.532428274     A.U. after   12 cycles
 E2(B2PLYPD3) =    -0.1784967308D+00 E(B2PLYPD3) =    -0.13271092500516D+03

 The electronic state is 1-A.
 Alpha  occ. eigenvalues --  -14.83573 -10.66151 -10.65610  -1.04798  -0.89845
 Alpha  occ. eigenvalues --   -0.59391  -0.55328  -0.54161  -0.44621  -0.39664
 Alpha  occ. eigenvalues --   -0.39520
 Alpha virt. eigenvalues --    0.03915   0.08426   0.09041   0.10265   0.11450
 Alpha virt. eigenvalues --    0.11651   0.15446   0.16109   0.16604   0.19958
 Alpha virt. eigenvalues --    0.20073   0.25217   0.32915   0.34863   0.35593

 Mulliken charges:
               1
     1  C   -0.082204
     2  C   -0.007603
     3  N   -0.197529
     4  H    0.098823
     5  H    0.093587
     6  H    0.094926
 Sum of Mulliken charges =   0.00000

 Dipole moment (field-independent basis, Debye):
    X=             -4.1027    Y=             -0.0079    Z=              0.0167  Tot=              4.1027
 Quadrupole moment (field-independent basis, Debye-Ang):
   XX=            -20.9781   YY=            -17.5475   ZZ=            -17.7083
   XY=              0.0489   XZ=              0.0465   YZ=             -0.0347

 Normal termination of Gaussian 09 at Wed Aug 26 13:33:28 2020.
