 Gaussian 09, Revision D.01,
 Gaussian 09:  ES64L-G09RevD.01 24-Apr-2013

 --------------------
 #p B2PLYPD3/Def2QZVP
 --------------------

 ------------
 cyanomethane
 ------------
 Symbolic Z-matrix:
 Charge =  0 Multiplicity = 1

                         Standard orientation:
 ---------------------------------------------------------------------
 Center     Atomic      Atomic             Coordinates (Angstroms)
 Number     Number       Type             X           Y           Z
 ---------------------------------------------------------------------
      1          6           0       -1.164061    0.025314    0.011282
      2          6           0        0.262863   -0.054157    0.001623
      3          7           0        1.449801    0.026511   -0.007961
      4          1           0       -1.498416   -0.433049    0.893585
      5          1           0       -1.637848   -0.589875   -0.819901
      6          1           0       -1.605155    1.010402   -0.095390
 ---------------------------------------------------------------------

 SCF Done:  E(RB2PLYPD3) =  -132.524579109     A.U. after   13 cycles
 E2(B2PLYPD3) =    -0.1839053389D+00 E(B2PLYPD3) =    -0.13270848444785D+03

 The electronic state is 1-A.
 Alpha  occ. eigenvalues --  -14.85327 -10.67352 -10.66929  -1.02942  -0.89765
 Alpha  occ. eigenvalues --   -0.61252  -0.54855  -0.52464  -0.45126  -0.38332
 Alpha  occ. eigenvalues --   -0.38033
 Alpha virt. eigenvalues --    0.03585   0.06235   0.07411   0.09918   0.11178
 Alpha virt. eigenvalues --    0.11494   0.15500   0.15862   0.17268   0.20220
 Alpha virt. eigenvalues --    0.20370   0.26089   0.32324   0.34177   0.35062

 Mulliken charges:
               1
     1  C   -0.067053
     2  C    0.008630
     3  N   -0.219966
     4  H    0.096284
     5  H    0.084312
     6  H    0.097794
 Sum of Mulliken charges =   0.00000

 Dipole moment (field-independent basis, Debye):
    X=             -4.1773    Y=             -0.0450    Z=              0.0254  Tot=              4.1776
 Quadrupole moment (field-independent basis, Debye-Ang):
   XX=            -20.7449   YY=            -17.8675   ZZ=            -18.0058
   XY=             -0.1066   XZ=              0.1132   YZ=             -0.0851

 Normal termination of Gaussian 09 at Wed Aug 26 22:10:41 2020.
