 Gaussian 09, Revision D.01,
 Gaussian 09:  ES64L-G09RevD.01 24-Apr-2013

 --------------------
 #p B2PLYPD3/Def2QZVP
 --------------------

 ------------
 cyanomethane
 ------------
 Symbolic Z-matrix:
 Charge =  0 Multiplicity = 1

                         Standard orientation:
 ---------------------------------------------------------------------
 Center     Atomic      Atomic             Coordinates (Angstroms)
 Number     Number       Type             X           Y           Z
 ---------------------------------------------------------------------
      1          6           0       -1.186268   -0.004203   -0.023804
      2          6           0        0.279210    0.012033    0.003097
      3          7           0        1.437849   -0.001874    0.002350
      4          1           0       -1.556702   -0.135222    0.976775
      5          1           0       -1.483759   -0.826977   -0.534375
      6          1           0       -1.582128    0.928336   -0.334607
 ---------------------------------------------------------------------

 SCF Done:  E(RB2PLYPD3) =  -132.529525282     A.U. after   12 cycles
 E2(B2PLYPD3) =    -0.1804168438D+00 E(B2PLYPD3) =    -0.13270994212618D+03

 The electronic state is 1-A.
 Alpha  occ. eigenvalues --  -14.84283 -10.66374 -10.65995  -1.03923  -0.90132
 Alpha  occ. eigenvalues --   -0.60035  -0.56518  -0.53203  -0.44763  -0.39257
 Alpha  occ. eigenvalues --   -0.38848
 Alpha virt. eigenvalues --    0.03910   0.08045   0.08601   0.10227   0.10997
 Alpha virt. eigenvalues --    0.11588   0.15311   0.15989   0.16864   0.20029
 Alpha virt. eigenvalues --    0.20207   0.25176   0.32768   0.34312   0.36141

 Mulliken charges:
               1
     1  C   -0.068919
     2  C   -0.001203
     3  N   -0.209559
     4  H    0.083907
     5  H    0.099507
     6  H    0.096266
 Sum of Mulliken charges =   0.00000

 Dipole moment (field-independent basis, Debye):
    X=             -4.1593    Y=             -0.0103    Z=              0.0425  Tot=              4.1595
 Quadrupole moment (field-independent basis, Debye-Ang):
   XX=            -20.8747   YY=            -17.5168   ZZ=            -17.9468
   XY=             -0.0300   XZ=             -0.1564   YZ=              0.0497

 Normal termination of Gaussian 09 at Wed Aug 26 15:29:45 2020.
