 Gaussian 09, Revision D.01,
 Gaussian 09:  ES64L-G09RevD.01 24-Apr-2013

 --------------------
 #p B2PLYPD3/Def2QZVP
 --------------------

 ------------
 cyanomethane
 ------------
 Symbolic Z-matrix:
 Charge =  0 Multiplicity = 1

                         Standard orientation:
 ---------------------------------------------------------------------
 Center     Atomic      Atomic             Coordinates (Angstroms)
 Number     Number       Type             X           Y           Z
 ---------------------------------------------------------------------
      1          6           0        1.167029   -0.014325   -0.008144
      2          6           0       -0.274950    0.078930    0.003313
      3          7           0       -1.453383   -0.036004   -0.001908
      4          1           0        1.660636    0.984812   -0.270411
      5          1           0        1.581503   -0.814515   -0.706281
      6          1           0        1.579066   -0.305900    1.019034
 ---------------------------------------------------------------------

 SCF Done:  E(RB2PLYPD3) =  -132.523112799     A.U. after   12 cycles
 E2(B2PLYPD3) =    -0.1841540036D+00 E(B2PLYPD3) =    -0.13270726680270D+03

 The electronic state is 1-A.
 Alpha  occ. eigenvalues --  -14.85322 -10.68633 -10.67376  -1.03180  -0.88198
 Alpha  occ. eigenvalues --   -0.60364  -0.52645  -0.51948  -0.45190  -0.38390
 Alpha  occ. eigenvalues --   -0.38254
 Alpha virt. eigenvalues --    0.03246   0.06143   0.06532   0.09925   0.11213
 Alpha virt. eigenvalues --    0.11584   0.15446   0.16171   0.16933   0.20027
 Alpha virt. eigenvalues --    0.20301   0.25903   0.32016   0.33479   0.34109

 Mulliken charges:
               1
     1  C   -0.085002
     2  C    0.011349
     3  N   -0.214353
     4  H    0.093892
     5  H    0.099551
     6  H    0.094563
 Sum of Mulliken charges =   0.00000

 Dipole moment (field-independent basis, Debye):
    X=              4.1329    Y=              0.0175    Z=              0.0197  Tot=              4.1330
 Quadrupole moment (field-independent basis, Debye-Ang):
   XX=            -20.8551   YY=            -17.9016   ZZ=            -18.1002
   XY=             -0.1797   XZ=              0.0184   YZ=              0.0108

 Normal termination of Gaussian 09 at Wed Aug 26 20:02:22 2020.
