 Gaussian 09, Revision D.01,
 Gaussian 09:  ES64L-G09RevD.01 24-Apr-2013

 --------------------
 #p B2PLYPD3/Def2QZVP
 --------------------

 ------------
 cyanomethane
 ------------
 Symbolic Z-matrix:
 Charge =  0 Multiplicity = 1

                         Standard orientation:
 ---------------------------------------------------------------------
 Center     Atomic      Atomic             Coordinates (Angstroms)
 Number     Number       Type             X           Y           Z
 ---------------------------------------------------------------------
      1          6           0       -1.185274   -0.005568   -0.004566
      2          6           0        0.278720    0.009147    0.015773
      3          7           0        1.435982   -0.004762   -0.010613
      4          1           0       -1.501301   -0.242060    0.971678
      5          1           0       -1.570026   -0.726336   -0.691094
      6          1           0       -1.541227    0.980255   -0.273535
 ---------------------------------------------------------------------

 SCF Done:  E(RB2PLYPD3) =  -132.534335071     A.U. after   12 cycles
 E2(B2PLYPD3) =    -0.1804595791D+00 E(B2PLYPD3) =    -0.13271479465010D+03

 The electronic state is 1-A.
 Alpha  occ. eigenvalues --  -14.84237 -10.66543 -10.66310  -1.03953  -0.89674
 Alpha  occ. eigenvalues --   -0.59675  -0.54737  -0.54277  -0.44742  -0.39065
 Alpha  occ. eigenvalues --   -0.39011
 Alpha virt. eigenvalues --    0.03846   0.07976   0.08429   0.10183   0.11310
 Alpha virt. eigenvalues --    0.11353   0.15387   0.15860   0.16648   0.20111
 Alpha virt. eigenvalues --    0.20122   0.25230   0.32772   0.34804   0.35106

 Mulliken charges:
               1
     1  C   -0.080001
     2  C   -0.002373
     3  N   -0.208520
     4  H    0.097555
     5  H    0.097259
     6  H    0.096081
 Sum of Mulliken charges =   0.00000

 Dipole moment (field-independent basis, Debye):
    X=             -4.1393    Y=              0.0042    Z=              0.0255  Tot=              4.1394
 Quadrupole moment (field-independent basis, Debye-Ang):
   XX=            -20.9997   YY=            -17.7060   ZZ=            -17.7392
   XY=              0.0404   XZ=              0.0819   YZ=              0.0012

 Normal termination of Gaussian 09 at Wed Aug 26 23:57:54 2020.
