 Gaussian 09, Revision D.01,
 Gaussian 09:  ES64L-G09RevD.01 24-Apr-2013

 --------------------
 #p B2PLYPD3/Def2QZVP
 --------------------

 ------------
 cyanomethane
 ------------
 Symbolic Z-matrix:
 Charge =  0 Multiplicity = 1

                         Standard orientation:
 ---------------------------------------------------------------------
 Center     Atomic      Atomic             Coordinates (Angstroms)
 Number     Number       Type             X           Y           Z
 ---------------------------------------------------------------------
      1          6           0        1.196851   -0.010939    0.002554
      2          6           0       -0.292460    0.039893   -0.014635
      3          7           0       -1.434578   -0.013125    0.008967
      4          1           0        1.451691   -0.878606   -0.575870
      5          1           0        1.551043   -0.114087    1.009676
      6          1           0        1.612969    0.910847   -0.424087
 ---------------------------------------------------------------------

 SCF Done:  E(RB2PLYPD3) =  -132.534722808     A.U. after   12 cycles
 E2(B2PLYPD3) =    -0.1794549296D+00 E(B2PLYPD3) =    -0.13271417773774D+03

 The electronic state is 1-A.
 Alpha  occ. eigenvalues --  -14.83834 -10.67205 -10.65961  -1.04445  -0.88870
 Alpha  occ. eigenvalues --   -0.58791  -0.54510  -0.53717  -0.44621  -0.39439
 Alpha  occ. eigenvalues --   -0.39428
 Alpha virt. eigenvalues --    0.03767   0.08267   0.08569   0.10270   0.11360
 Alpha virt. eigenvalues --    0.11448   0.15110   0.16082   0.16420   0.19983
 Alpha virt. eigenvalues --    0.20061   0.24831   0.32480   0.34777   0.34877

 Mulliken charges:
               1
     1  C   -0.091900
     2  C   -0.006567
     3  N   -0.200591
     4  H    0.103422
     5  H    0.098853
     6  H    0.096783
 Sum of Mulliken charges =   0.00000

 Dipole moment (field-independent basis, Debye):
    X=              4.1181    Y=              0.0090    Z=             -0.0024  Tot=              4.1181
 Quadrupole moment (field-independent basis, Debye-Ang):
   XX=            -21.0891   YY=            -17.6411   ZZ=            -17.7505
   XY=              0.0246   XZ=              0.1075   YZ=              0.0297

 Normal termination of Gaussian 09 at Wed Aug 26 16:02:27 2020.
