 Gaussian 09, Revision D.01,
 Gaussian 09:  ES64L-G09RevD.01 24-Apr-2013

 --------------------
 #p B2PLYPD3/Def2QZVP
 --------------------

 ------------
 cyanomethane
 ------------
 Symbolic Z-matrix:
 Charge =  0 Multiplicity = 1

                         Standard orientation:
 ---------------------------------------------------------------------
 Center     Atomic      Atomic             Coordinates (Angstroms)
 Number     Number       Type             X           Y           Z
 ---------------------------------------------------------------------
      1          6           0       -1.164276   -0.005377   -0.010643
      2          6           0        0.275338    0.020695   -0.012046
      3          7           0        1.433700   -0.012420    0.007555
      4          1           0       -1.540152    0.970714   -0.321276
      5          1           0       -1.572368   -0.181271    1.035708
      6          1           0       -1.589756   -0.794410   -0.631185
 ---------------------------------------------------------------------

 SCF Done:  E(RB2PLYPD3) =  -132.532885122     A.U. after   12 cycles
 E2(B2PLYPD3) =    -0.1811522764D+00 E(B2PLYPD3) =    -0.13271403739822D+03

 The electronic state is 1-A.
 Alpha  occ. eigenvalues --  -14.84387 -10.67430 -10.66408  -1.04033  -0.89141
 Alpha  occ. eigenvalues --   -0.60278  -0.54211  -0.52618  -0.44912  -0.38993
 Alpha  occ. eigenvalues --   -0.38736
 Alpha virt. eigenvalues --    0.03638   0.07170   0.07737   0.10098   0.11400
 Alpha virt. eigenvalues --    0.11726   0.15523   0.16143   0.16848   0.20054
 Alpha virt. eigenvalues --    0.20175   0.25695   0.32724   0.33823   0.34906

 Mulliken charges:
               1
     1  C   -0.081518
     2  C    0.002251
     3  N   -0.207367
     4  H    0.096977
     5  H    0.091271
     6  H    0.098386
 Sum of Mulliken charges =   0.00000

 Dipole moment (field-independent basis, Debye):
    X=             -4.1265    Y=              0.0199    Z=             -0.0037  Tot=              4.1266
 Quadrupole moment (field-independent basis, Debye-Ang):
   XX=            -20.9204   YY=            -17.7386   ZZ=            -17.8868
   XY=              0.1001   XZ=             -0.0675   YZ=              0.0238

 Normal termination of Gaussian 09 at Thu Aug 27 00:10:15 2020.
