 Gaussian 09, Revision D.01,
 Gaussian 09:  ES64L-G09RevD.01 24-Apr-2013

 --------------------
 #p B2PLYPD3/Def2QZVP
 --------------------

 ------------
 cyanomethane
 ------------
 Symbolic Z-matrix:
 Charge =  0 Multiplicity = 1

                         Standard orientation:
 ---------------------------------------------------------------------
 Center     Atomic      Atomic             Coordinates (Angstroms)
 Number     Number       Type             X           Y           Z
 ---------------------------------------------------------------------
      1          6           0        1.168025   -0.009986   -0.007126
      2          6           0       -0.272432    0.000122   -0.029685
      3          7           0       -1.434362   -0.000211    0.012023
      4          1           0        1.549692    1.020426   -0.120921
      5          1           0        1.615544   -0.632377   -0.679852
      6          1           0        1.501738   -0.327388    0.937479
 ---------------------------------------------------------------------

 SCF Done:  E(RB2PLYPD3) =  -132.529840448     A.U. after   12 cycles
 E2(B2PLYPD3) =    -0.1808826813D+00 E(B2PLYPD3) =    -0.13271072312967D+03

 The electronic state is 1-A.
 Alpha  occ. eigenvalues --  -14.84458 -10.66504 -10.65987  -1.03886  -0.90248
 Alpha  occ. eigenvalues --   -0.61233  -0.54983  -0.53706  -0.44908  -0.39023
 Alpha  occ. eigenvalues --   -0.38751
 Alpha virt. eigenvalues --    0.03850   0.07739   0.08137   0.10151   0.11253
 Alpha virt. eigenvalues --    0.11609   0.15596   0.16160   0.16958   0.20104
 Alpha virt. eigenvalues --    0.20193   0.25675   0.32882   0.34503   0.35558

 Mulliken charges:
               1
     1  C   -0.062953
     2  C    0.004033
     3  N   -0.211011
     4  H    0.089455
     5  H    0.091730
     6  H    0.088746
 Sum of Mulliken charges =   0.00000

 Dipole moment (field-independent basis, Debye):
    X=              4.1559    Y=             -0.0187    Z=              0.0197  Tot=              4.1560
 Quadrupole moment (field-independent basis, Debye-Ang):
   XX=            -20.7487   YY=            -17.6757   ZZ=            -17.8847
   XY=             -0.0657   XZ=              0.0809   YZ=              0.0421

 Normal termination of Gaussian 09 at Wed Aug 26 15:45:01 2020.
