 Gaussian 09, Revision D.01,
 Gaussian 09:  ES64L-G09RevD.01 24-Apr-2013

 --------------------
 #p B2PLYPD3/Def2QZVP
 --------------------

 ------------
 cyanomethane
 ------------
 Symbolic Z-matrix:
 Charge =  0 Multiplicity = 1

                         Standard orientation:
 ---------------------------------------------------------------------
 Center     Atomic      Atomic             Coordinates (Angstroms)
 Number     Number       Type             X           Y           Z
 ---------------------------------------------------------------------
      1          6           0        1.182417    0.022543    0.011355
      2          6           0       -0.292817   -0.076125   -0.015981
      3          7           0       -1.413240    0.035786    0.015424
      4          1           0        1.630463   -0.214965    0.968289
      5          1           0        1.458213    1.035546   -0.330786
      6          1           0        1.466407   -0.749595   -0.717713
 ---------------------------------------------------------------------

 SCF Done:  E(RB2PLYPD3) =  -132.531273920     A.U. after   12 cycles
 E2(B2PLYPD3) =    -0.1784224770D+00 E(B2PLYPD3) =    -0.13270969639744D+03

 The electronic state is 1-A.
 Alpha  occ. eigenvalues --  -14.83295 -10.67417 -10.65320  -1.05169  -0.88687
 Alpha  occ. eigenvalues --   -0.58650  -0.54162  -0.53387  -0.44563  -0.39838
 Alpha  occ. eigenvalues --   -0.39560
 Alpha virt. eigenvalues --    0.03613   0.08209   0.08767   0.10176   0.11644
 Alpha virt. eigenvalues --    0.11696   0.15244   0.15337   0.17325   0.19879
 Alpha virt. eigenvalues --    0.20011   0.25503   0.32999   0.33974   0.34854

 Mulliken charges:
               1
     1  C   -0.105710
     2  C   -0.006252
     3  N   -0.190972
     4  H    0.100231
     5  H    0.105462
     6  H    0.097240
 Sum of Mulliken charges =   0.00000

 Dipole moment (field-independent basis, Debye):
    X=              4.0406    Y=             -0.0703    Z=             -0.0286  Tot=              4.0413
 Quadrupole moment (field-independent basis, Debye-Ang):
   XX=            -21.2120   YY=            -17.5268   ZZ=            -17.7027
   XY=              0.1436   XZ=              0.2270   YZ=             -0.0347

 Normal termination of Gaussian 09 at Wed Aug 26 21:51:15 2020.
