 Gaussian 09, Revision D.01,
 Gaussian 09:  ES64L-G09RevD.01 24-Apr-2013

 --------------------
 #p B2PLYPD3/Def2QZVP
 --------------------

 ------------
 cyanomethane
 ------------
 Symbolic Z-matrix:
 Charge =  0 Multiplicity = 1

                         Standard orientation:
 ---------------------------------------------------------------------
 Center     Atomic      Atomic             Coordinates (Angstroms)
 Number     Number       Type             X           Y           Z
 ---------------------------------------------------------------------
      1          6           0       -1.174046   -0.001162    0.026669
      2          6           0        0.305780    0.057981    0.011083
      3          7           0        1.440736   -0.018917   -0.006903
      4          1           0       -1.623865   -0.313096    0.963780
      5          1           0       -1.484394   -0.874335   -0.763563
      6          1           0       -1.767298    0.978931   -0.378411
 ---------------------------------------------------------------------

 SCF Done:  E(RB2PLYPD3) =  -132.515081849     A.U. after   12 cycles
 E2(B2PLYPD3) =    -0.1806089080D+00 E(B2PLYPD3) =    -0.13269569075704D+03

 The electronic state is 1-A.
 Alpha  occ. eigenvalues --  -14.84055 -10.69680 -10.66298  -1.04988  -0.86950
 Alpha  occ. eigenvalues --   -0.59632  -0.52320  -0.50302  -0.44985  -0.39757
 Alpha  occ. eigenvalues --   -0.39109
 Alpha virt. eigenvalues --    0.03069   0.06364   0.07530   0.10213   0.11547
 Alpha virt. eigenvalues --    0.12135   0.15086   0.16184   0.17723   0.19989
 Alpha virt. eigenvalues --    0.20015   0.25002   0.31043   0.31880   0.34536

 Mulliken charges:
               1
     1  C   -0.106763
     2  C    0.009215
     3  N   -0.192767
     4  H    0.105990
     5  H    0.091315
     6  H    0.093011
 Sum of Mulliken charges =   0.00000

 Dipole moment (field-independent basis, Debye):
    X=             -4.0789    Y=             -0.0162    Z=              0.0262  Tot=              4.0790
 Quadrupole moment (field-independent basis, Debye-Ang):
   XX=            -20.8523   YY=            -17.9271   ZZ=            -17.9596
   XY=              0.0400   XZ=             -0.0066   YZ=             -0.0914

 Normal termination of Gaussian 09 at Wed Aug 26 23:51:55 2020.
