 Gaussian 09, Revision D.01,
 Gaussian 09:  ES64L-G09RevD.01 24-Apr-2013

 --------------------
 #p B2PLYPD3/Def2QZVP
 --------------------

 ------------
 cyanomethane
 ------------
 Symbolic Z-matrix:
 Charge =  0 Multiplicity = 1

                         Standard orientation:
 ---------------------------------------------------------------------
 Center     Atomic      Atomic             Coordinates (Angstroms)
 Number     Number       Type             X           Y           Z
 ---------------------------------------------------------------------
      1          6           0       -1.178415   -0.014772    0.009283
      2          6           0        0.281936    0.013663    0.002734
      3          7           0        1.434924   -0.003635   -0.004244
      4          1           0       -1.522052   -0.399766    0.921669
      5          1           0       -1.559179   -0.606854   -0.832742
      6          1           0       -1.584358    1.038719   -0.131325
 ---------------------------------------------------------------------

 SCF Done:  E(RB2PLYPD3) =  -132.533245786     A.U. after   11 cycles
 E2(B2PLYPD3) =    -0.1804281568D+00 E(B2PLYPD3) =    -0.13271367394243D+03

 The electronic state is 1-A.
 Alpha  occ. eigenvalues --  -14.84174 -10.67296 -10.66245  -1.04176  -0.89083
 Alpha  occ. eigenvalues --   -0.59678  -0.54771  -0.52748  -0.44794  -0.39238
 Alpha  occ. eigenvalues --   -0.38961
 Alpha virt. eigenvalues --    0.03706   0.07528   0.08217   0.10179   0.11324
 Alpha virt. eigenvalues --    0.11632   0.15377   0.16233   0.16509   0.20043
 Alpha virt. eigenvalues --    0.20110   0.25299   0.32456   0.33963   0.35185

 Mulliken charges:
               1
     1  C   -0.085731
     2  C   -0.001203
     3  N   -0.205076
     4  H    0.102463
     5  H    0.097395
     6  H    0.092153
 Sum of Mulliken charges =   0.00000

 Dipole moment (field-independent basis, Debye):
    X=             -4.1223    Y=             -0.0026    Z=              0.0060  Tot=              4.1223
 Quadrupole moment (field-independent basis, Debye-Ang):
   XX=            -21.0069   YY=            -17.8000   ZZ=            -17.7186
   XY=             -0.0006   XZ=              0.0589   YZ=             -0.0264

 Normal termination of Gaussian 09 at Thu Aug 27 00:05:30 2020.
