 Gaussian 09, Revision D.01,
 Gaussian 09:  ES64L-G09RevD.01 24-Apr-2013

 --------------------
 #p B2PLYPD3/Def2QZVP
 --------------------

 ------------
 cyanomethane
 ------------
 Symbolic Z-matrix:
 Charge =  0 Multiplicity = 1

                         Standard orientation:
 ---------------------------------------------------------------------
 Center     Atomic      Atomic             Coordinates (Angstroms)
 Number     Number       Type             X           Y           Z
 ---------------------------------------------------------------------
      1          6           0        1.200839    0.018317   -0.018550
      2          6           0       -0.276488    0.021057    0.011590
      3          7           0       -1.449031   -0.006116   -0.001599
      4          1           0        1.552412   -0.256549    0.962907
      5          1           0        1.606154    0.885419   -0.293213
      6          1           0        1.438543   -0.822305   -0.616748
 ---------------------------------------------------------------------

 SCF Done:  E(RB2PLYPD3) =  -132.524848907     A.U. after   12 cycles
 E2(B2PLYPD3) =    -0.1816579374D+00 E(B2PLYPD3) =    -0.13270650684413D+03

 The electronic state is 1-A.
 Alpha  occ. eigenvalues --  -14.84656 -10.66847 -10.66073  -1.03320  -0.90164
 Alpha  occ. eigenvalues --   -0.60224  -0.56468  -0.53422  -0.44751  -0.38954
 Alpha  occ. eigenvalues --   -0.38499
 Alpha virt. eigenvalues --    0.03874   0.07984   0.08419   0.10189   0.10819
 Alpha virt. eigenvalues --    0.11422   0.15100   0.15648   0.16875   0.20095
 Alpha virt. eigenvalues --    0.20279   0.24899   0.32436   0.34249   0.35941

 Mulliken charges:
               1
     1  C   -0.073744
     2  C    0.001371
     3  N   -0.216430
     4  H    0.088575
     5  H    0.101640
     6  H    0.098589
 Sum of Mulliken charges =   0.00000

 Dipole moment (field-independent basis, Debye):
    X=              4.1855    Y=             -0.0290    Z=              0.0231  Tot=              4.1857
 Quadrupole moment (field-independent basis, Debye-Ang):
   XX=            -20.9452   YY=            -17.5887   ZZ=            -17.9489
   XY=              0.0044   XZ=              0.0966   YZ=             -0.0225

 Normal termination of Gaussian 09 at Wed Aug 26 23:33:33 2020.
