 Gaussian 09, Revision D.01,
 Gaussian 09:  ES64L-G09RevD.01 24-Apr-2013

 --------------------
 #p B2PLYPD3/Def2QZVP
 --------------------

 ------------
 cyanomethane
 ------------
 Symbolic Z-matrix:
 Charge =  0 Multiplicity = 1

                         Standard orientation:
 ---------------------------------------------------------------------
 Center     Atomic      Atomic             Coordinates (Angstroms)
 Number     Number       Type             X           Y           Z
 ---------------------------------------------------------------------
      1          6           0        1.172754    0.013251   -0.014718
      2          6           0       -0.277845   -0.065116    0.001126
      3          7           0       -1.411686    0.022570    0.012083
      4          1           0        1.665460    0.039374    0.954856
      5          1           0        1.313921    0.999071   -0.470122
      6          1           0        1.532962   -0.885242   -0.487765
 ---------------------------------------------------------------------

 SCF Done:  E(RB2PLYPD3) =  -132.528808726     A.U. after   12 cycles
 E2(B2PLYPD3) =    -0.1792329472D+00 E(B2PLYPD3) =    -0.13270804167277D+03

 The electronic state is 1-A.
 Alpha  occ. eigenvalues --  -14.83497 -10.66975 -10.65541  -1.04758  -0.89499
 Alpha  occ. eigenvalues --   -0.59521  -0.55957  -0.52193  -0.44551  -0.39452
 Alpha  occ. eigenvalues --   -0.39086
 Alpha virt. eigenvalues --    0.03714   0.07733   0.08675   0.10277   0.11515
 Alpha virt. eigenvalues --    0.12038   0.15049   0.15828   0.16751   0.19901
 Alpha virt. eigenvalues --    0.20140   0.25685   0.33011   0.33615   0.35152

 Mulliken charges:
               1
     1  C   -0.097301
     2  C   -0.003597
     3  N   -0.199985
     4  H    0.090114
     5  H    0.109426
     6  H    0.101343
 Sum of Mulliken charges =   0.00000

 Dipole moment (field-independent basis, Debye):
    X=              4.0729    Y=             -0.0278    Z=              0.0262  Tot=              4.0731
 Quadrupole moment (field-independent basis, Debye-Ang):
   XX=            -21.1796   YY=            -17.2901   ZZ=            -17.9959
   XY=             -0.0571   XZ=              0.3721   YZ=             -0.0004

 Normal termination of Gaussian 09 at Wed Aug 26 21:42:07 2020.
