 Gaussian 09, Revision D.01,
 Gaussian 09:  ES64L-G09RevD.01 24-Apr-2013

 --------------------
 #p B2PLYPD3/Def2QZVP
 --------------------

 ------------
 cyanomethane
 ------------
 Symbolic Z-matrix:
 Charge =  0 Multiplicity = 1

                         Standard orientation:
 ---------------------------------------------------------------------
 Center     Atomic      Atomic             Coordinates (Angstroms)
 Number     Number       Type             X           Y           Z
 ---------------------------------------------------------------------
      1          6           0        1.165106    0.008758   -0.003608
      2          6           0       -0.285645   -0.037842    0.004038
      3          7           0       -1.431704    0.014155    0.003357
      4          1           0        1.656428   -0.044049    1.001901
      5          1           0        1.491461    0.964711   -0.455251
      6          1           0        1.597270   -0.845243   -0.572726
 ---------------------------------------------------------------------

 SCF Done:  E(RB2PLYPD3) =  -132.533219627     A.U. after   12 cycles
 E2(B2PLYPD3) =    -0.1802778520D+00 E(B2PLYPD3) =    -0.13271349747882D+03

 The electronic state is 1-A.
 Alpha  occ. eigenvalues --  -14.84120 -10.67720 -10.66176  -1.04517  -0.88665
 Alpha  occ. eigenvalues --   -0.60136  -0.53630  -0.52391  -0.44904  -0.39258
 Alpha  occ. eigenvalues --   -0.39155
 Alpha virt. eigenvalues --    0.03622   0.07357   0.07745   0.10174   0.11596
 Alpha virt. eigenvalues --    0.11768   0.15419   0.16432   0.16901   0.19978
 Alpha virt. eigenvalues --    0.20100   0.25577   0.32632   0.34230   0.34471

 Mulliken charges:
               1
     1  C   -0.083411
     2  C    0.001877
     3  N   -0.200911
     4  H    0.090811
     5  H    0.098290
     6  H    0.093344
 Sum of Mulliken charges =   0.00000

 Dipole moment (field-independent basis, Debye):
    X=              4.1109    Y=             -0.0153    Z=             -0.0006  Tot=              4.1109
 Quadrupole moment (field-independent basis, Debye-Ang):
   XX=            -20.8438   YY=            -17.7183   ZZ=            -17.9282
   XY=              0.0088   XZ=              0.1176   YZ=             -0.0106

 Normal termination of Gaussian 09 at Wed Aug 26 11:04:23 2020.
