 Gaussian 09, Revision D.01,
 Gaussian 09:  ES64L-G09RevD.01 24-Apr-2013

 --------------------
 #p B2PLYPD3/Def2QZVP
 --------------------

 ------------
 cyanomethane
 ------------
 Symbolic Z-matrix:
 Charge =  0 Multiplicity = 1

                         Standard orientation:
 ---------------------------------------------------------------------
 Center     Atomic      Atomic             Coordinates (Angstroms)
 Number     Number       Type             X           Y           Z
 ---------------------------------------------------------------------
      1          6           0        1.179520    0.017543   -0.009320
      2          6           0       -0.262268    0.032374    0.021980
      3          7           0       -1.424731   -0.012275   -0.007239
      4          1           0        1.520485   -0.257743    0.918911
      5          1           0        1.552377    0.864673   -0.321503
      6          1           0        1.396744   -0.820507   -0.622697
 ---------------------------------------------------------------------

 SCF Done:  E(RB2PLYPD3) =  -132.520792030     A.U. after   12 cycles
 E2(B2PLYPD3) =    -0.1805471388D+00 E(B2PLYPD3) =    -0.13270133916873D+03

 The electronic state is 1-A.
 Alpha  occ. eigenvalues --  -14.84213 -10.66260 -10.64938  -1.03738  -0.91353
 Alpha  occ. eigenvalues --   -0.60469  -0.57523  -0.54424  -0.44652  -0.39028
 Alpha  occ. eigenvalues --   -0.38527
 Alpha virt. eigenvalues --    0.03979   0.08452   0.08817   0.10208   0.10920
 Alpha virt. eigenvalues --    0.11642   0.15322   0.15769   0.16586   0.20086
 Alpha virt. eigenvalues --    0.20290   0.25611   0.33163   0.34455   0.36274

 Mulliken charges:
               1
     1  C   -0.071760
     2  C   -0.000512
     3  N   -0.215022
     4  H    0.090971
     5  H    0.100617
     6  H    0.095706
 Sum of Mulliken charges =   0.00000

 Dipole moment (field-independent basis, Debye):
    X=              4.1498    Y=             -0.0284    Z=              0.0247  Tot=              4.1500
 Quadrupole moment (field-independent basis, Debye-Ang):
   XX=            -21.0108   YY=            -17.4691   ZZ=            -17.7872
   XY=             -0.0501   XZ=              0.0572   YZ=             -0.0644

 Normal termination of Gaussian 09 at Wed Aug 26 22:46:17 2020.
