 Gaussian 09, Revision D.01,
 Gaussian 09:  ES64L-G09RevD.01 24-Apr-2013

 --------------------
 #p B2PLYPD3/Def2QZVP
 --------------------

 ------------
 cyanomethane
 ------------
 Symbolic Z-matrix:
 Charge =  0 Multiplicity = 1

                         Standard orientation:
 ---------------------------------------------------------------------
 Center     Atomic      Atomic             Coordinates (Angstroms)
 Number     Number       Type             X           Y           Z
 ---------------------------------------------------------------------
      1          6           0        1.159656   -0.013300   -0.003871
      2          6           0       -0.273724    0.034474    0.010861
      3          7           0       -1.432165   -0.012735   -0.004314
      4          1           0        1.615926    0.987506   -0.292121
      5          1           0        1.523345   -0.765437   -0.709083
      6          1           0        1.570292   -0.259966    0.989462
 ---------------------------------------------------------------------

 SCF Done:  E(RB2PLYPD3) =  -132.532760380     A.U. after   11 cycles
 E2(B2PLYPD3) =    -0.1812629486D+00 E(B2PLYPD3) =    -0.13271402332858D+03

 The electronic state is 1-A.
 Alpha  occ. eigenvalues --  -14.84414 -10.67514 -10.66408  -1.04042  -0.89114
 Alpha  occ. eigenvalues --   -0.60346  -0.53751  -0.52864  -0.44937  -0.38884
 Alpha  occ. eigenvalues --   -0.38772
 Alpha virt. eigenvalues --    0.03648   0.07172   0.07439   0.10094   0.11587
 Alpha virt. eigenvalues --    0.11623   0.15553   0.16367   0.16627   0.20086
 Alpha virt. eigenvalues --    0.20125   0.25852   0.32575   0.34158   0.34628

 Mulliken charges:
               1
     1  C   -0.081924
     2  C    0.003162
     3  N   -0.207436
     4  H    0.091742
     5  H    0.099303
     6  H    0.095153
 Sum of Mulliken charges =   0.00000

 Dipole moment (field-independent basis, Debye):
    X=              4.1205    Y=              0.0025    Z=              0.0123  Tot=              4.1205
 Quadrupole moment (field-independent basis, Debye-Ang):
   XX=            -20.9136   YY=            -17.7987   ZZ=            -17.8421
   XY=             -0.0350   XZ=              0.0096   YZ=              0.0311

 Normal termination of Gaussian 09 at Wed Aug 26 12:43:48 2020.
