 Gaussian 09, Revision D.01,
 Gaussian 09:  ES64L-G09RevD.01 24-Apr-2013

 --------------------
 #p B2PLYPD3/Def2QZVP
 --------------------

 ------------
 cyanomethane
 ------------
 Symbolic Z-matrix:
 Charge =  0 Multiplicity = 1

                         Standard orientation:
 ---------------------------------------------------------------------
 Center     Atomic      Atomic             Coordinates (Angstroms)
 Number     Number       Type             X           Y           Z
 ---------------------------------------------------------------------
      1          6           0       -1.182489   -0.008379   -0.012764
      2          6           0        0.289975    0.025443    0.009451
      3          7           0        1.438820   -0.012633   -0.006004
      4          1           0       -1.595301   -0.767128   -0.671525
      5          1           0       -1.581158    0.982569   -0.288386
      6          1           0       -1.540194   -0.229398    1.021817
 ---------------------------------------------------------------------

 SCF Done:  E(RB2PLYPD3) =  -132.534392383     A.U. after   12 cycles
 E2(B2PLYPD3) =    -0.1802736280D+00 E(B2PLYPD3) =    -0.13271466601076D+03

 The electronic state is 1-A.
 Alpha  occ. eigenvalues --  -14.84150 -10.67641 -10.66270  -1.04330  -0.88584
 Alpha  occ. eigenvalues --   -0.59631  -0.53717  -0.52941  -0.44827  -0.39348
 Alpha  occ. eigenvalues --   -0.39155
 Alpha virt. eigenvalues --    0.03667   0.07746   0.07943   0.10170   0.11407
 Alpha virt. eigenvalues --    0.11584   0.15319   0.16019   0.17004   0.20028
 Alpha virt. eigenvalues --    0.20077   0.25142   0.32514   0.34009   0.34926

 Mulliken charges:
               1
     1  C   -0.085914
     2  C   -0.000432
     3  N   -0.202361
     4  H    0.099341
     5  H    0.095763
     6  H    0.093605
 Sum of Mulliken charges =   0.00000

 Dipole moment (field-independent basis, Debye):
    X=             -4.1237    Y=              0.0160    Z=              0.0196  Tot=              4.1237
 Quadrupole moment (field-independent basis, Debye-Ang):
   XX=            -20.9386   YY=            -17.7549   ZZ=            -17.8358
   XY=              0.0778   XZ=              0.0450   YZ=              0.0258

 Normal termination of Gaussian 09 at Wed Aug 26 15:05:45 2020.
