 Gaussian 09, Revision D.01,
 Gaussian 09:  ES64L-G09RevD.01 24-Apr-2013

 --------------------
 #p B2PLYPD3/Def2QZVP
 --------------------

 ------------
 cyanomethane
 ------------
 Symbolic Z-matrix:
 Charge =  0 Multiplicity = 1

                         Standard orientation:
 ---------------------------------------------------------------------
 Center     Atomic      Atomic             Coordinates (Angstroms)
 Number     Number       Type             X           Y           Z
 ---------------------------------------------------------------------
      1          6           0       -1.189100    0.032441    0.012514
      2          6           0        0.277234    0.043041   -0.021943
      3          7           0        1.450461   -0.040164    0.006994
      4          1           0       -1.383501    0.982681   -0.171881
      5          1           0       -1.580503   -0.408231    0.911448
      6          1           0       -1.718024   -0.746196   -0.731956
 ---------------------------------------------------------------------

 SCF Done:  E(RB2PLYPD3) =  -132.509224366     A.U. after   12 cycles
 E2(B2PLYPD3) =    -0.1829640409D+00 E(B2PLYPD3) =    -0.13269218840652D+03

 The electronic state is 1-A.
 Alpha  occ. eigenvalues --  -14.84922 -10.67191 -10.67011  -1.03322  -0.89667
 Alpha  occ. eigenvalues --   -0.60202  -0.57160  -0.50406  -0.44909  -0.38883
 Alpha  occ. eigenvalues --   -0.38165
 Alpha virt. eigenvalues --    0.03256   0.06216   0.08693   0.09889   0.10645
 Alpha virt. eigenvalues --    0.11850   0.14926   0.16240   0.16806   0.19900
 Alpha virt. eigenvalues --    0.20439   0.25211   0.31312   0.33456   0.35907

 Mulliken charges:
               1
     1  C   -0.082295
     2  C    0.002464
     3  N   -0.215117
     4  H    0.113587
     5  H    0.097073
     6  H    0.084288
 Sum of Mulliken charges =   0.00000

 Dipole moment (field-independent basis, Debye):
    X=             -4.1517    Y=              0.0088    Z=              0.0441  Tot=              4.1520
 Quadrupole moment (field-independent basis, Debye-Ang):
   XX=            -20.9208   YY=            -17.5343   ZZ=            -18.2312
   XY=              0.5788   XZ=             -0.1010   YZ=             -0.1583

 Normal termination of Gaussian 09 at Wed Aug 26 16:31:34 2020.
