 Gaussian 09, Revision D.01,
 Gaussian 09:  ES64L-G09RevD.01 24-Apr-2013

 --------------------
 #p B2PLYPD3/Def2QZVP
 --------------------

 ------------
 cyanomethane
 ------------
 Symbolic Z-matrix:
 Charge =  0 Multiplicity = 1

                         Standard orientation:
 ---------------------------------------------------------------------
 Center     Atomic      Atomic             Coordinates (Angstroms)
 Number     Number       Type             X           Y           Z
 ---------------------------------------------------------------------
      1          6           0       -1.154703   -0.014751   -0.000100
      2          6           0        0.290014    0.009023   -0.037254
      3          7           0        1.429806    0.008028    0.023353
      4          1           0       -1.622738   -0.232794    1.024828
      5          1           0       -1.469019   -0.813575   -0.667588
      6          1           0       -1.728753    1.024536   -0.296587
 ---------------------------------------------------------------------

 SCF Done:  E(RB2PLYPD3) =  -132.520676016     A.U. after   12 cycles
 E2(B2PLYPD3) =    -0.1805695913D+00 E(B2PLYPD3) =    -0.13270124560771D+03

 The electronic state is 1-A.
 Alpha  occ. eigenvalues --  -14.84082 -10.68713 -10.66114  -1.04864  -0.88107
 Alpha  occ. eigenvalues --   -0.59930  -0.53556  -0.50622  -0.45001  -0.39422
 Alpha  occ. eigenvalues --   -0.39028
 Alpha virt. eigenvalues --    0.03258   0.06129   0.07842   0.10128   0.11643
 Alpha virt. eigenvalues --    0.12140   0.15429   0.16373   0.17347   0.19884
 Alpha virt. eigenvalues --    0.20202   0.25683   0.31391   0.33510   0.34411

 Mulliken charges:
               1
     1  C   -0.092452
     2  C    0.004003
     3  N   -0.195600
     4  H    0.093534
     5  H    0.102117
     6  H    0.088398
 Sum of Mulliken charges =   0.00000

 Dipole moment (field-independent basis, Debye):
    X=             -4.0756    Y=             -0.0570    Z=             -0.0109  Tot=              4.0761
 Quadrupole moment (field-independent basis, Debye-Ang):
   XX=            -20.8242   YY=            -17.7976   ZZ=            -17.9789
   XY=             -0.1383   XZ=             -0.2685   YZ=              0.1118

 Normal termination of Gaussian 09 at Wed Aug 26 19:15:11 2020.
