 Gaussian 09, Revision D.01,
 Gaussian 09:  ES64L-G09RevD.01 24-Apr-2013

 --------------------
 #p B2PLYPD3/Def2QZVP
 --------------------

 ------------
 cyanomethane
 ------------
 Symbolic Z-matrix:
 Charge =  0 Multiplicity = 1

                         Standard orientation:
 ---------------------------------------------------------------------
 Center     Atomic      Atomic             Coordinates (Angstroms)
 Number     Number       Type             X           Y           Z
 ---------------------------------------------------------------------
      1          6           0        1.176562   -0.017104   -0.003971
      2          6           0       -0.267660   -0.008160   -0.030672
      3          7           0       -1.427142    0.003505    0.010507
      4          1           0        1.504886    0.996134   -0.238528
      5          1           0        1.593369   -0.686128   -0.603484
      6          1           0        1.438320   -0.182959    0.976326
 ---------------------------------------------------------------------

 SCF Done:  E(RB2PLYPD3) =  -132.525311496     A.U. after   12 cycles
 E2(B2PLYPD3) =    -0.1803704293D+00 E(B2PLYPD3) =    -0.13270568192532D+03

 The electronic state is 1-A.
 Alpha  occ. eigenvalues --  -14.84210 -10.66258 -10.65379  -1.03892  -0.90871
 Alpha  occ. eigenvalues --   -0.60660  -0.56364  -0.54288  -0.44721  -0.39087
 Alpha  occ. eigenvalues --   -0.38716
 Alpha virt. eigenvalues --    0.03945   0.08219   0.08685   0.10199   0.11112
 Alpha virt. eigenvalues --    0.11596   0.15562   0.15742   0.16706   0.20092
 Alpha virt. eigenvalues --    0.20230   0.25574   0.32959   0.34532   0.35956

 Mulliken charges:
               1
     1  C   -0.071309
     2  C    0.000244
     3  N   -0.212083
     4  H    0.091359
     5  H    0.096540
     6  H    0.095248
 Sum of Mulliken charges =   0.00000

 Dipole moment (field-independent basis, Debye):
    X=              4.1447    Y=              0.0006    Z=              0.0190  Tot=              4.1448
 Quadrupole moment (field-independent basis, Debye-Ang):
   XX=            -20.9445   YY=            -17.6198   ZZ=            -17.7153
   XY=             -0.0130   XZ=              0.0293   YZ=              0.0606

 Normal termination of Gaussian 09 at Wed Aug 26 12:50:53 2020.
