 Gaussian 09, Revision D.01,
 Gaussian 09:  ES64L-G09RevD.01 24-Apr-2013

 --------------------
 #p B2PLYPD3/Def2QZVP
 --------------------

 ------------
 cyanomethane
 ------------
 Symbolic Z-matrix:
 Charge =  0 Multiplicity = 1

                         Standard orientation:
 ---------------------------------------------------------------------
 Center     Atomic      Atomic             Coordinates (Angstroms)
 Number     Number       Type             X           Y           Z
 ---------------------------------------------------------------------
      1          6           0        1.170373   -0.005834   -0.016048
      2          6           0       -0.277780   -0.003376   -0.026448
      3          7           0       -1.426337    0.000286    0.022373
      4          1           0        1.638290   -0.026262    1.023092
      5          1           0        1.474433    0.944742   -0.427831
      6          1           0        1.516081   -0.865217   -0.496888
 ---------------------------------------------------------------------

 SCF Done:  E(RB2PLYPD3) =  -132.530359914     A.U. after   12 cycles
 E2(B2PLYPD3) =    -0.1801545646D+00 E(B2PLYPD3) =    -0.13271051447855D+03

 The electronic state is 1-A.
 Alpha  occ. eigenvalues --  -14.84026 -10.66939 -10.66035  -1.04338  -0.89517
 Alpha  occ. eigenvalues --   -0.59848  -0.55969  -0.52066  -0.44768  -0.39333
 Alpha  occ. eigenvalues --   -0.38849
 Alpha virt. eigenvalues --    0.03668   0.07316   0.08618   0.10167   0.11254
 Alpha virt. eigenvalues --    0.11868   0.15429   0.16083   0.16762   0.19977
 Alpha virt. eigenvalues --    0.20183   0.25530   0.32742   0.33771   0.35536

 Mulliken charges:
               1
     1  C   -0.083689
     2  C   -0.001688
     3  N   -0.204015
     4  H    0.086348
     5  H    0.100524
     6  H    0.102520
 Sum of Mulliken charges =   0.00000

 Dipole moment (field-independent basis, Debye):
    X=              4.1100    Y=              0.0047    Z=             -0.0193  Tot=              4.1101
 Quadrupole moment (field-independent basis, Debye-Ang):
   XX=            -20.9974   YY=            -17.5109   ZZ=            -17.9492
   XY=             -0.0265   XZ=              0.2854   YZ=              0.0345

 Normal termination of Gaussian 09 at Wed Aug 26 12:45:44 2020.
