 Gaussian 09, Revision D.01,
 Gaussian 09:  ES64L-G09RevD.01 24-Apr-2013

 --------------------
 #p B2PLYPD3/Def2QZVP
 --------------------

 ------------
 cyanomethane
 ------------
 Symbolic Z-matrix:
 Charge =  0 Multiplicity = 1

                         Standard orientation:
 ---------------------------------------------------------------------
 Center     Atomic      Atomic             Coordinates (Angstroms)
 Number     Number       Type             X           Y           Z
 ---------------------------------------------------------------------
      1          6           0       -1.194364   -0.019351   -0.010132
      2          6           0        0.283058    0.036501    0.022541
      3          7           0        1.437028   -0.020405   -0.012379
      4          1           0       -1.572411   -0.614150   -0.821673
      5          1           0       -1.491352    1.050641   -0.125647
      6          1           0       -1.527593   -0.396553    0.959522
 ---------------------------------------------------------------------

 SCF Done:  E(RB2PLYPD3) =  -132.532599829     A.U. after   12 cycles
 E2(B2PLYPD3) =    -0.1807571323D+00 E(B2PLYPD3) =    -0.13271335696158D+03

 The electronic state is 1-A.
 Alpha  occ. eigenvalues --  -14.84165 -10.67554 -10.66279  -1.03966  -0.88837
 Alpha  occ. eigenvalues --   -0.58933  -0.54284  -0.53539  -0.44666  -0.39135
 Alpha  occ. eigenvalues --   -0.38905
 Alpha virt. eigenvalues --    0.03669   0.07810   0.08230   0.10099   0.11294
 Alpha virt. eigenvalues --    0.11397   0.15200   0.15383   0.16803   0.20080
 Alpha virt. eigenvalues --    0.20117   0.25104   0.32445   0.33851   0.34969

 Mulliken charges:
               1
     1  C   -0.098587
     2  C   -0.001480
     3  N   -0.207229
     4  H    0.105438
     5  H    0.099324
     6  H    0.102535
 Sum of Mulliken charges =   0.00000

 Dipole moment (field-independent basis, Debye):
    X=             -4.1133    Y=              0.0313    Z=              0.0195  Tot=              4.1134
 Quadrupole moment (field-independent basis, Debye-Ang):
   XX=            -21.2294   YY=            -17.7309   ZZ=            -17.7080
   XY=              0.1608   XZ=              0.0879   YZ=              0.0187

 Normal termination of Gaussian 09 at Wed Aug 26 10:56:41 2020.
