 Gaussian 09, Revision D.01,
 Gaussian 09:  ES64L-G09RevD.01 24-Apr-2013

 --------------------
 #p B2PLYPD3/Def2QZVP
 --------------------

 ------------
 cyanomethane
 ------------
 Symbolic Z-matrix:
 Charge =  0 Multiplicity = 1

                         Standard orientation:
 ---------------------------------------------------------------------
 Center     Atomic      Atomic             Coordinates (Angstroms)
 Number     Number       Type             X           Y           Z
 ---------------------------------------------------------------------
      1          6           0       -1.176928    0.000552   -0.002268
      2          6           0        0.272306   -0.024834   -0.004371
      3          7           0        1.430776    0.014515   -0.000557
      4          1           0       -1.531255   -0.880676   -0.498979
      5          1           0       -1.568522    0.911397   -0.498071
      6          1           0       -1.487922    0.013369    1.040780
 ---------------------------------------------------------------------

 SCF Done:  E(RB2PLYPD3) =  -132.534284979     A.U. after   12 cycles
 E2(B2PLYPD3) =    -0.1808621860D+00 E(B2PLYPD3) =    -0.13271514716500D+03

 The electronic state is 1-A.
 Alpha  occ. eigenvalues --  -14.84225 -10.67083 -10.66261  -1.03906  -0.89464
 Alpha  occ. eigenvalues --   -0.59432  -0.54722  -0.53694  -0.44729  -0.38917
 Alpha  occ. eigenvalues --   -0.38798
 Alpha virt. eigenvalues --    0.03730   0.07607   0.08181   0.10148   0.11323
 Alpha virt. eigenvalues --    0.11536   0.15414   0.15798   0.16469   0.20095
 Alpha virt. eigenvalues --    0.20165   0.25490   0.32774   0.34278   0.34780

 Mulliken charges:
               1
     1  C   -0.090261
     2  C   -0.001416
     3  N   -0.209354
     4  H    0.101622
     5  H    0.098939
     6  H    0.100469
 Sum of Mulliken charges =   0.00000

 Dipole moment (field-independent basis, Debye):
    X=             -4.1211    Y=             -0.0207    Z=              0.0113  Tot=              4.1212
 Quadrupole moment (field-independent basis, Debye-Ang):
   XX=            -21.1448   YY=            -17.6960   ZZ=            -17.7360
   XY=             -0.1060   XZ=              0.0338   YZ=              0.0290

 Normal termination of Gaussian 09 at Wed Aug 26 14:57:34 2020.
