 Gaussian 09, Revision D.01,
 Gaussian 09:  ES64L-G09RevD.01 24-Apr-2013

 --------------------
 #p B2PLYPD3/Def2QZVP
 --------------------

 ------------
 cyanomethane
 ------------
 Symbolic Z-matrix:
 Charge =  0 Multiplicity = 1

                         Standard orientation:
 ---------------------------------------------------------------------
 Center     Atomic      Atomic             Coordinates (Angstroms)
 Number     Number       Type             X           Y           Z
 ---------------------------------------------------------------------
      1          6           0       -1.186653    0.010128    0.013858
      2          6           0        0.270735    0.008135   -0.043924
      3          7           0        1.441848   -0.006883    0.018207
      4          1           0       -1.575844   -0.874093   -0.515437
      5          1           0       -1.533412    0.875974   -0.439069
      6          1           0       -1.488174   -0.063276    1.007452
 ---------------------------------------------------------------------

 SCF Done:  E(RB2PLYPD3) =  -132.530158055     A.U. after   11 cycles
 E2(B2PLYPD3) =    -0.1817391031D+00 E(B2PLYPD3) =    -0.13271189715835D+03

 The electronic state is 1-A.
 Alpha  occ. eigenvalues --  -14.84664 -10.66734 -10.66302  -1.03384  -0.90015
 Alpha  occ. eigenvalues --   -0.59898  -0.55780  -0.53862  -0.44803  -0.38766
 Alpha  occ. eigenvalues --   -0.38568
 Alpha virt. eigenvalues --    0.03827   0.07627   0.08219   0.10145   0.11014
 Alpha virt. eigenvalues --    0.11350   0.15398   0.16022   0.16259   0.20128
 Alpha virt. eigenvalues --    0.20213   0.25416   0.32563   0.34554   0.35509

 Mulliken charges:
               1
     1  C   -0.076200
     2  C    0.000477
     3  N   -0.215758
     4  H    0.092089
     5  H    0.099424
     6  H    0.099967
 Sum of Mulliken charges =   0.00000

 Dipole moment (field-independent basis, Debye):
    X=             -4.1549    Y=              0.0061    Z=             -0.0103  Tot=              4.1549
 Quadrupole moment (field-independent basis, Debye-Ang):
   XX=            -21.0065   YY=            -17.7348   ZZ=            -17.7745
   XY=              0.0727   XZ=             -0.0614   YZ=             -0.0560

 Normal termination of Gaussian 09 at Wed Aug 26 11:52:23 2020.
