 Gaussian 09, Revision D.01,
 Gaussian 09:  ES64L-G09RevD.01 24-Apr-2013

 --------------------
 #p B2PLYPD3/Def2QZVP
 --------------------

 ------------
 cyanomethane
 ------------
 Symbolic Z-matrix:
 Charge =  0 Multiplicity = 1

                         Standard orientation:
 ---------------------------------------------------------------------
 Center     Atomic      Atomic             Coordinates (Angstroms)
 Number     Number       Type             X           Y           Z
 ---------------------------------------------------------------------
      1          6           0        1.163948   -0.016580   -0.014500
      2          6           0       -0.279974   -0.048552    0.002541
      3          7           0       -1.428499    0.034161   -0.005283
      4          1           0        1.678454    1.007484   -0.287864
      5          1           0        1.549017   -0.725947   -0.573908
      6          1           0        1.468173   -0.129878    0.970504
 ---------------------------------------------------------------------

 SCF Done:  E(RB2PLYPD3) =  -132.518132284     A.U. after   12 cycles
 E2(B2PLYPD3) =    -0.1802376972D+00 E(B2PLYPD3) =    -0.13269836998152D+03

 The electronic state is 1-A.
 Alpha  occ. eigenvalues --  -14.84234 -10.66232 -10.66096  -1.04388  -0.90241
 Alpha  occ. eigenvalues --   -0.60971  -0.56386  -0.51873  -0.44936  -0.39465
 Alpha  occ. eigenvalues --   -0.38851
 Alpha virt. eigenvalues --    0.03386   0.07264   0.09050   0.10128   0.11118
 Alpha virt. eigenvalues --    0.11875   0.15685   0.15770   0.17654   0.19992
 Alpha virt. eigenvalues --    0.20305   0.25724   0.32332   0.33991   0.35912

 Mulliken charges:
               1
     1  C   -0.070671
     2  C    0.002995
     3  N   -0.204248
     4  H    0.083600
     5  H    0.097990
     6  H    0.090335
 Sum of Mulliken charges =   0.00000

 Dipole moment (field-independent basis, Debye):
    X=              4.1198    Y=             -0.0795    Z=              0.0725  Tot=              4.1212
 Quadrupole moment (field-independent basis, Debye-Ang):
   XX=            -20.6830   YY=            -17.7106   ZZ=            -17.8464
   XY=              0.2474   XZ=              0.0238   YZ=              0.1347

 Normal termination of Gaussian 09 at Wed Aug 26 22:03:48 2020.
