 Gaussian 09, Revision D.01,
 Gaussian 09:  ES64L-G09RevD.01 24-Apr-2013

 --------------------
 #p B2PLYPD3/Def2QZVP
 --------------------

 ------------
 cyanomethane
 ------------
 Symbolic Z-matrix:
 Charge =  0 Multiplicity = 1

                         Standard orientation:
 ---------------------------------------------------------------------
 Center     Atomic      Atomic             Coordinates (Angstroms)
 Number     Number       Type             X           Y           Z
 ---------------------------------------------------------------------
      1          6           0       -1.172426    0.015747    0.000951
      2          6           0        0.267119   -0.011346    0.031875
      3          7           0        1.427471    0.006586   -0.017782
      4          1           0       -1.499489   -0.228437    0.967751
      5          1           0       -1.507900   -0.824246   -0.689184
      6          1           0       -1.553062    0.980178   -0.351046
 ---------------------------------------------------------------------

 SCF Done:  E(RB2PLYPD3) =  -132.531213608     A.U. after   12 cycles
 E2(B2PLYPD3) =    -0.1811732535D+00 E(B2PLYPD3) =    -0.13271238686197D+03

 The electronic state is 1-A.
 Alpha  occ. eigenvalues --  -14.84251 -10.67122 -10.66259  -1.03823  -0.89629
 Alpha  occ. eigenvalues --   -0.59440  -0.55179  -0.53304  -0.44723  -0.38866
 Alpha  occ. eigenvalues --   -0.38566
 Alpha virt. eigenvalues --    0.03642   0.07347   0.08246   0.10100   0.11277
 Alpha virt. eigenvalues --    0.11642   0.15412   0.15540   0.16623   0.20099
 Alpha virt. eigenvalues --    0.20203   0.25679   0.32668   0.33757   0.35018

 Mulliken charges:
               1
     1  C   -0.094252
     2  C    0.000314
     3  N   -0.211144
     4  H    0.102688
     5  H    0.097146
     6  H    0.105248
 Sum of Mulliken charges =   0.00000

 Dipole moment (field-independent basis, Debye):
    X=             -4.1139    Y=             -0.0245    Z=              0.0400  Tot=              4.1141
 Quadrupole moment (field-independent basis, Debye-Ang):
   XX=            -21.2119   YY=            -17.6169   ZZ=            -17.7899
   XY=             -0.0323   XZ=              0.0766   YZ=             -0.0639

 Normal termination of Gaussian 09 at Wed Aug 26 12:15:15 2020.
