 Gaussian 09, Revision D.01,
 Gaussian 09:  ES64L-G09RevD.01 24-Apr-2013

 --------------------
 #p B2PLYPD3/Def2QZVP
 --------------------

 ------------
 cyanomethane
 ------------
 Symbolic Z-matrix:
 Charge =  0 Multiplicity = 1

                         Standard orientation:
 ---------------------------------------------------------------------
 Center     Atomic      Atomic             Coordinates (Angstroms)
 Number     Number       Type             X           Y           Z
 ---------------------------------------------------------------------
      1          6           0        1.173950    0.003600   -0.000356
      2          6           0       -0.277273   -0.007612   -0.011085
      3          7           0       -1.439606    0.007269    0.007111
      4          1           0        1.519454   -0.682227   -0.750292
      5          1           0        1.565960   -0.337695    0.959259
      6          1           0        1.611767    0.993110   -0.190103
 ---------------------------------------------------------------------

 SCF Done:  E(RB2PLYPD3) =  -132.534164495     A.U. after   12 cycles
 E2(B2PLYPD3) =    -0.1811941845D+00 E(B2PLYPD3) =    -0.13271535867931D+03

 The electronic state is 1-A.
 Alpha  occ. eigenvalues --  -14.84487 -10.67021 -10.66555  -1.03856  -0.89352
 Alpha  occ. eigenvalues --   -0.60279  -0.54126  -0.53436  -0.44897  -0.38915
 Alpha  occ. eigenvalues --   -0.38853
 Alpha virt. eigenvalues --    0.03745   0.07424   0.07925   0.10140   0.11358
 Alpha virt. eigenvalues --    0.11483   0.15463   0.16081   0.16861   0.20099
 Alpha virt. eigenvalues --    0.20168   0.25473   0.32700   0.34573   0.34792

 Mulliken charges:
               1
     1  C   -0.076144
     2  C    0.001575
     3  N   -0.209522
     4  H    0.095944
     5  H    0.093511
     6  H    0.094636
 Sum of Mulliken charges =   0.00000

 Dipole moment (field-independent basis, Debye):
    X=              4.1472    Y=             -0.0245    Z=             -0.0075  Tot=              4.1473
 Quadrupole moment (field-independent basis, Debye-Ang):
   XX=            -20.8728   YY=            -17.7811   ZZ=            -17.8441
   XY=              0.0684   XZ=              0.0683   YZ=              0.0193

 Normal termination of Gaussian 09 at Wed Aug 26 22:53:11 2020.
