 Gaussian 09, Revision D.01,
 Gaussian 09:  ES64L-G09RevD.01 24-Apr-2013

 --------------------
 #p B2PLYPD3/Def2QZVP
 --------------------

 ------------
 cyanomethane
 ------------
 Symbolic Z-matrix:
 Charge =  0 Multiplicity = 1

                         Standard orientation:
 ---------------------------------------------------------------------
 Center     Atomic      Atomic             Coordinates (Angstroms)
 Number     Number       Type             X           Y           Z
 ---------------------------------------------------------------------
      1          6           0       -1.179717    0.003180    0.000780
      2          6           0        0.280441    0.013645   -0.006933
      3          7           0        1.439048   -0.011827    0.007012
      4          1           0       -1.487553    0.955586   -0.372203
      5          1           0       -1.615099   -0.162217    0.999499
      6          1           0       -1.575026   -0.811527   -0.639462
 ---------------------------------------------------------------------

 SCF Done:  E(RB2PLYPD3) =  -132.533638871     A.U. after   12 cycles
 E2(B2PLYPD3) =    -0.1809514163D+00 E(B2PLYPD3) =    -0.13271459028751D+03

 The electronic state is 1-A.
 Alpha  occ. eigenvalues --  -14.84358 -10.67275 -10.66446  -1.03956  -0.89115
 Alpha  occ. eigenvalues --   -0.59806  -0.54502  -0.52968  -0.44832  -0.39019
 Alpha  occ. eigenvalues --   -0.38918
 Alpha virt. eigenvalues --    0.03704   0.07390   0.08151   0.10162   0.11289
 Alpha virt. eigenvalues --    0.11543   0.15340   0.16021   0.16774   0.20054
 Alpha virt. eigenvalues --    0.20169   0.25307   0.32585   0.34348   0.34813

 Mulliken charges:
               1
     1  C   -0.083564
     2  C    0.000101
     3  N   -0.207846
     4  H    0.100724
     5  H    0.095076
     6  H    0.095508
 Sum of Mulliken charges =   0.00000

 Dipole moment (field-independent basis, Debye):
    X=             -4.1367    Y=              0.0179    Z=             -0.0092  Tot=              4.1368
 Quadrupole moment (field-independent basis, Debye-Ang):
   XX=            -20.9646   YY=            -17.7239   ZZ=            -17.8582
   XY=              0.1423   XZ=             -0.1013   YZ=             -0.0305

 Normal termination of Gaussian 09 at Wed Aug 26 23:57:04 2020.
