 Gaussian 09, Revision D.01,
 Gaussian 09:  ES64L-G09RevD.01 24-Apr-2013

 --------------------
 #p B2PLYPD3/Def2QZVP
 --------------------

 ------------
 cyanomethane
 ------------
 Symbolic Z-matrix:
 Charge =  0 Multiplicity = 1

                         Standard orientation:
 ---------------------------------------------------------------------
 Center     Atomic      Atomic             Coordinates (Angstroms)
 Number     Number       Type             X           Y           Z
 ---------------------------------------------------------------------
      1          6           0        1.169955   -0.011922   -0.003381
      2          6           0       -0.281481    0.017306   -0.010218
      3          7           0       -1.430395   -0.004675    0.007678
      4          1           0        1.512711   -0.667538   -0.752517
      5          1           0        1.571554   -0.334261    0.960255
      6          1           0        1.597657    1.002222   -0.179887
 ---------------------------------------------------------------------

 SCF Done:  E(RB2PLYPD3) =  -132.534623968     A.U. after   11 cycles
 E2(B2PLYPD3) =    -0.1800111834D+00 E(B2PLYPD3) =    -0.13271463515092D+03

 The electronic state is 1-A.
 Alpha  occ. eigenvalues --  -14.84089 -10.66930 -10.66123  -1.04377  -0.89338
 Alpha  occ. eigenvalues --   -0.60125  -0.54611  -0.53021  -0.44831  -0.39291
 Alpha  occ. eigenvalues --   -0.39101
 Alpha virt. eigenvalues --    0.03772   0.07650   0.08230   0.10177   0.11447
 Alpha virt. eigenvalues --    0.11673   0.15498   0.16399   0.16643   0.20029
 Alpha virt. eigenvalues --    0.20100   0.25493   0.32771   0.34368   0.35149

 Mulliken charges:
               1
     1  C   -0.077918
     2  C   -0.001046
     3  N   -0.203210
     4  H    0.098485
     5  H    0.093110
     6  H    0.090579
 Sum of Mulliken charges =   0.00000

 Dipole moment (field-independent basis, Debye):
    X=              4.1209    Y=             -0.0014    Z=             -0.0077  Tot=              4.1209
 Quadrupole moment (field-independent basis, Debye-Ang):
   XX=            -20.8848   YY=            -17.7531   ZZ=            -17.7639
   XY=              0.0114   XZ=              0.0884   YZ=              0.0529

 Normal termination of Gaussian 09 at Thu Aug 27 00:06:40 2020.
