 Gaussian 09, Revision D.01,
 Gaussian 09:  ES64L-G09RevD.01 24-Apr-2013

 --------------------
 #p B2PLYPD3/Def2QZVP
 --------------------

 ------------
 cyanomethane
 ------------
 Symbolic Z-matrix:
 Charge =  0 Multiplicity = 1

                         Standard orientation:
 ---------------------------------------------------------------------
 Center     Atomic      Atomic             Coordinates (Angstroms)
 Number     Number       Type             X           Y           Z
 ---------------------------------------------------------------------
      1          6           0        1.168376    0.001292   -0.007013
      2          6           0       -0.277913    0.020895    0.003996
      3          7           0       -1.431362   -0.011776   -0.002809
      4          1           0        1.558243    0.942666   -0.354414
      5          1           0        1.578353   -0.816298   -0.630206
      6          1           0        1.540154   -0.177057    1.022385
 ---------------------------------------------------------------------

 SCF Done:  E(RB2PLYPD3) =  -132.534802679     A.U. after   11 cycles
 E2(B2PLYPD3) =    -0.1805470716D+00 E(B2PLYPD3) =    -0.13271534975111D+03

 The electronic state is 1-A.
 Alpha  occ. eigenvalues --  -14.84207 -10.67227 -10.66235  -1.04192  -0.89203
 Alpha  occ. eigenvalues --   -0.60042  -0.54177  -0.53137  -0.44845  -0.39109
 Alpha  occ. eigenvalues --   -0.38939
 Alpha virt. eigenvalues --    0.03707   0.07504   0.07958   0.10143   0.11435
 Alpha virt. eigenvalues --    0.11673   0.15502   0.16171   0.16721   0.20052
 Alpha virt. eigenvalues --    0.20130   0.25575   0.32821   0.34166   0.34844

 Mulliken charges:
               1
     1  C   -0.082212
     2  C    0.000054
     3  N   -0.205390
     4  H    0.097910
     5  H    0.095642
     6  H    0.093996
 Sum of Mulliken charges =   0.00000

 Dipole moment (field-independent basis, Debye):
    X=              4.1217    Y=              0.0148    Z=              0.0119  Tot=              4.1217
 Quadrupole moment (field-independent basis, Debye-Ang):
   XX=            -20.9486   YY=            -17.7299   ZZ=            -17.8140
   XY=             -0.0842   XZ=             -0.0205   YZ=             -0.0185

 Normal termination of Gaussian 09 at Wed Aug 26 23:55:35 2020.
