 Gaussian 09, Revision D.01,
 Gaussian 09:  ES64L-G09RevD.01 24-Apr-2013

 --------------------
 #p B2PLYPD3/Def2QZVP
 --------------------

 ------------
 cyanomethane
 ------------
 Symbolic Z-matrix:
 Charge =  0 Multiplicity = 1

                         Standard orientation:
 ---------------------------------------------------------------------
 Center     Atomic      Atomic             Coordinates (Angstroms)
 Number     Number       Type             X           Y           Z
 ---------------------------------------------------------------------
      1          6           0        1.169568   -0.008680    0.004447
      2          6           0       -0.278525   -0.009806   -0.001925
      3          7           0       -1.431255    0.008696   -0.000181
      4          1           0        1.594044    0.929339   -0.416579
      5          1           0        1.534155   -0.801125   -0.579219
      6          1           0        1.544323   -0.078167    0.981932
 ---------------------------------------------------------------------

 SCF Done:  E(RB2PLYPD3) =  -132.533561603     A.U. after   11 cycles
 E2(B2PLYPD3) =    -0.1801174670D+00 E(B2PLYPD3) =    -0.13271367906984D+03

 The electronic state is 1-A.
 Alpha  occ. eigenvalues --  -14.84184 -10.66398 -10.66205  -1.04240  -0.89801
 Alpha  occ. eigenvalues --   -0.60487  -0.55112  -0.53261  -0.44849  -0.39243
 Alpha  occ. eigenvalues --   -0.39026
 Alpha virt. eigenvalues --    0.03824   0.07736   0.08391   0.10176   0.11349
 Alpha virt. eigenvalues --    0.11637   0.15560   0.16429   0.16641   0.20046
 Alpha virt. eigenvalues --    0.20136   0.25526   0.32905   0.34501   0.35454

 Mulliken charges:
               1
     1  C   -0.069789
     2  C   -0.000591
     3  N   -0.205579
     4  H    0.087621
     5  H    0.094617
     6  H    0.093720
 Sum of Mulliken charges =   0.00000

 Dipole moment (field-independent basis, Debye):
    X=              4.1350    Y=             -0.0166    Z=              0.0066  Tot=              4.1351
 Quadrupole moment (field-independent basis, Debye-Ang):
   XX=            -20.8161   YY=            -17.7660   ZZ=            -17.7427
   XY=              0.0891   XZ=             -0.0002   YZ=              0.0501

 Normal termination of Gaussian 09 at Thu Aug 27 00:09:11 2020.
