 Gaussian 09, Revision D.01,
 Gaussian 09:  ES64L-G09RevD.01 24-Apr-2013

 --------------------
 #p B2PLYPD3/Def2QZVP
 --------------------

 ------------
 cyanomethane
 ------------
 Symbolic Z-matrix:
 Charge =  0 Multiplicity = 1

                         Standard orientation:
 ---------------------------------------------------------------------
 Center     Atomic      Atomic             Coordinates (Angstroms)
 Number     Number       Type             X           Y           Z
 ---------------------------------------------------------------------
      1          6           0        1.173606   -0.031020    0.000153
      2          6           0       -0.300404   -0.049953    0.013351
      3          7           0       -1.445696    0.036749   -0.006323
      4          1           0        1.711141    1.045094   -0.145268
      5          1           0        1.561862   -0.538017   -0.723203
      6          1           0        1.607657   -0.278484    0.831716
 ---------------------------------------------------------------------

 SCF Done:  E(RB2PLYPD3) =  -132.500514398     A.U. after   12 cycles
 E2(B2PLYPD3) =    -0.1800692951D+00 E(B2PLYPD3) =    -0.13268058369359D+03

 The electronic state is 1-A.
 Alpha  occ. eigenvalues --  -14.84497 -10.66627 -10.65780  -1.04636  -0.90253
 Alpha  occ. eigenvalues --   -0.62153  -0.56811  -0.50456  -0.45183  -0.39965
 Alpha  occ. eigenvalues --   -0.39123
 Alpha virt. eigenvalues --    0.03053   0.07453   0.09094   0.10170   0.11030
 Alpha virt. eigenvalues --    0.11859   0.15550   0.17128   0.17471   0.19884
 Alpha virt. eigenvalues --    0.20295   0.25092   0.31396   0.33609   0.36814

 Mulliken charges:
               1
     1  C   -0.057065
     2  C    0.013639
     3  N   -0.201174
     4  H    0.066227
     5  H    0.091062
     6  H    0.087312
 Sum of Mulliken charges =   0.00000

 Dipole moment (field-independent basis, Debye):
    X=              4.1329    Y=             -0.1122    Z=              0.0333  Tot=              4.1346
 Quadrupole moment (field-independent basis, Debye-Ang):
   XX=            -20.2375   YY=            -17.9775   ZZ=            -17.8618
   XY=              0.2256   XZ=              0.0257   YZ=              0.0939

 Normal termination of Gaussian 09 at Wed Aug 26 23:23:46 2020.
