 Gaussian 09, Revision D.01,
 Gaussian 09:  ES64L-G09RevD.01 24-Apr-2013

 --------------------
 #p B2PLYPD3/Def2QZVP
 --------------------

 ------------
 cyanomethane
 ------------
 Symbolic Z-matrix:
 Charge =  0 Multiplicity = 1

                         Standard orientation:
 ---------------------------------------------------------------------
 Center     Atomic      Atomic             Coordinates (Angstroms)
 Number     Number       Type             X           Y           Z
 ---------------------------------------------------------------------
      1          6           0       -1.170660    0.000543   -0.011788
      2          6           0        0.288445    0.025067    0.021714
      3          7           0        1.436187   -0.011974   -0.009782
      4          1           0       -1.587652   -0.240700    1.007388
      5          1           0       -1.568862   -0.790356   -0.684056
      6          1           0       -1.603501    0.961210   -0.314413
 ---------------------------------------------------------------------

 SCF Done:  E(RB2PLYPD3) =  -132.533695908     A.U. after   12 cycles
 E2(B2PLYPD3) =    -0.1803702586D+00 E(B2PLYPD3) =    -0.13271406616682D+03

 The electronic state is 1-A.
 Alpha  occ. eigenvalues --  -14.84193 -10.67760 -10.66272  -1.04443  -0.88543
 Alpha  occ. eigenvalues --   -0.60048  -0.53460  -0.52534  -0.44918  -0.39324
 Alpha  occ. eigenvalues --   -0.39138
 Alpha virt. eigenvalues --    0.03614   0.07443   0.07749   0.10153   0.11493
 Alpha virt. eigenvalues --    0.11714   0.15431   0.16374   0.16950   0.20011
 Alpha virt. eigenvalues --    0.20070   0.25411   0.32582   0.34025   0.34720

 Mulliken charges:
               1
     1  C   -0.081784
     2  C    0.001387
     3  N   -0.201250
     4  H    0.090459
     5  H    0.095434
     6  H    0.095754
 Sum of Mulliken charges =   0.00000

 Dipole moment (field-independent basis, Debye):
    X=             -4.1163    Y=              0.0106    Z=              0.0174  Tot=              4.1164
 Quadrupole moment (field-independent basis, Debye-Ang):
   XX=            -20.8422   YY=            -17.7800   ZZ=            -17.8836
   XY=              0.0655   XZ=              0.0393   YZ=             -0.0038

 Normal termination of Gaussian 09 at Wed Aug 26 13:18:47 2020.
