 Gaussian 09, Revision D.01,
 Gaussian 09:  ES64L-G09RevD.01 24-Apr-2013

 --------------------
 #p B2PLYPD3/Def2QZVP
 --------------------

 ------------
 cyanomethane
 ------------
 Symbolic Z-matrix:
 Charge =  0 Multiplicity = 1

                         Standard orientation:
 ---------------------------------------------------------------------
 Center     Atomic      Atomic             Coordinates (Angstroms)
 Number     Number       Type             X           Y           Z
 ---------------------------------------------------------------------
      1          6           0        1.168797   -0.005505    0.007026
      2          6           0       -0.282824    0.012448   -0.021713
      3          7           0       -1.427949   -0.005866    0.012500
      4          1           0        1.581908   -0.411349    0.946719
      5          1           0        1.558365    1.032663   -0.118818
      6          1           0        1.539537   -0.621913   -0.827284
 ---------------------------------------------------------------------

 SCF Done:  E(RB2PLYPD3) =  -132.534879929     A.U. after   12 cycles
 E2(B2PLYPD3) =    -0.1799820987D+00 E(B2PLYPD3) =    -0.13271486202816D+03

 The electronic state is 1-A.
 Alpha  occ. eigenvalues --  -14.83979 -10.67547 -10.66011  -1.04505  -0.88854
 Alpha  occ. eigenvalues --   -0.59723  -0.53554  -0.53260  -0.44805  -0.39242
 Alpha  occ. eigenvalues --   -0.39191
 Alpha virt. eigenvalues --    0.03674   0.07621   0.07940   0.10151   0.11633
 Alpha virt. eigenvalues --    0.11667   0.15468   0.16105   0.16825   0.20034
 Alpha virt. eigenvalues --    0.20066   0.25512   0.32768   0.34232   0.34533

 Mulliken charges:
               1
     1  C   -0.088388
     2  C   -0.001149
     3  N   -0.200847
     4  H    0.097847
     5  H    0.095454
     6  H    0.097084
 Sum of Mulliken charges =   0.00000

 Dipole moment (field-independent basis, Debye):
    X=              4.1020    Y=              0.0055    Z=             -0.0207  Tot=              4.1021
 Quadrupole moment (field-independent basis, Debye-Ang):
   XX=            -20.9942   YY=            -17.7471   ZZ=            -17.7591
   XY=             -0.0386   XZ=              0.0979   YZ=              0.0059

 Normal termination of Gaussian 09 at Wed Aug 26 23:55:00 2020.
