 Gaussian 09, Revision D.01,
 Gaussian 09:  ES64L-G09RevD.01 24-Apr-2013

 --------------------
 #p B2PLYPD3/Def2QZVP
 --------------------

 ------------
 cyanomethane
 ------------
 Symbolic Z-matrix:
 Charge =  0 Multiplicity = 1

                         Standard orientation:
 ---------------------------------------------------------------------
 Center     Atomic      Atomic             Coordinates (Angstroms)
 Number     Number       Type             X           Y           Z
 ---------------------------------------------------------------------
      1          6           0       -1.172245   -0.000159   -0.002135
      2          6           0        0.273902   -0.026628   -0.013703
      3          7           0        1.438280    0.018885    0.002512
      4          1           0       -1.551454   -0.755798   -0.609097
      5          1           0       -1.647427    0.950357   -0.312514
      6          1           0       -1.479021   -0.166035    0.999051
 ---------------------------------------------------------------------

 SCF Done:  E(RB2PLYPD3) =  -132.531082546     A.U. after   12 cycles
 E2(B2PLYPD3) =    -0.1812677436D+00 E(B2PLYPD3) =    -0.13271235028981D+03

 The electronic state is 1-A.
 Alpha  occ. eigenvalues --  -14.84554 -10.66610 -10.66390  -1.03769  -0.89919
 Alpha  occ. eigenvalues --   -0.60633  -0.55083  -0.53344  -0.44913  -0.38911
 Alpha  occ. eigenvalues --   -0.38748
 Alpha virt. eigenvalues --    0.03762   0.07338   0.08289   0.10130   0.11228
 Alpha virt. eigenvalues --    0.11532   0.15533   0.15903   0.17088   0.20103
 Alpha virt. eigenvalues --    0.20239   0.25600   0.32807   0.34619   0.35228

 Mulliken charges:
               1
     1  C   -0.069606
     2  C    0.002500
     3  N   -0.211503
     4  H    0.094545
     5  H    0.089925
     6  H    0.094139
 Sum of Mulliken charges =   0.00000

 Dipole moment (field-independent basis, Debye):
    X=             -4.1551    Y=             -0.0398    Z=              0.0165  Tot=              4.1553
 Quadrupole moment (field-independent basis, Debye-Ang):
   XX=            -20.7950   YY=            -17.8072   ZZ=            -17.7999
   XY=             -0.1541   XZ=              0.0260   YZ=              0.0408

 Normal termination of Gaussian 09 at Wed Aug 26 10:32:07 2020.
