 Gaussian 09, Revision D.01,
 Gaussian 09:  ES64L-G09RevD.01 24-Apr-2013

 --------------------
 #p B2PLYPD3/Def2QZVP
 --------------------

 ------------
 cyanomethane
 ------------
 Symbolic Z-matrix:
 Charge =  0 Multiplicity = 1

                         Standard orientation:
 ---------------------------------------------------------------------
 Center     Atomic      Atomic             Coordinates (Angstroms)
 Number     Number       Type             X           Y           Z
 ---------------------------------------------------------------------
      1          6           0       -1.193255    0.012287    0.004041
      2          6           0        0.288807    0.021206   -0.006754
      3          7           0        1.435382   -0.009777    0.004637
      4          1           0       -1.543000   -0.500846    0.926790
      5          1           0       -1.504352   -0.631183   -0.863168
      6          1           0       -1.573639    0.999510   -0.079798
 ---------------------------------------------------------------------

 SCF Done:  E(RB2PLYPD3) =  -132.533568543     A.U. after   12 cycles
 E2(B2PLYPD3) =    -0.1799696538D+00 E(B2PLYPD3) =    -0.13271353819674D+03

 The electronic state is 1-A.
 Alpha  occ. eigenvalues --  -14.83924 -10.67686 -10.66057  -1.04310  -0.88632
 Alpha  occ. eigenvalues --   -0.58800  -0.54700  -0.52844  -0.44643  -0.39425
 Alpha  occ. eigenvalues --   -0.39099
 Alpha virt. eigenvalues --    0.03655   0.07890   0.08413   0.10233   0.11223
 Alpha virt. eigenvalues --    0.11662   0.15147   0.15893   0.16512   0.19986
 Alpha virt. eigenvalues --    0.20109   0.24868   0.32443   0.33659   0.35090

 Mulliken charges:
               1
     1  C   -0.097615
     2  C   -0.004417
     3  N   -0.202156
     4  H    0.100073
     5  H    0.098649
     6  H    0.105466
 Sum of Mulliken charges =   0.00000

 Dipole moment (field-independent basis, Debye):
    X=             -4.1160    Y=              0.0001    Z=             -0.0084  Tot=              4.1160
 Quadrupole moment (field-independent basis, Debye-Ang):
   XX=            -21.1737   YY=            -17.6262   ZZ=            -17.8013
   XY=              0.0439   XZ=             -0.0483   YZ=             -0.0203

 Normal termination of Gaussian 09 at Wed Aug 26 15:18:49 2020.
