 Gaussian 09, Revision D.01,
 Gaussian 09:  ES64L-G09RevD.01 24-Apr-2013

 --------------------
 #p B2PLYPD3/Def2QZVP
 --------------------

 ------------
 cyanomethane
 ------------
 Symbolic Z-matrix:
 Charge =  0 Multiplicity = 1

                         Standard orientation:
 ---------------------------------------------------------------------
 Center     Atomic      Atomic             Coordinates (Angstroms)
 Number     Number       Type             X           Y           Z
 ---------------------------------------------------------------------
      1          6           0        1.187415    0.004396   -0.041356
      2          6           0       -0.305477   -0.008517    0.054611
      3          7           0       -1.437182   -0.001637   -0.022611
      4          1           0        1.512083    1.048034    0.037965
      5          1           0        1.601133   -0.496223   -0.779971
      6          1           0        1.655429   -0.515632    0.820751
 ---------------------------------------------------------------------

 SCF Done:  E(RB2PLYPD3) =  -132.522441626     A.U. after   12 cycles
 E2(B2PLYPD3) =    -0.1787894372D+00 E(B2PLYPD3) =    -0.13270123106293D+03

 The electronic state is 1-A.
 Alpha  occ. eigenvalues --  -14.83835 -10.66589 -10.66005  -1.04997  -0.89165
 Alpha  occ. eigenvalues --   -0.60925  -0.54847  -0.51926  -0.44856  -0.40062
 Alpha  occ. eigenvalues --   -0.39583
 Alpha virt. eigenvalues --    0.03787   0.08105   0.08663   0.10216   0.11294
 Alpha virt. eigenvalues --    0.11807   0.15166   0.16234   0.17797   0.19915
 Alpha virt. eigenvalues --    0.20069   0.24965   0.32479   0.34099   0.35604

 Mulliken charges:
               1
     1  C   -0.069408
     2  C    0.003252
     3  N   -0.194754
     4  H    0.093091
     5  H    0.094639
     6  H    0.073180
 Sum of Mulliken charges =   0.00000

 Dipole moment (field-independent basis, Debye):
    X=              4.1199    Y=             -0.0328    Z=              0.0512  Tot=              4.1204
 Quadrupole moment (field-independent basis, Debye-Ang):
   XX=            -20.6201   YY=            -17.5599   ZZ=            -18.0205
   XY=             -0.1951   XZ=             -0.0592   YZ=              0.1247

 Normal termination of Gaussian 09 at Wed Aug 26 23:32:34 2020.
