 Gaussian 09, Revision D.01,
 Gaussian 09:  ES64L-G09RevD.01 24-Apr-2013

 --------------------
 #p B2PLYPD3/Def2QZVP
 --------------------

 ------------
 cyanomethane
 ------------
 Symbolic Z-matrix:
 Charge =  0 Multiplicity = 1

                         Standard orientation:
 ---------------------------------------------------------------------
 Center     Atomic      Atomic             Coordinates (Angstroms)
 Number     Number       Type             X           Y           Z
 ---------------------------------------------------------------------
      1          6           0       -1.195481    0.014862    0.006668
      2          6           0        0.292105   -0.024618   -0.030668
      3          7           0        1.434449    0.004847    0.014682
      4          1           0       -1.466494    0.975109   -0.427155
      5          1           0       -1.536264   -0.085164    1.046192
      6          1           0       -1.618130   -0.865340   -0.577806
 ---------------------------------------------------------------------

 SCF Done:  E(RB2PLYPD3) =  -132.532804096     A.U. after   12 cycles
 E2(B2PLYPD3) =    -0.1798274207D+00 E(B2PLYPD3) =    -0.13271263151632D+03

 The electronic state is 1-A.
 Alpha  occ. eigenvalues --  -14.83829 -10.68012 -10.65958  -1.04439  -0.88310
 Alpha  occ. eigenvalues --   -0.58371  -0.54389  -0.52793  -0.44611  -0.39421
 Alpha  occ. eigenvalues --   -0.39281
 Alpha virt. eigenvalues --    0.03617   0.07809   0.08387   0.10240   0.11394
 Alpha virt. eigenvalues --    0.11554   0.15037   0.16043   0.16301   0.19991
 Alpha virt. eigenvalues --    0.20047   0.24857   0.32160   0.34094   0.34672

 Mulliken charges:
               1
     1  C   -0.102930
     2  C   -0.005380
     3  N   -0.199994
     4  H    0.107790
     5  H    0.102956
     6  H    0.097558
 Sum of Mulliken charges =   0.00000

 Dipole moment (field-independent basis, Debye):
    X=             -4.1017    Y=             -0.0048    Z=             -0.0055  Tot=              4.1017
 Quadrupole moment (field-independent basis, Debye-Ang):
   XX=            -21.2294   YY=            -17.6350   ZZ=            -17.7788
   XY=              0.0907   XZ=             -0.1116   YZ=             -0.0593

 Normal termination of Gaussian 09 at Wed Aug 26 11:11:48 2020.
