 Gaussian 09, Revision D.01,
 Gaussian 09:  ES64L-G09RevD.01 24-Apr-2013

 --------------------
 #p B2PLYPD3/Def2QZVP
 --------------------

 ------------
 cyanomethane
 ------------
 Symbolic Z-matrix:
 Charge =  0 Multiplicity = 1

                         Standard orientation:
 ---------------------------------------------------------------------
 Center     Atomic      Atomic             Coordinates (Angstroms)
 Number     Number       Type             X           Y           Z
 ---------------------------------------------------------------------
      1          6           0        1.180730    0.006660    0.000392
      2          6           0       -0.279009    0.009879   -0.018204
      3          7           0       -1.427803   -0.006055    0.011802
      4          1           0        1.557213   -0.521071    0.867575
      5          1           0        1.525243    0.985053    0.009571
      6          1           0        1.501834   -0.520825   -0.852885
 ---------------------------------------------------------------------

 SCF Done:  E(RB2PLYPD3) =  -132.533719756     A.U. after   11 cycles
 E2(B2PLYPD3) =    -0.1796172808D+00 E(B2PLYPD3) =    -0.13271333703703D+03

 The electronic state is 1-A.
 Alpha  occ. eigenvalues --  -14.83962 -10.66157 -10.65992  -1.04282  -0.89971
 Alpha  occ. eigenvalues --   -0.59692  -0.55593  -0.54001  -0.44693  -0.39317
 Alpha  occ. eigenvalues --   -0.39137
 Alpha virt. eigenvalues --    0.03893   0.08191   0.08762   0.10209   0.11283
 Alpha virt. eigenvalues --    0.11547   0.15465   0.16010   0.16550   0.20049
 Alpha virt. eigenvalues --    0.20121   0.25309   0.33008   0.34715   0.35501

 Mulliken charges:
               1
     1  C   -0.077670
     2  C   -0.004581
     3  N   -0.204871
     4  H    0.092750
     5  H    0.098329
     6  H    0.096043
 Sum of Mulliken charges =   0.00000

 Dipole moment (field-independent basis, Debye):
    X=              4.1245    Y=             -0.0007    Z=             -0.0201  Tot=              4.1246
 Quadrupole moment (field-independent basis, Debye-Ang):
   XX=            -20.9867   YY=            -17.6121   ZZ=            -17.7292
   XY=             -0.0609   XZ=              0.1013   YZ=              0.0283

 Normal termination of Gaussian 09 at Thu Aug 27 00:05:29 2020.
