 Gaussian 09, Revision D.01,
 Gaussian 09:  ES64L-G09RevD.01 24-Apr-2013

 --------------------
 #p B2PLYPD3/Def2QZVP
 --------------------

 ------------
 cyanomethane
 ------------
 Symbolic Z-matrix:
 Charge =  0 Multiplicity = 1

                         Standard orientation:
 ---------------------------------------------------------------------
 Center     Atomic      Atomic             Coordinates (Angstroms)
 Number     Number       Type             X           Y           Z
 ---------------------------------------------------------------------
      1          6           0       -1.171503   -0.009830    0.017189
      2          6           0        0.273508    0.055219   -0.022169
      3          7           0        1.440513   -0.029037    0.002150
      4          1           0       -1.554470    0.993334   -0.039234
      5          1           0       -1.475810   -0.485741    0.868292
      6          1           0       -1.665335   -0.576661   -0.814229
 ---------------------------------------------------------------------

 SCF Done:  E(RB2PLYPD3) =  -132.527838173     A.U. after   12 cycles
 E2(B2PLYPD3) =    -0.1818385568D+00 E(B2PLYPD3) =    -0.13270967672966D+03

 The electronic state is 1-A.
 Alpha  occ. eigenvalues --  -14.84754 -10.66785 -10.66492  -1.03624  -0.89826
 Alpha  occ. eigenvalues --   -0.60786  -0.55396  -0.52705  -0.44982  -0.38850
 Alpha  occ. eigenvalues --   -0.38606
 Alpha virt. eigenvalues --    0.03705   0.07106   0.07979   0.10048   0.11184
 Alpha virt. eigenvalues --    0.11556   0.15521   0.16057   0.17011   0.20022
 Alpha virt. eigenvalues --    0.20278   0.25773   0.32593   0.34309   0.35521

 Mulliken charges:
               1
     1  C   -0.069511
     2  C    0.005041
     3  N   -0.212950
     4  H    0.092739
     5  H    0.098963
     6  H    0.085719
 Sum of Mulliken charges =   0.00000

 Dipole moment (field-independent basis, Debye):
    X=             -4.1452    Y=              0.0260    Z=              0.0154  Tot=              4.1453
 Quadrupole moment (field-independent basis, Debye-Ang):
   XX=            -20.7787   YY=            -17.7391   ZZ=            -17.9326
   XY=              0.2015   XZ=              0.0859   YZ=             -0.0819

 Normal termination of Gaussian 09 at Wed Aug 26 23:23:10 2020.
