 Gaussian 09, Revision D.01,
 Gaussian 09:  ES64L-G09RevD.01 24-Apr-2013

 --------------------
 #p B2PLYPD3/Def2QZVP
 --------------------

 ------------
 cyanomethane
 ------------
 Symbolic Z-matrix:
 Charge =  0 Multiplicity = 1

                         Standard orientation:
 ---------------------------------------------------------------------
 Center     Atomic      Atomic             Coordinates (Angstroms)
 Number     Number       Type             X           Y           Z
 ---------------------------------------------------------------------
      1          6           0        1.169993   -0.005679    0.006811
      2          6           0       -0.275871    0.009672   -0.010475
      3          7           0       -1.429851   -0.006058    0.007130
      4          1           0        1.581156   -0.022607    1.004938
      5          1           0        1.513833    0.921724   -0.491431
      6          1           0        1.549235   -0.880667   -0.541436
 ---------------------------------------------------------------------

 SCF Done:  E(RB2PLYPD3) =  -132.534877419     A.U. after   11 cycles
 E2(B2PLYPD3) =    -0.1805328147D+00 E(B2PLYPD3) =    -0.13271541023407D+03

 The electronic state is 1-A.
 Alpha  occ. eigenvalues --  -14.84163 -10.67190 -10.66194  -1.04153  -0.89286
 Alpha  occ. eigenvalues --   -0.59929  -0.53882  -0.53696  -0.44798  -0.39041
 Alpha  occ. eigenvalues --   -0.38936
 Alpha virt. eigenvalues --    0.03740   0.07711   0.07855   0.10137   0.11527
 Alpha virt. eigenvalues --    0.11572   0.15472   0.15989   0.16722   0.20084
 Alpha virt. eigenvalues --    0.20121   0.25567   0.32801   0.34213   0.34775

 Mulliken charges:
               1
     1  C   -0.085890
     2  C   -0.000199
     3  N   -0.206155
     4  H    0.097820
     5  H    0.096502
     6  H    0.097923
 Sum of Mulliken charges =   0.00000

 Dipole moment (field-independent basis, Debye):
    X=              4.1189    Y=              0.0122    Z=             -0.0047  Tot=              4.1189
 Quadrupole moment (field-independent basis, Debye-Ang):
   XX=            -21.0212   YY=            -17.7070   ZZ=            -17.7876
   XY=             -0.0530   XZ=              0.0934   YZ=              0.0089

 Normal termination of Gaussian 09 at Wed Aug 26 23:53:10 2020.
