 Gaussian 09, Revision D.01,
 Gaussian 09:  ES64L-G09RevD.01 24-Apr-2013

 --------------------
 #p B2PLYPD3/Def2QZVP
 --------------------

 ------------
 cyanomethane
 ------------
 Symbolic Z-matrix:
 Charge =  0 Multiplicity = 1

                         Standard orientation:
 ---------------------------------------------------------------------
 Center     Atomic      Atomic             Coordinates (Angstroms)
 Number     Number       Type             X           Y           Z
 ---------------------------------------------------------------------
      1          6           0        1.183001   -0.002529   -0.013232
      2          6           0       -0.279657    0.014040   -0.012824
      3          7           0       -1.435740   -0.008511    0.010141
      4          1           0        1.576948   -0.351589    0.960552
      5          1           0        1.519327    0.986844   -0.137946
      6          1           0        1.533847   -0.644738   -0.737252
 ---------------------------------------------------------------------

 SCF Done:  E(RB2PLYPD3) =  -132.532153428     A.U. after   11 cycles
 E2(B2PLYPD3) =    -0.1803328465D+00 E(B2PLYPD3) =    -0.13271248627419D+03

 The electronic state is 1-A.
 Alpha  occ. eigenvalues --  -14.84238 -10.66374 -10.66294  -1.04023  -0.89807
 Alpha  occ. eigenvalues --   -0.59936  -0.55754  -0.53317  -0.44775  -0.39225
 Alpha  occ. eigenvalues --   -0.38943
 Alpha virt. eigenvalues --    0.03826   0.07870   0.08594   0.10194   0.11145
 Alpha virt. eigenvalues --    0.11537   0.15421   0.16158   0.16541   0.20047
 Alpha virt. eigenvalues --    0.20160   0.25244   0.32770   0.34358   0.35683

 Mulliken charges:
               1
     1  C   -0.074873
     2  C   -0.002058
     3  N   -0.207764
     4  H    0.089179
     5  H    0.096773
     6  H    0.098744
 Sum of Mulliken charges =   0.00000

 Dipole moment (field-independent basis, Debye):
    X=              4.1408    Y=              0.0129    Z=             -0.0088  Tot=              4.1408
 Quadrupole moment (field-independent basis, Debye-Ang):
   XX=            -20.9269   YY=            -17.6678   ZZ=            -17.7948
   XY=             -0.0712   XZ=              0.1107   YZ=              0.0635

 Normal termination of Gaussian 09 at Thu Aug 27 00:00:27 2020.
