 Gaussian 09, Revision D.01,
 Gaussian 09:  ES64L-G09RevD.01 24-Apr-2013

 --------------------
 #p B2PLYPD3/Def2QZVP
 --------------------

 ------------
 cyanomethane
 ------------
 Symbolic Z-matrix:
 Charge =  0 Multiplicity = 1

                         Standard orientation:
 ---------------------------------------------------------------------
 Center     Atomic      Atomic             Coordinates (Angstroms)
 Number     Number       Type             X           Y           Z
 ---------------------------------------------------------------------
      1          6           0        1.179350   -0.005999   -0.006332
      2          6           0       -0.279748    0.008256   -0.010436
      3          7           0       -1.435050   -0.003526    0.010875
      4          1           0        1.613242   -0.168183    1.001671
      5          1           0        1.528520    0.982554   -0.344885
      6          1           0        1.505980   -0.803232   -0.632307
 ---------------------------------------------------------------------

 SCF Done:  E(RB2PLYPD3) =  -132.533998544     A.U. after   12 cycles
 E2(B2PLYPD3) =    -0.1806172926D+00 E(B2PLYPD3) =    -0.13271461583634D+03

 The electronic state is 1-A.
 Alpha  occ. eigenvalues --  -14.84213 -10.67230 -10.66285  -1.04066  -0.89171
 Alpha  occ. eigenvalues --   -0.59625  -0.54827  -0.52916  -0.44777  -0.39117
 Alpha  occ. eigenvalues --   -0.38925
 Alpha virt. eigenvalues --    0.03726   0.07533   0.08219   0.10177   0.11300
 Alpha virt. eigenvalues --    0.11597   0.15347   0.16073   0.16579   0.20044
 Alpha virt. eigenvalues --    0.20150   0.25314   0.32637   0.34167   0.34978

 Mulliken charges:
               1
     1  C   -0.086213
     2  C   -0.001193
     3  N   -0.206632
     4  H    0.093408
     5  H    0.098580
     6  H    0.102051
 Sum of Mulliken charges =   0.00000

 Dipole moment (field-independent basis, Debye):
    X=              4.1273    Y=              0.0002    Z=             -0.0070  Tot=              4.1273
 Quadrupole moment (field-independent basis, Debye-Ang):
   XX=            -21.0285   YY=            -17.6435   ZZ=            -17.8680
   XY=             -0.0272   XZ=              0.1675   YZ=              0.0426

 Normal termination of Gaussian 09 at Thu Aug 27 00:04:38 2020.
