 Gaussian 09, Revision D.01,
 Gaussian 09:  ES64L-G09RevD.01 24-Apr-2013

 --------------------
 #p B2PLYPD3/Def2QZVP
 --------------------

 ------------
 cyanomethane
 ------------
 Symbolic Z-matrix:
 Charge =  0 Multiplicity = 1

                         Standard orientation:
 ---------------------------------------------------------------------
 Center     Atomic      Atomic             Coordinates (Angstroms)
 Number     Number       Type             X           Y           Z
 ---------------------------------------------------------------------
      1          6           0       -1.181765    0.004588   -0.001218
      2          6           0        0.274762   -0.018868    0.004763
      3          7           0        1.437187    0.010944   -0.003606
      4          1           0       -1.518841   -0.196589    1.000355
      5          1           0       -1.534987   -0.790360   -0.666112
      6          1           0       -1.564459    0.996026   -0.330273
 ---------------------------------------------------------------------

 SCF Done:  E(RB2PLYPD3) =  -132.534010572     A.U. after   12 cycles
 E2(B2PLYPD3) =    -0.1812473383D+00 E(B2PLYPD3) =    -0.13271525791020D+03

 The electronic state is 1-A.
 Alpha  occ. eigenvalues --  -14.84373 -10.67319 -10.66444  -1.03755  -0.89219
 Alpha  occ. eigenvalues --   -0.59391  -0.54158  -0.53852  -0.44761  -0.38823
 Alpha  occ. eigenvalues --   -0.38804
 Alpha virt. eigenvalues --    0.03695   0.07547   0.08013   0.10152   0.11346
 Alpha virt. eigenvalues --    0.11382   0.15340   0.15811   0.16495   0.20124
 Alpha virt. eigenvalues --    0.20148   0.25356   0.32584   0.34440   0.34496

 Mulliken charges:
               1
     1  C   -0.090255
     2  C   -0.000573
     3  N   -0.210465
     4  H    0.100356
     5  H    0.100239
     6  H    0.100698
 Sum of Mulliken charges =   0.00000

 Dipole moment (field-independent basis, Debye):
    X=             -4.1323    Y=             -0.0242    Z=              0.0190  Tot=              4.1324
 Quadrupole moment (field-independent basis, Debye-Ang):
   XX=            -21.1268   YY=            -17.6958   ZZ=            -17.8055
   XY=             -0.0631   XZ=              0.0071   YZ=              0.0028

 Normal termination of Gaussian 09 at Thu Aug 27 00:11:45 2020.
