 Gaussian 09, Revision D.01,
 Gaussian 09:  ES64L-G09RevD.01 24-Apr-2013

 --------------------
 #p B2PLYPD3/Def2QZVP
 --------------------

 ------------
 cyanomethane
 ------------
 Symbolic Z-matrix:
 Charge =  0 Multiplicity = 1

                         Standard orientation:
 ---------------------------------------------------------------------
 Center     Atomic      Atomic             Coordinates (Angstroms)
 Number     Number       Type             X           Y           Z
 ---------------------------------------------------------------------
      1          6           0       -1.180105   -0.005348   -0.007329
      2          6           0        0.282866    0.014932    0.000964
      3          7           0        1.432791   -0.004265    0.002069
      4          1           0       -1.571375   -0.077470    0.988148
      5          1           0       -1.500221   -0.857831   -0.539041
      6          1           0       -1.574508    0.907653   -0.425399
 ---------------------------------------------------------------------

 SCF Done:  E(RB2PLYPD3) =  -132.535125661     A.U. after   11 cycles
 E2(B2PLYPD3) =    -0.1798226138D+00 E(B2PLYPD3) =    -0.13271494827493D+03

 The electronic state is 1-A.
 Alpha  occ. eigenvalues --  -14.84064 -10.66515 -10.66129  -1.04282  -0.89591
 Alpha  occ. eigenvalues --   -0.59908  -0.54977  -0.53640  -0.44763  -0.39314
 Alpha  occ. eigenvalues --   -0.39170
 Alpha virt. eigenvalues --    0.03863   0.08122   0.08394   0.10223   0.11332
 Alpha virt. eigenvalues --    0.11548   0.15402   0.16352   0.16512   0.20027
 Alpha virt. eigenvalues --    0.20114   0.25255   0.32850   0.34732   0.35301

 Mulliken charges:
               1
     1  C   -0.075486
     2  C   -0.002863
     3  N   -0.204397
     4  H    0.090537
     5  H    0.097866
     6  H    0.094343
 Sum of Mulliken charges =   0.00000

 Dipole moment (field-independent basis, Debye):
    X=             -4.1338    Y=             -0.0007    Z=              0.0150  Tot=              4.1338
 Quadrupole moment (field-independent basis, Debye-Ang):
   XX=            -20.9044   YY=            -17.6217   ZZ=            -17.8306
   XY=             -0.0143   XZ=             -0.0893   YZ=              0.0243

 Normal termination of Gaussian 09 at Wed Aug 26 11:42:37 2020.
