 Gaussian 09, Revision D.01,
 Gaussian 09:  ES64L-G09RevD.01 24-Apr-2013

 --------------------
 #p B2PLYPD3/Def2QZVP
 --------------------

 ------------
 cyanomethane
 ------------
 Symbolic Z-matrix:
 Charge =  0 Multiplicity = 1

                         Standard orientation:
 ---------------------------------------------------------------------
 Center     Atomic      Atomic             Coordinates (Angstroms)
 Number     Number       Type             X           Y           Z
 ---------------------------------------------------------------------
      1          6           0        1.197505   -0.006236    0.003302
      2          6           0       -0.276967    0.077211    0.004101
      3          7           0       -1.442928   -0.040618   -0.012462
      4          1           0        1.547012    1.004393   -0.236863
      5          1           0        1.633208   -0.804761   -0.707500
      6          1           0        1.397054   -0.341158    0.987180
 ---------------------------------------------------------------------

 SCF Done:  E(RB2PLYPD3) =  -132.524565243     A.U. after   13 cycles
 E2(B2PLYPD3) =    -0.1824844967D+00 E(B2PLYPD3) =    -0.13270704973949D+03

 The electronic state is 1-A.
 Alpha  occ. eigenvalues --  -14.84647 -10.67810 -10.66748  -1.03374  -0.88884
 Alpha  occ. eigenvalues --   -0.58569  -0.55377  -0.52427  -0.44724  -0.38721
 Alpha  occ. eigenvalues --   -0.38479
 Alpha virt. eigenvalues --    0.03319   0.06945   0.08371   0.09991   0.10887
 Alpha virt. eigenvalues --    0.11457   0.15104   0.15263   0.16753   0.20021
 Alpha virt. eigenvalues --    0.20284   0.25294   0.32084   0.33629   0.34910

 Mulliken charges:
               1
     1  C   -0.102754
     2  C    0.001633
     3  N   -0.213879
     4  H    0.106753
     5  H    0.098823
     6  H    0.109425
 Sum of Mulliken charges =   0.00000

 Dipole moment (field-independent basis, Debye):
    X=              4.1118    Y=              0.0269    Z=              0.0488  Tot=              4.1122
 Quadrupole moment (field-independent basis, Debye-Ang):
   XX=            -21.2894   YY=            -17.6106   ZZ=            -17.9357
   XY=             -0.2838   XZ=             -0.1748   YZ=             -0.0886

 Normal termination of Gaussian 09 at Wed Aug 26 16:23:32 2020.
