 Gaussian 09, Revision D.01,
 Gaussian 09:  ES64L-G09RevD.01 24-Apr-2013

 --------------------
 #p B2PLYPD3/Def2QZVP
 --------------------

 ------------
 cyanomethane
 ------------
 Symbolic Z-matrix:
 Charge =  0 Multiplicity = 1

                         Standard orientation:
 ---------------------------------------------------------------------
 Center     Atomic      Atomic             Coordinates (Angstroms)
 Number     Number       Type             X           Y           Z
 ---------------------------------------------------------------------
      1          6           0        1.180227    0.007701    0.004576
      2          6           0       -0.277984   -0.003008   -0.023035
      3          7           0       -1.439627    0.001868    0.011795
      4          1           0        1.569006    1.016373   -0.145298
      5          1           0        1.543137   -0.665626   -0.785322
      6          1           0        1.551784   -0.391980    0.958811
 ---------------------------------------------------------------------

 SCF Done:  E(RB2PLYPD3) =  -132.534416688     A.U. after   12 cycles
 E2(B2PLYPD3) =    -0.1812424406D+00 E(B2PLYPD3) =    -0.13271565912838D+03

 The electronic state is 1-A.
 Alpha  occ. eigenvalues --  -14.84425 -10.67393 -10.66507  -1.03815  -0.89055
 Alpha  occ. eigenvalues --   -0.59673  -0.54137  -0.53369  -0.44824  -0.38941
 Alpha  occ. eigenvalues --   -0.38796
 Alpha virt. eigenvalues --    0.03697   0.07574   0.07797   0.10148   0.11289
 Alpha virt. eigenvalues --    0.11482   0.15364   0.15988   0.16607   0.20090
 Alpha virt. eigenvalues --    0.20149   0.25349   0.32571   0.34224   0.34771

 Mulliken charges:
               1
     1  C   -0.085922
     2  C    0.000435
     3  N   -0.209399
     4  H    0.100467
     5  H    0.096799
     6  H    0.097619
 Sum of Mulliken charges =   0.00000

 Dipole moment (field-independent basis, Debye):
    X=              4.1366    Y=             -0.0158    Z=             -0.0120  Tot=              4.1367
 Quadrupole moment (field-independent basis, Debye-Ang):
   XX=            -21.0295   YY=            -17.7172   ZZ=            -17.8554
   XY=             -0.0050   XZ=              0.0780   YZ=             -0.0070

 Normal termination of Gaussian 09 at Wed Aug 26 23:55:40 2020.
