 Gaussian 09, Revision D.01,
 Gaussian 09:  ES64L-G09RevD.01 24-Apr-2013

 --------------------
 #p B2PLYPD3/Def2QZVP
 --------------------

 ------------
 cyanomethane
 ------------
 Symbolic Z-matrix:
 Charge =  0 Multiplicity = 1

                         Standard orientation:
 ---------------------------------------------------------------------
 Center     Atomic      Atomic             Coordinates (Angstroms)
 Number     Number       Type             X           Y           Z
 ---------------------------------------------------------------------
      1          6           0        1.147697    0.001442   -0.021176
      2          6           0       -0.286755    0.016968   -0.051355
      3          7           0       -1.415001   -0.015202    0.036300
      4          1           0        1.689573   -0.135757    0.944621
      5          1           0        1.461491    0.876425   -0.265924
      6          1           0        1.588294   -0.744715   -0.497607
 ---------------------------------------------------------------------

 SCF Done:  E(RB2PLYPD3) =  -132.506713373     A.U. after   12 cycles
 E2(B2PLYPD3) =    -0.1783954090D+00 E(B2PLYPD3) =    -0.13268510878163D+03

 The electronic state is 1-A.
 Alpha  occ. eigenvalues --  -14.83754 -10.65684 -10.64523  -1.05256  -0.91282
 Alpha  occ. eigenvalues --   -0.62538  -0.57719  -0.51446  -0.44972  -0.40123
 Alpha  occ. eigenvalues --   -0.39254
 Alpha virt. eigenvalues --    0.03652   0.07853   0.09559   0.10141   0.11233
 Alpha virt. eigenvalues --    0.12176   0.15854   0.16845   0.17774   0.19799
 Alpha virt. eigenvalues --    0.20360   0.25930   0.33211   0.34571   0.36877

 Mulliken charges:
               1
     1  C   -0.051947
     2  C    0.009241
     3  N   -0.194565
     4  H    0.062606
     5  H    0.090942
     6  H    0.083722
 Sum of Mulliken charges =   0.00000

 Dipole moment (field-independent basis, Debye):
    X=              4.1193    Y=              0.0264    Z=             -0.0443  Tot=              4.1196
 Quadrupole moment (field-independent basis, Debye-Ang):
   XX=            -20.2422   YY=            -17.4851   ZZ=            -18.0183
   XY=             -0.1866   XZ=              0.3731   YZ=              0.0305

 Normal termination of Gaussian 09 at Wed Aug 26 21:31:50 2020.
