 Gaussian 09, Revision D.01,
 Gaussian 09:  ES64L-G09RevD.01 24-Apr-2013

 --------------------
 #p B2PLYPD3/Def2QZVP
 --------------------

 ------------
 cyanomethane
 ------------
 Symbolic Z-matrix:
 Charge =  0 Multiplicity = 1

                         Standard orientation:
 ---------------------------------------------------------------------
 Center     Atomic      Atomic             Coordinates (Angstroms)
 Number     Number       Type             X           Y           Z
 ---------------------------------------------------------------------
      1          6           0        1.176775    0.004467    0.000870
      2          6           0       -0.283109    0.003421   -0.012334
      3          7           0       -1.435795   -0.001636    0.010048
      4          1           0        1.602646   -0.503539    0.890692
      5          1           0        1.570536    1.018010   -0.026909
      6          1           0        1.515389   -0.550352   -0.865331
 ---------------------------------------------------------------------

 SCF Done:  E(RB2PLYPD3) =  -132.535003714     A.U. after   12 cycles
 E2(B2PLYPD3) =    -0.1804114269D+00 E(B2PLYPD3) =    -0.13271541514128D+03

 The electronic state is 1-A.
 Alpha  occ. eigenvalues --  -14.84199 -10.67252 -10.66276  -1.04205  -0.89052
 Alpha  occ. eigenvalues --   -0.59848  -0.54181  -0.53148  -0.44827  -0.39185
 Alpha  occ. eigenvalues --   -0.39064
 Alpha virt. eigenvalues --    0.03723   0.07608   0.08115   0.10179   0.11400
 Alpha virt. eigenvalues --    0.11579   0.15404   0.16109   0.16819   0.20047
 Alpha virt. eigenvalues --    0.20115   0.25318   0.32684   0.34394   0.34829

 Mulliken charges:
               1
     1  C   -0.082069
     2  C   -0.000799
     3  N   -0.204721
     4  H    0.093546
     5  H    0.097421
     6  H    0.096621
 Sum of Mulliken charges =   0.00000

 Dipole moment (field-independent basis, Debye):
    X=              4.1290    Y=             -0.0074    Z=             -0.0215  Tot=              4.1290
 Quadrupole moment (field-independent basis, Debye-Ang):
   XX=            -20.9320   YY=            -17.7265   ZZ=            -17.8309
   XY=             -0.0228   XZ=              0.1052   YZ=              0.0235

 Normal termination of Gaussian 09 at Wed Aug 26 09:57:35 2020.
