 Gaussian 09, Revision D.01,
 Gaussian 09:  ES64L-G09RevD.01 24-Apr-2013

 --------------------
 #p B2PLYPD3/Def2QZVP
 --------------------

 ------------
 cyanomethane
 ------------
 Symbolic Z-matrix:
 Charge =  0 Multiplicity = 1

                         Standard orientation:
 ---------------------------------------------------------------------
 Center     Atomic      Atomic             Coordinates (Angstroms)
 Number     Number       Type             X           Y           Z
 ---------------------------------------------------------------------
      1          6           0       -1.181517    0.018439    0.022393
      2          6           0        0.283891    0.050194   -0.000404
      3          7           0        1.452507   -0.041216    0.002567
      4          1           0       -1.420393    1.028263   -0.193610
      5          1           0       -1.720984   -0.444299    0.868530
      6          1           0       -1.640417   -0.707250   -0.824821
 ---------------------------------------------------------------------

 SCF Done:  E(RB2PLYPD3) =  -132.515806508     A.U. after   12 cycles
 E2(B2PLYPD3) =    -0.1830987239D+00 E(B2PLYPD3) =    -0.13269890523176D+03

 The electronic state is 1-A.
 Alpha  occ. eigenvalues --  -14.84926 -10.68260 -10.67087  -1.03553  -0.88550
 Alpha  occ. eigenvalues --   -0.60464  -0.55039  -0.50066  -0.45031  -0.38904
 Alpha  occ. eigenvalues --   -0.38264
 Alpha virt. eigenvalues --    0.03157   0.05989   0.07994   0.09812   0.10960
 Alpha virt. eigenvalues --    0.11935   0.14943   0.16088   0.17482   0.19883
 Alpha virt. eigenvalues --    0.20515   0.25319   0.31564   0.32790   0.35220

 Mulliken charges:
               1
     1  C   -0.086471
     2  C    0.008572
     3  N   -0.211448
     4  H    0.105788
     5  H    0.100126
     6  H    0.083433
 Sum of Mulliken charges =   0.00000

 Dipole moment (field-independent basis, Debye):
    X=             -4.1448    Y=              0.0239    Z=              0.0067  Tot=              4.1449
 Quadrupole moment (field-independent basis, Debye-Ang):
   XX=            -20.8362   YY=            -17.6631   ZZ=            -18.2814
   XY=              0.5451   XZ=             -0.0969   YZ=             -0.1446

 Normal termination of Gaussian 09 at Wed Aug 26 21:14:57 2020.
