 Gaussian 09, Revision D.01,
 Gaussian 09:  ES64L-G09RevD.01 24-Apr-2013

 --------------------
 #p B2PLYPD3/Def2QZVP
 --------------------

 ------------
 cyanomethane
 ------------
 Symbolic Z-matrix:
 Charge =  0 Multiplicity = 1

                         Standard orientation:
 ---------------------------------------------------------------------
 Center     Atomic      Atomic             Coordinates (Angstroms)
 Number     Number       Type             X           Y           Z
 ---------------------------------------------------------------------
      1          6           0        1.187784   -0.006741   -0.004568
      2          6           0       -0.273710    0.031351    0.019287
      3          7           0       -1.440812   -0.009068   -0.004505
      4          1           0        1.585264   -0.243710    0.952343
      5          1           0        1.595646    0.957355   -0.328802
      6          1           0        1.420332   -0.797832   -0.680315
 ---------------------------------------------------------------------

 SCF Done:  E(RB2PLYPD3) =  -132.532669755     A.U. after   12 cycles
 E2(B2PLYPD3) =    -0.1814842741D+00 E(B2PLYPD3) =    -0.13271415402865D+03

 The electronic state is 1-A.
 Alpha  occ. eigenvalues --  -14.84505 -10.66822 -10.66615  -1.03544  -0.89600
 Alpha  occ. eigenvalues --   -0.59641  -0.54798  -0.54037  -0.44754  -0.38778
 Alpha  occ. eigenvalues --   -0.38710
 Alpha virt. eigenvalues --    0.03794   0.07742   0.08065   0.10213   0.11182
 Alpha virt. eigenvalues --    0.11333   0.15199   0.15929   0.16402   0.20122
 Alpha virt. eigenvalues --    0.20184   0.25295   0.32489   0.34761   0.34859

 Mulliken charges:
               1
     1  C   -0.084797
     2  C   -0.000017
     3  N   -0.213654
     4  H    0.096585
     5  H    0.098249
     6  H    0.103635
 Sum of Mulliken charges =   0.00000

 Dipole moment (field-independent basis, Debye):
    X=              4.1518    Y=             -0.0098    Z=              0.0130  Tot=              4.1518
 Quadrupole moment (field-independent basis, Debye-Ang):
   XX=            -21.0604   YY=            -17.6698   ZZ=            -17.8485
   XY=              0.0248   XZ=              0.0897   YZ=              0.0175

 Normal termination of Gaussian 09 at Wed Aug 26 12:26:57 2020.
