 Gaussian 09, Revision D.01,
 Gaussian 09:  ES64L-G09RevD.01 24-Apr-2013

 --------------------
 #p B2PLYPD3/Def2QZVP
 --------------------

 ------------
 cyanomethane
 ------------
 Symbolic Z-matrix:
 Charge =  0 Multiplicity = 1

                         Standard orientation:
 ---------------------------------------------------------------------
 Center     Atomic      Atomic             Coordinates (Angstroms)
 Number     Number       Type             X           Y           Z
 ---------------------------------------------------------------------
      1          6           0        1.210581    0.004567    0.001215
      2          6           0       -0.267551    0.012049   -0.038223
      3          7           0       -1.454046   -0.012198    0.009409
      4          1           0        1.478228    1.034210   -0.264985
      5          1           0        1.647982   -0.807794   -0.668292
      6          1           0        1.393928   -0.240723    1.089462
 ---------------------------------------------------------------------

 SCF Done:  E(RB2PLYPD3) =  -132.522769501     A.U. after   13 cycles
 E2(B2PLYPD3) =    -0.1840320054D+00 E(B2PLYPD3) =    -0.13270680150652D+03

 The electronic state is 1-A.
 Alpha  occ. eigenvalues --  -14.84897 -10.68596 -10.67152  -1.02623  -0.88579
 Alpha  occ. eigenvalues --   -0.57977  -0.54658  -0.53071  -0.44578  -0.38233
 Alpha  occ. eigenvalues --   -0.37989
 Alpha virt. eigenvalues --    0.03416   0.06907   0.07746   0.10124   0.10810
 Alpha virt. eigenvalues --    0.11207   0.14728   0.15002   0.16148   0.20196
 Alpha virt. eigenvalues --    0.20292   0.24874   0.31565   0.33212   0.34393

 Mulliken charges:
               1
     1  C   -0.116864
     2  C    0.003435
     3  N   -0.222439
     4  H    0.114637
     5  H    0.108677
     6  H    0.112553
 Sum of Mulliken charges =   0.00000

 Dipole moment (field-independent basis, Debye):
    X=              4.1547    Y=              0.0098    Z=              0.0115  Tot=              4.1547
 Quadrupole moment (field-independent basis, Debye-Ang):
   XX=            -21.5765   YY=            -17.7022   ZZ=            -17.8772
   XY=             -0.1751   XZ=             -0.1008   YZ=             -0.0199

 Normal termination of Gaussian 09 at Wed Aug 26 21:58:37 2020.
