 Gaussian 09, Revision D.01,
 Gaussian 09:  ES64L-G09RevD.01 24-Apr-2013

 --------------------
 #p B2PLYPD3/Def2QZVP
 --------------------

 ------------
 cyanomethane
 ------------
 Symbolic Z-matrix:
 Charge =  0 Multiplicity = 1

                         Standard orientation:
 ---------------------------------------------------------------------
 Center     Atomic      Atomic             Coordinates (Angstroms)
 Number     Number       Type             X           Y           Z
 ---------------------------------------------------------------------
      1          6           0        1.196670   -0.010679   -0.010010
      2          6           0       -0.290371    0.019846   -0.026968
      3          7           0       -1.432742   -0.005806    0.017795
      4          1           0        1.473000   -0.909508   -0.546311
      5          1           0        1.562159   -0.059339    1.092784
      6          1           0        1.556239    0.954491   -0.449178
 ---------------------------------------------------------------------

 SCF Done:  E(RB2PLYPD3) =  -132.529876404     A.U. after   12 cycles
 E2(B2PLYPD3) =    -0.1800292725D+00 E(B2PLYPD3) =    -0.13270990567654D+03

 The electronic state is 1-A.
 Alpha  occ. eigenvalues --  -14.83778 -10.68412 -10.65900  -1.04409  -0.88119
 Alpha  occ. eigenvalues --   -0.57909  -0.54740  -0.52230  -0.44559  -0.39427
 Alpha  occ. eigenvalues --   -0.39125
 Alpha virt. eigenvalues --    0.03473   0.07555   0.08467   0.10225   0.11328
 Alpha virt. eigenvalues --    0.11670   0.15001   0.15890   0.16174   0.19979
 Alpha virt. eigenvalues --    0.20075   0.24803   0.32121   0.33214   0.34830

 Mulliken charges:
               1
     1  C   -0.111377
     2  C   -0.005371
     3  N   -0.199888
     4  H    0.111671
     5  H    0.099597
     6  H    0.105369
 Sum of Mulliken charges =   0.00000

 Dipole moment (field-independent basis, Debye):
    X=              4.0887    Y=              0.0086    Z=             -0.0211  Tot=              4.0888
 Quadrupole moment (field-independent basis, Debye-Ang):
   XX=            -21.3775   YY=            -17.5826   ZZ=            -17.7907
   XY=              0.0341   XZ=              0.1694   YZ=              0.0494

 Normal termination of Gaussian 09 at Wed Aug 26 12:35:39 2020.
