 Gaussian 09, Revision D.01,
 Gaussian 09:  ES64L-G09RevD.01 24-Apr-2013

 --------------------
 #p B2PLYPD3/Def2QZVP
 --------------------

 ------------
 cyanomethane
 ------------
 Symbolic Z-matrix:
 Charge =  0 Multiplicity = 1

                         Standard orientation:
 ---------------------------------------------------------------------
 Center     Atomic      Atomic             Coordinates (Angstroms)
 Number     Number       Type             X           Y           Z
 ---------------------------------------------------------------------
      1          6           0        1.180592   -0.008153   -0.008385
      2          6           0       -0.281365   -0.005257   -0.023836
      3          7           0       -1.441655    0.004588    0.007925
      4          1           0        1.598275    1.031067   -0.226718
      5          1           0        1.610850   -0.738043   -0.651762
      6          1           0        1.487098   -0.244687    1.016332
 ---------------------------------------------------------------------

 SCF Done:  E(RB2PLYPD3) =  -132.532214247     A.U. after   12 cycles
 E2(B2PLYPD3) =    -0.1812127356D+00 E(B2PLYPD3) =    -0.13271342698250D+03

 The electronic state is 1-A.
 Alpha  occ. eigenvalues --  -14.84430 -10.67516 -10.66554  -1.03893  -0.88936
 Alpha  occ. eigenvalues --   -0.59905  -0.54190  -0.52798  -0.44857  -0.39070
 Alpha  occ. eigenvalues --   -0.38777
 Alpha virt. eigenvalues --    0.03639   0.07367   0.07925   0.10183   0.11227
 Alpha virt. eigenvalues --    0.11610   0.15333   0.15920   0.16926   0.20067
 Alpha virt. eigenvalues --    0.20159   0.25258   0.32312   0.33897   0.34980

 Mulliken charges:
               1
     1  C   -0.084781
     2  C    0.001898
     3  N   -0.208449
     4  H    0.094939
     5  H    0.100180
     6  H    0.096213
 Sum of Mulliken charges =   0.00000

 Dipole moment (field-independent basis, Debye):
    X=              4.1413    Y=             -0.0233    Z=              0.0243  Tot=              4.1414
 Quadrupole moment (field-independent basis, Debye-Ang):
   XX=            -20.9604   YY=            -17.7245   ZZ=            -17.9070
   XY=              0.0041   XZ=              0.0344   YZ=              0.0514

 Normal termination of Gaussian 09 at Wed Aug 26 12:35:28 2020.
