 Gaussian 09, Revision D.01,
 Gaussian 09:  ES64L-G09RevD.01 24-Apr-2013

 --------------------
 #p B2PLYPD3/Def2QZVP
 --------------------

 ------------
 cyanomethane
 ------------
 Symbolic Z-matrix:
 Charge =  0 Multiplicity = 1

                         Standard orientation:
 ---------------------------------------------------------------------
 Center     Atomic      Atomic             Coordinates (Angstroms)
 Number     Number       Type             X           Y           Z
 ---------------------------------------------------------------------
      1          6           0       -1.174895    0.003443   -0.004404
      2          6           0        0.269087   -0.025863    0.003650
      3          7           0        1.431831    0.013260   -0.000671
      4          1           0       -1.540164   -0.014515    0.987419
      5          1           0       -1.521873   -0.850546   -0.513309
      6          1           0       -1.525933    0.906760   -0.464887
 ---------------------------------------------------------------------

 SCF Done:  E(RB2PLYPD3) =  -132.533395773     A.U. after   11 cycles
 E2(B2PLYPD3) =    -0.1808751592D+00 E(B2PLYPD3) =    -0.13271427093261D+03

 The electronic state is 1-A.
 Alpha  occ. eigenvalues --  -14.84360 -10.66380 -10.66143  -1.03772  -0.90176
 Alpha  occ. eigenvalues --   -0.60125  -0.55192  -0.54387  -0.44778  -0.38863
 Alpha  occ. eigenvalues --   -0.38781
 Alpha virt. eigenvalues --    0.03875   0.07899   0.08255   0.10148   0.11254
 Alpha virt. eigenvalues --    0.11438   0.15517   0.16020   0.16432   0.20117
 Alpha virt. eigenvalues --    0.20190   0.25603   0.32994   0.34844   0.35156

 Mulliken charges:
               1
     1  C   -0.074677
     2  C   -0.000852
     3  N   -0.211984
     4  H    0.093651
     5  H    0.097105
     6  H    0.096757
 Sum of Mulliken charges =   0.00000

 Dipole moment (field-independent basis, Debye):
    X=             -4.1429    Y=             -0.0176    Z=              0.0151  Tot=              4.1429
 Quadrupole moment (field-independent basis, Debye-Ang):
   XX=            -20.9827   YY=            -17.6431   ZZ=            -17.7872
   XY=             -0.0728   XZ=             -0.0457   YZ=              0.0161

 Normal termination of Gaussian 09 at Thu Aug 27 00:11:45 2020.
