 Gaussian 09, Revision D.01,
 Gaussian 09:  ES64L-G09RevD.01 24-Apr-2013

 --------------------
 #p B2PLYPD3/Def2QZVP
 --------------------

 ------------
 cyanomethane
 ------------
 Symbolic Z-matrix:
 Charge =  0 Multiplicity = 1

                         Standard orientation:
 ---------------------------------------------------------------------
 Center     Atomic      Atomic             Coordinates (Angstroms)
 Number     Number       Type             X           Y           Z
 ---------------------------------------------------------------------
      1          6           0        1.188104   -0.010962   -0.029068
      2          6           0       -0.290720    0.023805   -0.027939
      3          7           0       -1.432874   -0.017010    0.028990
      4          1           0        1.729229   -0.274097    0.949391
      5          1           0        1.435444    0.988198   -0.167939
      6          1           0        1.481145   -0.672093   -0.642340
 ---------------------------------------------------------------------

 SCF Done:  E(RB2PLYPD3) =  -132.509842933     A.U. after   12 cycles
 E2(B2PLYPD3) =    -0.1794896428D+00 E(B2PLYPD3) =    -0.13268933257629D+03

 The electronic state is 1-A.
 Alpha  occ. eigenvalues --  -14.83976 -10.66051 -10.65884  -1.04555  -0.90269
 Alpha  occ. eigenvalues --   -0.60512  -0.57636  -0.51383  -0.44765  -0.39799
 Alpha  occ. eigenvalues --   -0.39083
 Alpha virt. eigenvalues --    0.03592   0.07568   0.09652   0.10209   0.10968
 Alpha virt. eigenvalues --    0.11775   0.15296   0.15920   0.17387   0.19915
 Alpha virt. eigenvalues --    0.20229   0.25003   0.32176   0.34084   0.36402

 Mulliken charges:
               1
     1  C   -0.083950
     2  C   -0.001312
     3  N   -0.201031
     4  H    0.077711
     5  H    0.100043
     6  H    0.108539
 Sum of Mulliken charges =   0.00000

 Dipole moment (field-independent basis, Debye):
    X=              4.1195    Y=              0.0405    Z=             -0.0427  Tot=              4.1200
 Quadrupole moment (field-independent basis, Debye-Ang):
   XX=            -20.7651   YY=            -17.5039   ZZ=            -17.9605
   XY=             -0.1706   XZ=              0.3652   YZ=              0.1578

 Normal termination of Gaussian 09 at Wed Aug 26 18:54:10 2020.
