 Gaussian 09, Revision D.01,
 Gaussian 09:  ES64L-G09RevD.01 24-Apr-2013

 --------------------
 #p B2PLYPD3/Def2QZVP
 --------------------

 ------------
 cyanomethane
 ------------
 Symbolic Z-matrix:
 Charge =  0 Multiplicity = 1

                         Standard orientation:
 ---------------------------------------------------------------------
 Center     Atomic      Atomic             Coordinates (Angstroms)
 Number     Number       Type             X           Y           Z
 ---------------------------------------------------------------------
      1          6           0       -1.183678   -0.003181   -0.005844
      2          6           0        0.273973    0.007055    0.021648
      3          7           0        1.436180   -0.004586   -0.010301
      4          1           0       -1.514433    1.010069   -0.103058
      5          1           0       -1.543686   -0.417741    0.902759
      6          1           0       -1.536905   -0.583471   -0.822417
 ---------------------------------------------------------------------

 SCF Done:  E(RB2PLYPD3) =  -132.534120217     A.U. after   11 cycles
 E2(B2PLYPD3) =    -0.1808497469D+00 E(B2PLYPD3) =    -0.13271496996441D+03

 The electronic state is 1-A.
 Alpha  occ. eigenvalues --  -14.84354 -10.66444 -10.66389  -1.03759  -0.89859
 Alpha  occ. eigenvalues --   -0.59761  -0.54703  -0.54648  -0.44750  -0.38902
 Alpha  occ. eigenvalues --   -0.38873
 Alpha virt. eigenvalues --    0.03862   0.08013   0.08231   0.10171   0.11264
 Alpha virt. eigenvalues --    0.11321   0.15410   0.15969   0.16399   0.20135
 Alpha virt. eigenvalues --    0.20148   0.25342   0.32806   0.34874   0.35059

 Mulliken charges:
               1
     1  C   -0.078834
     2  C   -0.001758
     3  N   -0.211275
     4  H    0.097510
     5  H    0.096465
     6  H    0.097892
 Sum of Mulliken charges =   0.00000

 Dipole moment (field-independent basis, Debye):
    X=             -4.1440    Y=              0.0047    Z=              0.0149  Tot=              4.1440
 Quadrupole moment (field-independent basis, Debye-Ang):
   XX=            -21.0233   YY=            -17.7026   ZZ=            -17.7414
   XY=              0.0503   XZ=              0.0444   YZ=              0.0016

 Normal termination of Gaussian 09 at Wed Aug 26 23:56:04 2020.
