 Gaussian 09, Revision D.01,
 Gaussian 09:  ES64L-G09RevD.01 24-Apr-2013

 --------------------
 #p B2PLYPD3/Def2QZVP
 --------------------

 ------------
 cyanomethane
 ------------
 Symbolic Z-matrix:
 Charge =  0 Multiplicity = 1

                         Standard orientation:
 ---------------------------------------------------------------------
 Center     Atomic      Atomic             Coordinates (Angstroms)
 Number     Number       Type             X           Y           Z
 ---------------------------------------------------------------------
      1          6           0        1.177719   -0.000026   -0.009344
      2          6           0       -0.277002    0.003320   -0.012664
      3          7           0       -1.431293   -0.002156    0.010390
      4          1           0        1.577973   -0.029882    0.993549
      5          1           0        1.514402    0.892872   -0.443333
      6          1           0        1.522377   -0.867663   -0.490901
 ---------------------------------------------------------------------

 SCF Done:  E(RB2PLYPD3) =  -132.533466214     A.U. after   11 cycles
 E2(B2PLYPD3) =    -0.1801119845D+00 E(B2PLYPD3) =    -0.13271357819853D+03

 The electronic state is 1-A.
 Alpha  occ. eigenvalues --  -14.84149 -10.66210 -10.66152  -1.04109  -0.89993
 Alpha  occ. eigenvalues --   -0.60068  -0.55741  -0.53555  -0.44761  -0.39213
 Alpha  occ. eigenvalues --   -0.38976
 Alpha virt. eigenvalues --    0.03890   0.07987   0.08549   0.10195   0.11207
 Alpha virt. eigenvalues --    0.11590   0.15464   0.16300   0.16434   0.20040
 Alpha virt. eigenvalues --    0.20168   0.25387   0.32967   0.34627   0.35566

 Mulliken charges:
               1
     1  C   -0.072775
     2  C   -0.002343
     3  N   -0.207261
     4  H    0.088326
     5  H    0.097223
     6  H    0.096829
 Sum of Mulliken charges =   0.00000

 Dipole moment (field-independent basis, Debye):
    X=              4.1380    Y=              0.0019    Z=              0.0044  Tot=              4.1380
 Quadrupole moment (field-independent basis, Debye-Ang):
   XX=            -20.9197   YY=            -17.5716   ZZ=            -17.8522
   XY=             -0.0224   XZ=              0.1563   YZ=              0.0008

 Normal termination of Gaussian 09 at Thu Aug 27 00:13:19 2020.
