 Gaussian 09, Revision D.01,
 Gaussian 09:  ES64L-G09RevD.01 24-Apr-2013

 --------------------
 #p B2PLYPD3/Def2QZVP
 --------------------

 ------------
 cyanomethane
 ------------
 Symbolic Z-matrix:
 Charge =  0 Multiplicity = 1

                         Standard orientation:
 ---------------------------------------------------------------------
 Center     Atomic      Atomic             Coordinates (Angstroms)
 Number     Number       Type             X           Y           Z
 ---------------------------------------------------------------------
      1          6           0        1.178968   -0.024279    0.003724
      2          6           0       -0.294596   -0.010622   -0.000234
      3          7           0       -1.445381    0.014102   -0.002414
      4          1           0        1.683062    1.069487   -0.212713
      5          1           0        1.575930   -0.676361   -0.729071
      6          1           0        1.552441   -0.282438    0.937744
 ---------------------------------------------------------------------

 SCF Done:  E(RB2PLYPD3) =  -132.523398862     A.U. after   12 cycles
 E2(B2PLYPD3) =    -0.1806044808D+00 E(B2PLYPD3) =    -0.13270400334333D+03

 The electronic state is 1-A.
 Alpha  occ. eigenvalues --  -14.84363 -10.67686 -10.66499  -1.04386  -0.88678
 Alpha  occ. eigenvalues --   -0.60304  -0.54875  -0.50993  -0.44984  -0.39546
 Alpha  occ. eigenvalues --   -0.39025
 Alpha virt. eigenvalues --    0.03306   0.06942   0.08410   0.10198   0.11224
 Alpha virt. eigenvalues --    0.11769   0.15344   0.16557   0.17000   0.19966
 Alpha virt. eigenvalues --    0.20125   0.25033   0.31222   0.33573   0.35657

 Mulliken charges:
               1
     1  C   -0.078445
     2  C    0.003092
     3  N   -0.201833
     4  H    0.081866
     5  H    0.097763
     6  H    0.097556
 Sum of Mulliken charges =   0.00000

 Dipole moment (field-independent basis, Debye):
    X=              4.1234    Y=             -0.0713    Z=              0.0318  Tot=              4.1242
 Quadrupole moment (field-independent basis, Debye-Ang):
   XX=            -20.7481   YY=            -17.8737   ZZ=            -17.8835
   XY=              0.0801   XZ=              0.0130   YZ=              0.0633

 Normal termination of Gaussian 09 at Wed Aug 26 21:08:45 2020.
