 Gaussian 09, Revision D.01,
 Gaussian 09:  ES64L-G09RevD.01 24-Apr-2013

 --------------------
 #p B2PLYPD3/Def2QZVP
 --------------------

 ------------
 cyanomethane
 ------------
 Symbolic Z-matrix:
 Charge =  0 Multiplicity = 1

                         Standard orientation:
 ---------------------------------------------------------------------
 Center     Atomic      Atomic             Coordinates (Angstroms)
 Number     Number       Type             X           Y           Z
 ---------------------------------------------------------------------
      1          6           0       -1.182470   -0.011629   -0.000656
      2          6           0        0.258212    0.056328   -0.001236
      3          7           0        1.440910   -0.036739   -0.001648
      4          1           0       -1.410154    1.024333   -0.249494
      5          1           0       -1.512979   -0.282937    0.980784
      6          1           0       -1.617686   -0.752418   -0.708400
 ---------------------------------------------------------------------

 SCF Done:  E(RB2PLYPD3) =  -132.524558240     A.U. after   13 cycles
 E2(B2PLYPD3) =    -0.1835816235D+00 E(B2PLYPD3) =    -0.13270813986328D+03

 The electronic state is 1-A.
 Alpha  occ. eigenvalues --  -14.84953 -10.67179 -10.67019  -1.02887  -0.89775
 Alpha  occ. eigenvalues --   -0.59862  -0.54786  -0.53607  -0.44792  -0.38173
 Alpha  occ. eigenvalues --   -0.38063
 Alpha virt. eigenvalues --    0.03562   0.06768   0.07936   0.09819   0.11107
 Alpha virt. eigenvalues --    0.11348   0.14831   0.15593   0.16805   0.20179
 Alpha virt. eigenvalues --    0.20372   0.25752   0.32552   0.34164   0.34446

 Mulliken charges:
               1
     1  C   -0.095174
     2  C    0.005346
     3  N   -0.221863
     4  H    0.105892
     5  H    0.103669
     6  H    0.102129
 Sum of Mulliken charges =   0.00000

 Dipole moment (field-independent basis, Debye):
    X=             -4.1369    Y=              0.0356    Z=              0.0223  Tot=              4.1371
 Quadrupole moment (field-independent basis, Debye-Ang):
   XX=            -21.2719   YY=            -17.6542   ZZ=            -17.9069
   XY=              0.3653   XZ=             -0.0024   YZ=             -0.0297

 Normal termination of Gaussian 09 at Wed Aug 26 23:25:36 2020.
