 Gaussian 09, Revision D.01,
 Gaussian 09:  ES64L-G09RevD.01 24-Apr-2013

 --------------------
 #p B2PLYPD3/Def2QZVP
 --------------------

 ------------
 cyanomethane
 ------------
 Symbolic Z-matrix:
 Charge =  0 Multiplicity = 1

                         Standard orientation:
 ---------------------------------------------------------------------
 Center     Atomic      Atomic             Coordinates (Angstroms)
 Number     Number       Type             X           Y           Z
 ---------------------------------------------------------------------
      1          6           0       -1.178398    0.001200    0.001294
      2          6           0        0.278043    0.011957    0.002671
      3          7           0        1.439754   -0.006998   -0.003049
      4          1           0       -1.550814    1.020555   -0.005900
      5          1           0       -1.544447   -0.520949    0.870820
      6          1           0       -1.580889   -0.529562   -0.867365
 ---------------------------------------------------------------------

 SCF Done:  E(RB2PLYPD3) =  -132.534823571     A.U. after   11 cycles
 E2(B2PLYPD3) =    -0.1810740446D+00 E(B2PLYPD3) =    -0.13271589761549D+03

 The electronic state is 1-A.
 Alpha  occ. eigenvalues --  -14.84436 -10.67036 -10.66513  -1.03846  -0.89308
 Alpha  occ. eigenvalues --   -0.60017  -0.54327  -0.53483  -0.44851  -0.38956
 Alpha  occ. eigenvalues --   -0.38865
 Alpha virt. eigenvalues --    0.03762   0.07632   0.07915   0.10162   0.11288
 Alpha virt. eigenvalues --    0.11478   0.15409   0.16279   0.16490   0.20084
 Alpha virt. eigenvalues --    0.20158   0.25360   0.32667   0.34555   0.34841

 Mulliken charges:
               1
     1  C   -0.078530
     2  C    0.000226
     3  N   -0.209374
     4  H    0.097449
     5  H    0.096156
     6  H    0.094072
 Sum of Mulliken charges =   0.00000

 Dipole moment (field-independent basis, Debye):
    X=             -4.1451    Y=             -0.0027    Z=              0.0070  Tot=              4.1451
 Quadrupole moment (field-independent basis, Debye-Ang):
   XX=            -20.9357   YY=            -17.7203   ZZ=            -17.8615
   XY=              0.0800   XZ=              0.0376   YZ=             -0.0156

 Normal termination of Gaussian 09 at Wed Aug 26 23:58:04 2020.
