 Gaussian 09, Revision D.01,
 Gaussian 09:  ES64L-G09RevD.01 24-Apr-2013

 --------------------
 #p B2PLYPD3/Def2QZVP
 --------------------

 ------------
 cyanomethane
 ------------
 Symbolic Z-matrix:
 Charge =  0 Multiplicity = 1

                         Standard orientation:
 ---------------------------------------------------------------------
 Center     Atomic      Atomic             Coordinates (Angstroms)
 Number     Number       Type             X           Y           Z
 ---------------------------------------------------------------------
      1          6           0        1.183466   -0.005394   -0.018044
      2          6           0       -0.259198   -0.037362   -0.029621
      3          7           0       -1.424518    0.018828    0.029322
      4          1           0        1.357675   -0.641961   -0.806678
      5          1           0        1.626430   -0.357699    1.030129
      6          1           0        1.441911    1.124399   -0.142715
 ---------------------------------------------------------------------

 SCF Done:  E(RB2PLYPD3) =  -132.513693175     A.U. after   12 cycles
 E2(B2PLYPD3) =    -0.1825422736D+00 E(B2PLYPD3) =    -0.13269623544874D+03

 The electronic state is 1-A.
 Alpha  occ. eigenvalues --  -14.84268 -10.68216 -10.66320  -1.03501  -0.89482
 Alpha  occ. eigenvalues --   -0.57651  -0.56363  -0.51938  -0.44536  -0.38527
 Alpha  occ. eigenvalues --   -0.38131
 Alpha virt. eigenvalues --    0.03210   0.06280   0.08718   0.10078   0.11013
 Alpha virt. eigenvalues --    0.11774   0.14786   0.15170   0.16250   0.20105
 Alpha virt. eigenvalues --    0.20273   0.25454   0.31787   0.32429   0.34704

 Mulliken charges:
               1
     1  C   -0.121837
     2  C    0.002205
     3  N   -0.215696
     4  H    0.120613
     5  H    0.103159
     6  H    0.111557
 Sum of Mulliken charges =   0.00000

 Dipole moment (field-independent basis, Debye):
    X=              4.0622    Y=             -0.0095    Z=             -0.0291  Tot=              4.0624
 Quadrupole moment (field-independent basis, Debye-Ang):
   XX=            -21.7202   YY=            -17.6101   ZZ=            -17.7033
   XY=              0.1034   XZ=              0.3971   YZ=              0.1342

 Normal termination of Gaussian 09 at Wed Aug 26 20:13:08 2020.
