 Gaussian 09, Revision D.01,
 Gaussian 09:  ES64L-G09RevD.01 24-Apr-2013

 --------------------
 #p B2PLYPD3/Def2QZVP
 --------------------

 ------------
 cyanomethane
 ------------
 Symbolic Z-matrix:
 Charge =  0 Multiplicity = 1

                         Standard orientation:
 ---------------------------------------------------------------------
 Center     Atomic      Atomic             Coordinates (Angstroms)
 Number     Number       Type             X           Y           Z
 ---------------------------------------------------------------------
      1          6           0        1.165909   -0.012361    0.013826
      2          6           0       -0.283706    0.017925   -0.030284
      3          7           0       -1.424505   -0.005115    0.014688
      4          1           0        1.527132   -0.782190   -0.669517
      5          1           0        1.554788   -0.190484    1.001865
      6          1           0        1.596397    0.975102   -0.336418
 ---------------------------------------------------------------------

 SCF Done:  E(RB2PLYPD3) =  -132.534495645     A.U. after   12 cycles
 E2(B2PLYPD3) =    -0.1795837819D+00 E(B2PLYPD3) =    -0.13271407942721D+03

 The electronic state is 1-A.
 Alpha  occ. eigenvalues --  -14.83877 -10.67292 -10.65887  -1.04677  -0.89017
 Alpha  occ. eigenvalues --   -0.59913  -0.54152  -0.52878  -0.44805  -0.39424
 Alpha  occ. eigenvalues --   -0.39222
 Alpha virt. eigenvalues --    0.03717   0.07683   0.08096   0.10145   0.11606
 Alpha virt. eigenvalues --    0.11780   0.15510   0.16163   0.16901   0.20017
 Alpha virt. eigenvalues --    0.20040   0.25604   0.32704   0.34190   0.34990

 Mulliken charges:
               1
     1  C   -0.085036
     2  C   -0.001417
     3  N   -0.199016
     4  H    0.096642
     5  H    0.098797
     6  H    0.090030
 Sum of Mulliken charges =   0.00000

 Dipole moment (field-independent basis, Debye):
    X=              4.0942    Y=              0.0009    Z=             -0.0200  Tot=              4.0943
 Quadrupole moment (field-independent basis, Debye-Ang):
   XX=            -20.9485   YY=            -17.7661   ZZ=            -17.7119
   XY=              0.0089   XZ=              0.0924   YZ=              0.0290

 Normal termination of Gaussian 09 at Wed Aug 26 12:31:09 2020.
