 Gaussian 09, Revision D.01,
 Gaussian 09:  ES64L-G09RevD.01 24-Apr-2013

 --------------------
 #p B2PLYPD3/Def2QZVP
 --------------------

 ------------
 cyanomethane
 ------------
 Symbolic Z-matrix:
 Charge =  0 Multiplicity = 1

                         Standard orientation:
 ---------------------------------------------------------------------
 Center     Atomic      Atomic             Coordinates (Angstroms)
 Number     Number       Type             X           Y           Z
 ---------------------------------------------------------------------
      1          6           0        1.160823   -0.001642    0.005675
      2          6           0       -0.263560    0.003034   -0.042167
      3          7           0       -1.437541    0.002894    0.015955
      4          1           0        1.644280    0.928618   -0.388201
      5          1           0        1.555349   -0.861339   -0.533669
      6          1           0        1.479577   -0.095885    1.029144
 ---------------------------------------------------------------------

 SCF Done:  E(RB2PLYPD3) =  -132.530949344     A.U. after   12 cycles
 E2(B2PLYPD3) =    -0.1824667474D+00 E(B2PLYPD3) =    -0.13271341609183D+03

 The electronic state is 1-A.
 Alpha  occ. eigenvalues --  -14.84806 -10.67011 -10.66803  -1.03428  -0.89714
 Alpha  occ. eigenvalues --   -0.60718  -0.54136  -0.53469  -0.44971  -0.38481
 Alpha  occ. eigenvalues --   -0.38391
 Alpha virt. eigenvalues --    0.03705   0.06939   0.07402   0.10079   0.11322
 Alpha virt. eigenvalues --    0.11562   0.15594   0.16062   0.16716   0.20163
 Alpha virt. eigenvalues --    0.20226   0.25989   0.32578   0.34582   0.34603

 Mulliken charges:
               1
     1  C   -0.075722
     2  C    0.004790
     3  N   -0.215559
     4  H    0.093326
     5  H    0.095633
     6  H    0.097531
 Sum of Mulliken charges =   0.00000

 Dipole moment (field-independent basis, Debye):
    X=              4.1541    Y=             -0.0189    Z=              0.0123  Tot=              4.1542
 Quadrupole moment (field-independent basis, Debye-Ang):
   XX=            -20.8931   YY=            -17.7822   ZZ=            -17.8991
   XY=              0.0553   XZ=              0.0643   YZ=              0.0187

 Normal termination of Gaussian 09 at Wed Aug 26 12:38:06 2020.
