 Gaussian 09, Revision D.01,
 Gaussian 09:  ES64L-G09RevD.01 24-Apr-2013

 --------------------
 #p B2PLYPD3/Def2QZVP
 --------------------

 ------------
 cyanomethane
 ------------
 Symbolic Z-matrix:
 Charge =  0 Multiplicity = 1

                         Standard orientation:
 ---------------------------------------------------------------------
 Center     Atomic      Atomic             Coordinates (Angstroms)
 Number     Number       Type             X           Y           Z
 ---------------------------------------------------------------------
      1          6           0       -1.184305    0.009937    0.018792
      2          6           0        0.257052   -0.066385   -0.045664
      3          7           0        1.426827    0.025926    0.019502
      4          1           0       -1.556351   -0.566489   -0.797377
      5          1           0       -1.384910    1.076903   -0.128789
      6          1           0       -1.483012   -0.353209    0.950885
 ---------------------------------------------------------------------

 SCF Done:  E(RB2PLYPD3) =  -132.528246331     A.U. after   12 cycles
 E2(B2PLYPD3) =    -0.1821491235D+00 E(B2PLYPD3) =    -0.13271039545405D+03

 The electronic state is 1-A.
 Alpha  occ. eigenvalues --  -14.84490 -10.66537 -10.66478  -1.03255  -0.90223
 Alpha  occ. eigenvalues --   -0.58943  -0.55808  -0.54750  -0.44609  -0.38487
 Alpha  occ. eigenvalues --   -0.38267
 Alpha virt. eigenvalues --    0.03668   0.07861   0.08121   0.10076   0.11040
 Alpha virt. eigenvalues --    0.11314   0.15098   0.15559   0.15998   0.20133
 Alpha virt. eigenvalues --    0.20251   0.25840   0.32835   0.34068   0.35203

 Mulliken charges:
               1
     1  C   -0.097801
     2  C    0.000848
     3  N   -0.219808
     4  H    0.100933
     5  H    0.108031
     6  H    0.107797
 Sum of Mulliken charges =   0.00000

 Dipole moment (field-independent basis, Debye):
    X=             -4.1082    Y=             -0.0246    Z=             -0.0271  Tot=              4.1084
 Quadrupole moment (field-independent basis, Debye-Ang):
   XX=            -21.4067   YY=            -17.6505   ZZ=            -17.6554
   XY=              0.0020   XZ=             -0.0451   YZ=             -0.0468

 Normal termination of Gaussian 09 at Wed Aug 26 21:55:33 2020.
