 Gaussian 09, Revision D.01,
 Gaussian 09:  ES64L-G09RevD.01 24-Apr-2013

 --------------------
 #p B2PLYPD3/Def2QZVP
 --------------------

 ------------
 cyanomethane
 ------------
 Symbolic Z-matrix:
 Charge =  0 Multiplicity = 1

                         Standard orientation:
 ---------------------------------------------------------------------
 Center     Atomic      Atomic             Coordinates (Angstroms)
 Number     Number       Type             X           Y           Z
 ---------------------------------------------------------------------
      1          6           0        1.170959    0.002134   -0.007664
      2          6           0       -0.284574    0.009837   -0.018425
      3          7           0       -1.439240   -0.010184    0.015864
      4          1           0        1.674438   -0.388322    0.979999
      5          1           0        1.512728    1.046455   -0.136450
      6          1           0        1.569201   -0.658668   -0.798067
 ---------------------------------------------------------------------

 SCF Done:  E(RB2PLYPD3) =  -132.528822391     A.U. after   12 cycles
 E2(B2PLYPD3) =    -0.1812242642D+00 E(B2PLYPD3) =    -0.13271004665505D+03

 The electronic state is 1-A.
 Alpha  occ. eigenvalues --  -14.84369 -10.68245 -10.66450  -1.04182  -0.88390
 Alpha  occ. eigenvalues --   -0.59755  -0.54001  -0.51562  -0.44929  -0.39133
 Alpha  occ. eigenvalues --   -0.38842
 Alpha virt. eigenvalues --    0.03430   0.06729   0.07837   0.10137   0.11378
 Alpha virt. eigenvalues --    0.11787   0.15352   0.16154   0.16971   0.19997
 Alpha virt. eigenvalues --    0.20182   0.25415   0.32187   0.33548   0.34565

 Mulliken charges:
               1
     1  C   -0.089818
     2  C    0.002619
     3  N   -0.204079
     4  H    0.090908
     5  H    0.100622
     6  H    0.099749
 Sum of Mulliken charges =   0.00000

 Dipole moment (field-independent basis, Debye):
    X=              4.1167    Y=              0.0162    Z=             -0.0333  Tot=              4.1168
 Quadrupole moment (field-independent basis, Debye-Ang):
   XX=            -20.9354   YY=            -17.7531   ZZ=            -17.9646
   XY=             -0.1414   XZ=              0.1636   YZ=              0.0547

 Normal termination of Gaussian 09 at Wed Aug 26 12:29:38 2020.
