 Gaussian 09, Revision D.01,
 Gaussian 09:  ES64L-G09RevD.01 24-Apr-2013

 --------------------
 #p B2PLYPD3/Def2QZVP
 --------------------

 ------------
 cyanomethane
 ------------
 Symbolic Z-matrix:
 Charge =  0 Multiplicity = 1

                         Standard orientation:
 ---------------------------------------------------------------------
 Center     Atomic      Atomic             Coordinates (Angstroms)
 Number     Number       Type             X           Y           Z
 ---------------------------------------------------------------------
      1          6           0        1.190341    0.001345    0.006211
      2          6           0       -0.285445    0.026932   -0.029737
      3          7           0       -1.436577   -0.021346    0.015613
      4          1           0        1.593789   -0.481852    0.918336
      5          1           0        1.446762    1.021428   -0.029512
      6          1           0        1.586106   -0.559813   -0.856956
 ---------------------------------------------------------------------

 SCF Done:  E(RB2PLYPD3) =  -132.532104844     A.U. after   12 cycles
 E2(B2PLYPD3) =    -0.1804341867D+00 E(B2PLYPD3) =    -0.13271253903045D+03

 The electronic state is 1-A.
 Alpha  occ. eigenvalues --  -14.84141 -10.67274 -10.66236  -1.04125  -0.89030
 Alpha  occ. eigenvalues --   -0.59122  -0.54905  -0.53019  -0.44718  -0.39183
 Alpha  occ. eigenvalues --   -0.39096
 Alpha virt. eigenvalues --    0.03659   0.07539   0.08673   0.10167   0.11215
 Alpha virt. eigenvalues --    0.11508   0.15210   0.15681   0.16865   0.20028
 Alpha virt. eigenvalues --    0.20137   0.25108   0.32553   0.34351   0.34920

 Mulliken charges:
               1
     1  C   -0.091396
     2  C   -0.002759
     3  N   -0.205273
     4  H    0.097878
     5  H    0.104116
     6  H    0.097434
 Sum of Mulliken charges =   0.00000

 Dipole moment (field-independent basis, Debye):
    X=              4.1185    Y=              0.0344    Z=             -0.0208  Tot=              4.1187
 Quadrupole moment (field-independent basis, Debye-Ang):
   XX=            -21.0807   YY=            -17.6729   ZZ=            -17.7997
   XY=             -0.2391   XZ=              0.1011   YZ=              0.0078

 Normal termination of Gaussian 09 at Wed Aug 26 15:24:14 2020.
