 Gaussian 09, Revision D.01,
 Gaussian 09:  ES64L-G09RevD.01 24-Apr-2013

 --------------------
 #p B2PLYPD3/Def2QZVP
 --------------------

 ------------
 cyanomethane
 ------------
 Symbolic Z-matrix:
 Charge =  0 Multiplicity = 1

                         Standard orientation:
 ---------------------------------------------------------------------
 Center     Atomic      Atomic             Coordinates (Angstroms)
 Number     Number       Type             X           Y           Z
 ---------------------------------------------------------------------
      1          6           0       -1.175742    0.004427   -0.011800
      2          6           0        0.274653    0.024909    0.011631
      3          7           0        1.446887   -0.015582   -0.005665
      4          1           0       -1.547861    1.053479   -0.017744
      5          1           0       -1.575628   -0.532644    0.924599
      6          1           0       -1.598183   -0.587784   -0.866188
 ---------------------------------------------------------------------

 SCF Done:  E(RB2PLYPD3) =  -132.528551382     A.U. after   12 cycles
 E2(B2PLYPD3) =    -0.1827331883D+00 E(B2PLYPD3) =    -0.13271128457042D+03

 The electronic state is 1-A.
 Alpha  occ. eigenvalues --  -14.84807 -10.68302 -10.66900  -1.03447  -0.88528
 Alpha  occ. eigenvalues --   -0.59750  -0.53846  -0.52097  -0.44944  -0.38661
 Alpha  occ. eigenvalues --   -0.38400
 Alpha virt. eigenvalues --    0.03477   0.06675   0.07271   0.10070   0.11187
 Alpha virt. eigenvalues --    0.11609   0.15303   0.16021   0.16651   0.20079
 Alpha virt. eigenvalues --    0.20240   0.25483   0.32182   0.33417   0.34461

 Mulliken charges:
               1
     1  C   -0.091712
     2  C    0.004890
     3  N   -0.212627
     4  H    0.103372
     5  H    0.095305
     6  H    0.100772
 Sum of Mulliken charges =   0.00000

 Dipole moment (field-independent basis, Debye):
    X=             -4.1401    Y=              0.0024    Z=              0.0106  Tot=              4.1401
 Quadrupole moment (field-independent basis, Debye-Ang):
   XX=            -21.0556   YY=            -17.7392   ZZ=            -18.0139
   XY=              0.1675   XZ=              0.0308   YZ=              0.0287

 Normal termination of Gaussian 09 at Wed Aug 26 12:11:31 2020.
