 Gaussian 09, Revision D.01,
 Gaussian 09:  ES64L-G09RevD.01 24-Apr-2013

 --------------------
 #p B2PLYPD3/Def2QZVP
 --------------------

 ------------
 cyanomethane
 ------------
 Symbolic Z-matrix:
 Charge =  0 Multiplicity = 1

                         Standard orientation:
 ---------------------------------------------------------------------
 Center     Atomic      Atomic             Coordinates (Angstroms)
 Number     Number       Type             X           Y           Z
 ---------------------------------------------------------------------
      1          6           0        1.162930    0.012958    0.022147
      2          6           0       -0.267349    0.008945   -0.041343
      3          7           0       -1.439341   -0.007127    0.018038
      4          1           0        1.555640    1.041854   -0.062891
      5          1           0        1.585993   -0.615943   -0.859022
      6          1           0        1.560264   -0.507440    0.910825
 ---------------------------------------------------------------------

 SCF Done:  E(RB2PLYPD3) =  -132.527961149     A.U. after   12 cycles
 E2(B2PLYPD3) =    -0.1827500222D+00 E(B2PLYPD3) =    -0.13271071117077D+03

 The electronic state is 1-A.
 Alpha  occ. eigenvalues --  -14.84796 -10.67933 -10.66806  -1.03485  -0.88994
 Alpha  occ. eigenvalues --   -0.60207  -0.54300  -0.52046  -0.44976  -0.38631
 Alpha  occ. eigenvalues --   -0.38222
 Alpha virt. eigenvalues --    0.03530   0.06601   0.07159   0.10015   0.11245
 Alpha virt. eigenvalues --    0.11723   0.15453   0.15880   0.16883   0.20116
 Alpha virt. eigenvalues --    0.20234   0.25909   0.32127   0.33535   0.34815

 Mulliken charges:
               1
     1  C   -0.087537
     2  C    0.006157
     3  N   -0.213486
     4  H    0.103404
     5  H    0.090124
     6  H    0.101338
 Sum of Mulliken charges =   0.00000

 Dipole moment (field-independent basis, Debye):
    X=              4.1319    Y=             -0.0116    Z=             -0.0165  Tot=              4.1320
 Quadrupole moment (field-independent basis, Debye-Ang):
   XX=            -21.0240   YY=            -17.7141   ZZ=            -18.0085
   XY=             -0.1131   XZ=              0.0829   YZ=             -0.0665

 Normal termination of Gaussian 09 at Wed Aug 26 10:43:36 2020.
