 Gaussian 09, Revision D.01,
 Gaussian 09:  ES64L-G09RevD.01 24-Apr-2013

 --------------------
 #p B2PLYPD3/Def2QZVP
 --------------------

 ------------
 cyanomethane
 ------------
 Symbolic Z-matrix:
 Charge =  0 Multiplicity = 1

                         Standard orientation:
 ---------------------------------------------------------------------
 Center     Atomic      Atomic             Coordinates (Angstroms)
 Number     Number       Type             X           Y           Z
 ---------------------------------------------------------------------
      1          6           0        1.186115   -0.014902   -0.014146
      2          6           0       -0.274255   -0.017743   -0.051870
      3          7           0       -1.453905    0.011622    0.021344
      4          1           0        1.601886    1.076679   -0.143145
      5          1           0        1.640310   -0.686152   -0.617345
      6          1           0        1.463975   -0.276013    1.007181
 ---------------------------------------------------------------------

 SCF Done:  E(RB2PLYPD3) =  -132.521520521     A.U. after   12 cycles
 E2(B2PLYPD3) =    -0.1831718461D+00 E(B2PLYPD3) =    -0.13270469236666D+03

 The electronic state is 1-A.
 Alpha  occ. eigenvalues --  -14.85073 -10.67325 -10.67249  -1.03089  -0.89330
 Alpha  occ. eigenvalues --   -0.60780  -0.54861  -0.52160  -0.44975  -0.38678
 Alpha  occ. eigenvalues --   -0.38188
 Alpha virt. eigenvalues --    0.03430   0.06712   0.07865   0.10156   0.10855
 Alpha virt. eigenvalues --    0.11559   0.15289   0.15688   0.17133   0.20109
 Alpha virt. eigenvalues --    0.20291   0.25313   0.31744   0.33502   0.35005

 Mulliken charges:
               1
     1  C   -0.080002
     2  C    0.008881
     3  N   -0.217874
     4  H    0.093485
     5  H    0.101131
     6  H    0.094380
 Sum of Mulliken charges =   0.00000

 Dipole moment (field-independent basis, Debye):
    X=              4.1731    Y=             -0.0467    Z=              0.0356  Tot=              4.1735
 Quadrupole moment (field-independent basis, Debye-Ang):
   XX=            -20.9014   YY=            -17.7404   ZZ=            -18.0515
   XY=             -0.0027   XZ=              0.1323   YZ=              0.0886

 Normal termination of Gaussian 09 at Wed Aug 26 23:09:21 2020.
