 Gaussian 09, Revision D.01,
 Gaussian 09:  ES64L-G09RevD.01 24-Apr-2013

 --------------------
 #p B2PLYPD3/Def2QZVP
 --------------------

 ------------
 cyanomethane
 ------------
 Symbolic Z-matrix:
 Charge =  0 Multiplicity = 1

                         Standard orientation:
 ---------------------------------------------------------------------
 Center     Atomic      Atomic             Coordinates (Angstroms)
 Number     Number       Type             X           Y           Z
 ---------------------------------------------------------------------
      1          6           0       -1.178326   -0.012121   -0.001757
      2          6           0        0.278704    0.023685    0.024318
      3          7           0        1.422877   -0.010723   -0.016650
      4          1           0       -1.546114   -0.852914   -0.566864
      5          1           0       -1.551020    0.922918   -0.458918
      6          1           0       -1.465274   -0.064327    1.006966
 ---------------------------------------------------------------------

 SCF Done:  E(RB2PLYPD3) =  -132.534124764     A.U. after   12 cycles
 E2(B2PLYPD3) =    -0.1795651676D+00 E(B2PLYPD3) =    -0.13271368993124D+03

 The electronic state is 1-A.
 Alpha  occ. eigenvalues --  -14.83817 -10.66741 -10.65833  -1.04425  -0.89577
 Alpha  occ. eigenvalues --   -0.59232  -0.55084  -0.53796  -0.44647  -0.39288
 Alpha  occ. eigenvalues --   -0.39180
 Alpha virt. eigenvalues --    0.03794   0.07937   0.08722   0.10170   0.11439
 Alpha virt. eigenvalues --    0.11610   0.15422   0.15688   0.16697   0.20048
 Alpha virt. eigenvalues --    0.20095   0.25421   0.32900   0.34508   0.35053

 Mulliken charges:
               1
     1  C   -0.090475
     2  C   -0.004768
     3  N   -0.202825
     4  H    0.100435
     5  H    0.096080
     6  H    0.101552
 Sum of Mulliken charges =   0.00000

 Dipole moment (field-independent basis, Debye):
    X=             -4.0974    Y=              0.0147    Z=              0.0331  Tot=              4.0976
 Quadrupole moment (field-independent basis, Debye-Ang):
   XX=            -21.1329   YY=            -17.6659   ZZ=            -17.6390
   XY=              0.0531   XZ=              0.1468   YZ=              0.0162

 Normal termination of Gaussian 09 at Wed Aug 26 15:08:32 2020.
