 Gaussian 09, Revision D.01,
 Gaussian 09:  ES64L-G09RevD.01 24-Apr-2013

 --------------------
 #p B2PLYPD3/Def2QZVP
 --------------------

 ------------
 cyanomethane
 ------------
 Symbolic Z-matrix:
 Charge =  0 Multiplicity = 1

                         Standard orientation:
 ---------------------------------------------------------------------
 Center     Atomic      Atomic             Coordinates (Angstroms)
 Number     Number       Type             X           Y           Z
 ---------------------------------------------------------------------
      1          6           0        1.185671    0.006017    0.008079
      2          6           0       -0.279431   -0.019293   -0.010361
      3          7           0       -1.425298    0.011835    0.009114
      4          1           0        1.567607   -0.189478    0.973825
      5          1           0        1.521520    0.982084   -0.355796
      6          1           0        1.450514   -0.795789   -0.668134
 ---------------------------------------------------------------------

 SCF Done:  E(RB2PLYPD3) =  -132.534074917     A.U. after   12 cycles
 E2(B2PLYPD3) =    -0.1796546286D+00 E(B2PLYPD3) =    -0.13271372954562D+03

 The electronic state is 1-A.
 Alpha  occ. eigenvalues --  -14.83805 -10.66857 -10.65869  -1.04335  -0.89484
 Alpha  occ. eigenvalues --   -0.59103  -0.54502  -0.54384  -0.44591  -0.39282
 Alpha  occ. eigenvalues --   -0.39133
 Alpha virt. eigenvalues --    0.03810   0.08194   0.08599   0.10192   0.11446
 Alpha virt. eigenvalues --    0.11517   0.15292   0.15554   0.16667   0.20075
 Alpha virt. eigenvalues --    0.20091   0.25212   0.32843   0.34378   0.34975

 Mulliken charges:
               1
     1  C   -0.094740
     2  C   -0.005018
     3  N   -0.203771
     4  H    0.100681
     5  H    0.101864
     6  H    0.100984
 Sum of Mulliken charges =   0.00000

 Dipole moment (field-independent basis, Debye):
    X=              4.1029    Y=             -0.0290    Z=             -0.0102  Tot=              4.1030
 Quadrupole moment (field-independent basis, Debye-Ang):
   XX=            -21.2074   YY=            -17.5830   ZZ=            -17.7056
   XY=              0.0806   XZ=              0.1411   YZ=             -0.0065

 Normal termination of Gaussian 09 at Wed Aug 26 15:21:30 2020.
