 Gaussian 09, Revision D.01,
 Gaussian 09:  ES64L-G09RevD.01 24-Apr-2013

 --------------------
 #p B2PLYPD3/Def2QZVP
 --------------------

 ------------
 cyanomethane
 ------------
 Symbolic Z-matrix:
 Charge =  0 Multiplicity = 1

                         Standard orientation:
 ---------------------------------------------------------------------
 Center     Atomic      Atomic             Coordinates (Angstroms)
 Number     Number       Type             X           Y           Z
 ---------------------------------------------------------------------
      1          6           0       -1.185091   -0.020983   -0.002072
      2          6           0        0.290513    0.033396    0.000018
      3          7           0        1.429495   -0.012840    0.000119
      4          1           0       -1.539951   -0.142877    0.984217
      5          1           0       -1.518932   -0.798425   -0.610200
      6          1           0       -1.580116    0.956706   -0.362526
 ---------------------------------------------------------------------

 SCF Done:  E(RB2PLYPD3) =  -132.533809966     A.U. after   11 cycles
 E2(B2PLYPD3) =    -0.1790067792D+00 E(B2PLYPD3) =    -0.13271281674507D+03

 The electronic state is 1-A.
 Alpha  occ. eigenvalues --  -14.83773 -10.66675 -10.65846  -1.04658  -0.89309
 Alpha  occ. eigenvalues --   -0.59485  -0.55130  -0.53333  -0.44696  -0.39652
 Alpha  occ. eigenvalues --   -0.39409
 Alpha virt. eigenvalues --    0.03843   0.08273   0.08672   0.10218   0.11388
 Alpha virt. eigenvalues --    0.11607   0.15360   0.16134   0.16732   0.19980
 Alpha virt. eigenvalues --    0.20043   0.25105   0.32663   0.34472   0.35567

 Mulliken charges:
               1
     1  C   -0.081091
     2  C   -0.005506
     3  N   -0.198714
     4  H    0.094954
     5  H    0.100080
     6  H    0.090277
 Sum of Mulliken charges =   0.00000

 Dipole moment (field-independent basis, Debye):
    X=             -4.1115    Y=              0.0144    Z=              0.0166  Tot=              4.1115
 Quadrupole moment (field-independent basis, Debye-Ang):
   XX=            -20.9538   YY=            -17.6458   ZZ=            -17.7333
   XY=              0.0378   XZ=             -0.0407   YZ=              0.0598

 Normal termination of Gaussian 09 at Wed Aug 26 14:44:58 2020.
