 Gaussian 09, Revision D.01,
 Gaussian 09:  ES64L-G09RevD.01 24-Apr-2013

 --------------------
 #p B2PLYPD3/Def2QZVP
 --------------------

 ------------
 cyanomethane
 ------------
 Symbolic Z-matrix:
 Charge =  0 Multiplicity = 1

                         Standard orientation:
 ---------------------------------------------------------------------
 Center     Atomic      Atomic             Coordinates (Angstroms)
 Number     Number       Type             X           Y           Z
 ---------------------------------------------------------------------
      1          6           0        1.169673    0.005959   -0.013125
      2          6           0       -0.284426    0.020997    0.029997
      3          7           0       -1.427323   -0.010658   -0.013684
      4          1           0        1.573433    1.011183   -0.132680
      5          1           0        1.542918   -0.664667   -0.800826
      6          1           0        1.563422   -0.433645    0.928064
 ---------------------------------------------------------------------

 SCF Done:  E(RB2PLYPD3) =  -132.535020068     A.U. after   11 cycles
 E2(B2PLYPD3) =    -0.1797771891D+00 E(B2PLYPD3) =    -0.13271479725760D+03

 The electronic state is 1-A.
 Alpha  occ. eigenvalues --  -14.83939 -10.67358 -10.65971  -1.04569  -0.88938
 Alpha  occ. eigenvalues --   -0.59775  -0.54253  -0.52795  -0.44801  -0.39420
 Alpha  occ. eigenvalues --   -0.39147
 Alpha virt. eigenvalues --    0.03693   0.07740   0.08053   0.10163   0.11462
 Alpha virt. eigenvalues --    0.11809   0.15456   0.16155   0.16879   0.19978
 Alpha virt. eigenvalues --    0.20086   0.25508   0.32819   0.34077   0.34969

 Mulliken charges:
               1
     1  C   -0.084940
     2  C   -0.001560
     3  N   -0.200098
     4  H    0.099004
     5  H    0.096397
     6  H    0.091197
 Sum of Mulliken charges =   0.00000

 Dipole moment (field-independent basis, Debye):
    X=              4.1030    Y=             -0.0069    Z=              0.0282  Tot=              4.1031
 Quadrupole moment (field-independent basis, Debye-Ang):
   XX=            -20.9566   YY=            -17.6174   ZZ=            -17.8778
   XY=             -0.1012   XZ=             -0.0472   YZ=              0.0047

 Normal termination of Gaussian 09 at Wed Aug 26 10:50:13 2020.
