 Gaussian 09, Revision D.01,
 Gaussian 09:  ES64L-G09RevD.01 24-Apr-2013

 --------------------
 #p B2PLYPD3/Def2QZVP
 --------------------

 ------------
 cyanomethane
 ------------
 Symbolic Z-matrix:
 Charge =  0 Multiplicity = 1

                         Standard orientation:
 ---------------------------------------------------------------------
 Center     Atomic      Atomic             Coordinates (Angstroms)
 Number     Number       Type             X           Y           Z
 ---------------------------------------------------------------------
      1          6           0       -1.167498    0.020250    0.007222
      2          6           0        0.285222   -0.013773   -0.041915
      3          7           0        1.422283    0.002121    0.020666
      4          1           0       -1.517027    1.046495   -0.061626
      5          1           0       -1.561428   -0.477376    0.947207
      6          1           0       -1.583872   -0.622826   -0.822087
 ---------------------------------------------------------------------

 SCF Done:  E(RB2PLYPD3) =  -132.532664428     A.U. after   12 cycles
 E2(B2PLYPD3) =    -0.1795767787D+00 E(B2PLYPD3) =    -0.13271224120686D+03

 The electronic state is 1-A.
 Alpha  occ. eigenvalues --  -14.83761 -10.67821 -10.65770  -1.04770  -0.88621
 Alpha  occ. eigenvalues --   -0.59320  -0.54425  -0.52162  -0.44754  -0.39528
 Alpha  occ. eigenvalues --   -0.39142
 Alpha virt. eigenvalues --    0.03588   0.07511   0.08078   0.10154   0.11555
 Alpha virt. eigenvalues --    0.11927   0.15405   0.16048   0.16865   0.19938
 Alpha virt. eigenvalues --    0.20066   0.25567   0.32673   0.33592   0.34921

 Mulliken charges:
               1
     1  C   -0.094725
     2  C   -0.002162
     3  N   -0.196969
     4  H    0.105125
     5  H    0.095508
     6  H    0.093223
 Sum of Mulliken charges =   0.00000

 Dipole moment (field-independent basis, Debye):
    X=             -4.0773    Y=             -0.0213    Z=             -0.0266  Tot=              4.0775
 Quadrupole moment (field-independent basis, Debye-Ang):
   XX=            -21.0741   YY=            -17.5610   ZZ=            -17.8878
   XY=              0.0898   XZ=             -0.1260   YZ=             -0.0142

 Normal termination of Gaussian 09 at Wed Aug 26 10:33:00 2020.
