 Gaussian 09, Revision D.01,
 Gaussian 09:  ES64L-G09RevD.01 24-Apr-2013

 --------------------
 #p B2PLYPD3/Def2QZVP
 --------------------

 ------------
 cyanomethane
 ------------
 Symbolic Z-matrix:
 Charge =  0 Multiplicity = 1

                         Standard orientation:
 ---------------------------------------------------------------------
 Center     Atomic      Atomic             Coordinates (Angstroms)
 Number     Number       Type             X           Y           Z
 ---------------------------------------------------------------------
      1          6           0       -1.174739   -0.000079    0.006667
      2          6           0        0.285521    0.021489    0.003804
      3          7           0        1.435867   -0.008413   -0.002361
      4          1           0       -1.563088   -0.386428    0.937842
      5          1           0       -1.542077   -0.678568   -0.801328
      6          1           0       -1.610593    0.995429   -0.182809
 ---------------------------------------------------------------------

 SCF Done:  E(RB2PLYPD3) =  -132.534898053     A.U. after   11 cycles
 E2(B2PLYPD3) =    -0.1803216418D+00 E(B2PLYPD3) =    -0.13271521969467D+03

 The electronic state is 1-A.
 Alpha  occ. eigenvalues --  -14.84177 -10.67447 -10.66260  -1.04314  -0.88844
 Alpha  occ. eigenvalues --   -0.59936  -0.53830  -0.52982  -0.44856  -0.39269
 Alpha  occ. eigenvalues --   -0.39099
 Alpha virt. eigenvalues --    0.03689   0.07663   0.07896   0.10186   0.11432
 Alpha virt. eigenvalues --    0.11645   0.15406   0.16382   0.16701   0.20028
 Alpha virt. eigenvalues --    0.20087   0.25322   0.32635   0.34123   0.34924

 Mulliken charges:
               1
     1  C   -0.082034
     2  C   -0.000077
     3  N   -0.203137
     4  H    0.096999
     5  H    0.093353
     6  H    0.094896
 Sum of Mulliken charges =   0.00000

 Dipole moment (field-independent basis, Debye):
    X=             -4.1248    Y=             -0.0011    Z=              0.0032  Tot=              4.1248
 Quadrupole moment (field-independent basis, Debye-Ang):
   XX=            -20.8981   YY=            -17.7739   ZZ=            -17.8192
   XY=              0.0315   XZ=              0.0116   YZ=             -0.0329

 Normal termination of Gaussian 09 at Wed Aug 26 23:57:04 2020.
