 Gaussian 09, Revision D.01,
 Gaussian 09:  ES64L-G09RevD.01 24-Apr-2013

 --------------------
 #p B2PLYPD3/Def2QZVP
 --------------------

 ------------
 cyanomethane
 ------------
 Symbolic Z-matrix:
 Charge =  0 Multiplicity = 1

                         Standard orientation:
 ---------------------------------------------------------------------
 Center     Atomic      Atomic             Coordinates (Angstroms)
 Number     Number       Type             X           Y           Z
 ---------------------------------------------------------------------
      1          6           0        1.154625   -0.008815   -0.029431
      2          6           0       -0.270149   -0.013629   -0.003951
      3          7           0       -1.428603    0.006893    0.000028
      4          1           0        1.562034    1.016621   -0.096437
      5          1           0        1.642233   -0.619794   -0.608344
      6          1           0        1.489097   -0.310416    0.904878
 ---------------------------------------------------------------------

 SCF Done:  E(RB2PLYPD3) =  -132.518223043     A.U. after   12 cycles
 E2(B2PLYPD3) =    -0.1805532929D+00 E(B2PLYPD3) =    -0.13269877633549D+03

 The electronic state is 1-A.
 Alpha  occ. eigenvalues --  -14.84368 -10.66418 -10.65161  -1.04131  -0.91112
 Alpha  occ. eigenvalues --   -0.62795  -0.55343  -0.53372  -0.44972  -0.39192
 Alpha  occ. eigenvalues --   -0.38695
 Alpha virt. eigenvalues --    0.03845   0.07766   0.08403   0.10086   0.11310
 Alpha virt. eigenvalues --    0.11853   0.15717   0.15836   0.18073   0.20222
 Alpha virt. eigenvalues --    0.20303   0.25951   0.33140   0.34314   0.35902

 Mulliken charges:
               1
     1  C   -0.052415
     2  C    0.012392
     3  N   -0.210429
     4  H    0.085438
     5  H    0.087341
     6  H    0.077674
 Sum of Mulliken charges =   0.00000

 Dipole moment (field-independent basis, Debye):
    X=              4.1735    Y=             -0.0490    Z=              0.0838  Tot=              4.1746
 Quadrupole moment (field-independent basis, Debye-Ang):
   XX=            -20.4991   YY=            -17.5928   ZZ=            -17.9902
   XY=             -0.0707   XZ=              0.1162   YZ=              0.0694

 Normal termination of Gaussian 09 at Wed Aug 26 22:30:27 2020.
