 Gaussian 09, Revision D.01,
 Gaussian 09:  ES64L-G09RevD.01 24-Apr-2013

 --------------------
 #p B2PLYPD3/Def2QZVP
 --------------------

 ------------
 cyanomethane
 ------------
 Symbolic Z-matrix:
 Charge =  0 Multiplicity = 1

                         Standard orientation:
 ---------------------------------------------------------------------
 Center     Atomic      Atomic             Coordinates (Angstroms)
 Number     Number       Type             X           Y           Z
 ---------------------------------------------------------------------
      1          6           0       -1.165574    0.004250    0.004779
      2          6           0        0.302286    0.010721    0.043964
      3          7           0        1.435072   -0.009331   -0.037326
      4          1           0       -1.801839   -0.559029   -0.859046
      5          1           0       -1.586089    1.047048   -0.039313
      6          1           0       -1.477846   -0.512527    0.867186
 ---------------------------------------------------------------------

 SCF Done:  E(RB2PLYPD3) =  -132.518712736     A.U. after   12 cycles
 E2(B2PLYPD3) =    -0.1799803004D+00 E(B2PLYPD3) =    -0.13269869303611D+03

 The electronic state is 1-A.
 Alpha  occ. eigenvalues --  -14.84013 -10.68223 -10.66115  -1.05094  -0.88171
 Alpha  occ. eigenvalues --   -0.59996  -0.54354  -0.50164  -0.45020  -0.39832
 Alpha  occ. eigenvalues --   -0.39231
 Alpha virt. eigenvalues --    0.03082   0.06419   0.08589   0.10135   0.11449
 Alpha virt. eigenvalues --    0.12057   0.15466   0.16023   0.17974   0.19821
 Alpha virt. eigenvalues --    0.20508   0.25392   0.31578   0.33392   0.34903

 Mulliken charges:
               1
     1  C   -0.088396
     2  C    0.004124
     3  N   -0.192144
     4  H    0.084470
     5  H    0.093777
     6  H    0.098169
 Sum of Mulliken charges =   0.00000

 Dipole moment (field-independent basis, Debye):
    X=             -4.0916    Y=              0.0085    Z=              0.1066  Tot=              4.0930
 Quadrupole moment (field-independent basis, Debye-Ang):
   XX=            -20.6040   YY=            -17.7804   ZZ=            -18.0614
   XY=              0.1227   XZ=              0.3419   YZ=             -0.1505

 Normal termination of Gaussian 09 at Wed Aug 26 20:47:07 2020.
