 Gaussian 09, Revision D.01,
 Gaussian 09:  ES64L-G09RevD.01 24-Apr-2013

 --------------------
 #p B2PLYPD3/Def2QZVP
 --------------------

 ------------
 cyanomethane
 ------------
 Symbolic Z-matrix:
 Charge =  0 Multiplicity = 1

                         Standard orientation:
 ---------------------------------------------------------------------
 Center     Atomic      Atomic             Coordinates (Angstroms)
 Number     Number       Type             X           Y           Z
 ---------------------------------------------------------------------
      1          6           0       -1.176364    0.007877   -0.001048
      2          6           0        0.280718    0.022905    0.004379
      3          7           0        1.429919   -0.011505   -0.001078
      4          1           0       -1.553766   -0.354029    0.969834
      5          1           0       -1.521494   -0.722148   -0.765862
      6          1           0       -1.560291    0.972025   -0.216409
 ---------------------------------------------------------------------

 SCF Done:  E(RB2PLYPD3) =  -132.534995323     A.U. after   11 cycles
 E2(B2PLYPD3) =    -0.1800764758D+00 E(B2PLYPD3) =    -0.13271507179916D+03

 The electronic state is 1-A.
 Alpha  occ. eigenvalues --  -14.84028 -10.67168 -10.66080  -1.04294  -0.89183
 Alpha  occ. eigenvalues --   -0.59587  -0.54660  -0.53156  -0.44748  -0.39274
 Alpha  occ. eigenvalues --   -0.39025
 Alpha virt. eigenvalues --    0.03724   0.07757   0.08263   0.10191   0.11345
 Alpha virt. eigenvalues --    0.11695   0.15407   0.16232   0.16430   0.20017
 Alpha virt. eigenvalues --    0.20120   0.25359   0.32789   0.34031   0.35070

 Mulliken charges:
               1
     1  C   -0.087077
     2  C   -0.002398
     3  N   -0.203789
     4  H    0.096290
     5  H    0.096174
     6  H    0.100800
 Sum of Mulliken charges =   0.00000

 Dipole moment (field-independent basis, Debye):
    X=             -4.1152    Y=              0.0072    Z=              0.0010  Tot=              4.1152
 Quadrupole moment (field-independent basis, Debye-Ang):
   XX=            -21.0402   YY=            -17.6702   ZZ=            -17.7809
   XY=              0.0662   XZ=             -0.0115   YZ=             -0.0285

 Normal termination of Gaussian 09 at Wed Aug 26 10:19:46 2020.
