 Gaussian 09, Revision D.01,
 Gaussian 09:  ES64L-G09RevD.01 24-Apr-2013

 --------------------
 #p B2PLYPD3/Def2QZVP
 --------------------

 ------------
 cyanomethane
 ------------
 Symbolic Z-matrix:
 Charge =  0 Multiplicity = 1

                         Standard orientation:
 ---------------------------------------------------------------------
 Center     Atomic      Atomic             Coordinates (Angstroms)
 Number     Number       Type             X           Y           Z
 ---------------------------------------------------------------------
      1          6           0        1.172880   -0.006694   -0.003278
      2          6           0       -0.284102   -0.002040    0.018169
      3          7           0       -1.430046    0.002496   -0.009387
      4          1           0        1.568762    1.011454   -0.142467
      5          1           0        1.555120   -0.607422   -0.789740
      6          1           0        1.553775   -0.369099    0.908569
 ---------------------------------------------------------------------

 SCF Done:  E(RB2PLYPD3) =  -132.535044735     A.U. after   11 cycles
 E2(B2PLYPD3) =    -0.1795548590D+00 E(B2PLYPD3) =    -0.13271459959394D+03

 The electronic state is 1-A.
 Alpha  occ. eigenvalues --  -14.84005 -10.66503 -10.66047  -1.04482  -0.89566
 Alpha  occ. eigenvalues --   -0.60260  -0.54563  -0.53602  -0.44814  -0.39397
 Alpha  occ. eigenvalues --   -0.39273
 Alpha virt. eigenvalues --    0.03836   0.08003   0.08430   0.10198   0.11452
 Alpha virt. eigenvalues --    0.11602   0.15517   0.16386   0.16748   0.20029
 Alpha virt. eigenvalues --    0.20077   0.25391   0.32955   0.34649   0.35301

 Mulliken charges:
               1
     1  C   -0.071983
     2  C   -0.002018
     3  N   -0.201987
     4  H    0.089917
     5  H    0.093464
     6  H    0.092607
 Sum of Mulliken charges =   0.00000

 Dipole moment (field-independent basis, Debye):
    X=              4.1259    Y=             -0.0109    Z=              0.0185  Tot=              4.1259
 Quadrupole moment (field-independent basis, Debye-Ang):
   XX=            -20.8220   YY=            -17.7354   ZZ=            -17.7413
   XY=              0.0123   XZ=             -0.0460   YZ=              0.0081

 Normal termination of Gaussian 09 at Wed Aug 26 09:51:12 2020.
