 Gaussian 09, Revision D.01,
 Gaussian 09:  ES64L-G09RevD.01 24-Apr-2013

 --------------------
 #p B2PLYPD3/Def2QZVP
 --------------------

 ------------
 cyanomethane
 ------------
 Symbolic Z-matrix:
 Charge =  0 Multiplicity = 1

                         Standard orientation:
 ---------------------------------------------------------------------
 Center     Atomic      Atomic             Coordinates (Angstroms)
 Number     Number       Type             X           Y           Z
 ---------------------------------------------------------------------
      1          6           0        1.186606   -0.001733   -0.015447
      2          6           0       -0.290607   -0.032294   -0.006957
      3          7           0       -1.431213    0.012996    0.011605
      4          1           0        1.643534   -0.185676    1.015365
      5          1           0        1.467468    1.035812   -0.295081
      6          1           0        1.531495   -0.736947   -0.667095
 ---------------------------------------------------------------------

 SCF Done:  E(RB2PLYPD3) =  -132.531226583     A.U. after   12 cycles
 E2(B2PLYPD3) =    -0.1795520680D+00 E(B2PLYPD3) =    -0.13271077865140D+03

 The electronic state is 1-A.
 Alpha  occ. eigenvalues --  -14.83811 -10.67550 -10.65913  -1.04576  -0.88739
 Alpha  occ. eigenvalues --   -0.59025  -0.55153  -0.52235  -0.44676  -0.39577
 Alpha  occ. eigenvalues --   -0.39217
 Alpha virt. eigenvalues --    0.03623   0.07574   0.08755   0.10262   0.11273
 Alpha virt. eigenvalues --    0.11800   0.15174   0.16095   0.16612   0.19937
 Alpha virt. eigenvalues --    0.20097   0.25015   0.32389   0.33800   0.35126

 Mulliken charges:
               1
     1  C   -0.094261
     2  C   -0.004793
     3  N   -0.199048
     4  H    0.091542
     5  H    0.101863
     6  H    0.104696
 Sum of Mulliken charges =   0.00000

 Dipole moment (field-independent basis, Debye):
    X=              4.1045    Y=             -0.0144    Z=             -0.0171  Tot=              4.1046
 Quadrupole moment (field-independent basis, Debye-Ang):
   XX=            -21.0795   YY=            -17.6059   ZZ=            -17.8314
   XY=              0.0088   XZ=              0.1824   YZ=              0.0764

 Normal termination of Gaussian 09 at Wed Aug 26 14:53:32 2020.
