 Gaussian 09, Revision D.01,
 Gaussian 09:  ES64L-G09RevD.01 24-Apr-2013

 --------------------
 #p B2PLYPD3/Def2QZVP
 --------------------

 ------------
 cyanomethane
 ------------
 Symbolic Z-matrix:
 Charge =  0 Multiplicity = 1

                         Standard orientation:
 ---------------------------------------------------------------------
 Center     Atomic      Atomic             Coordinates (Angstroms)
 Number     Number       Type             X           Y           Z
 ---------------------------------------------------------------------
      1          6           0        1.171677    0.002670   -0.007720
      2          6           0       -0.269173    0.022762    0.007765
      3          7           0       -1.432129   -0.012548   -0.001113
      4          1           0        1.566396   -0.138488    0.997910
      5          1           0        1.519986    0.914593   -0.396260
      6          1           0        1.523502   -0.840859   -0.594131
 ---------------------------------------------------------------------

 SCF Done:  E(RB2PLYPD3) =  -132.533739685     A.U. after   11 cycles
 E2(B2PLYPD3) =    -0.1810699408D+00 E(B2PLYPD3) =    -0.13271480962566D+03

 The electronic state is 1-A.
 Alpha  occ. eigenvalues --  -14.84384 -10.66561 -10.66392  -1.03784  -0.89893
 Alpha  occ. eigenvalues --   -0.60098  -0.55206  -0.53652  -0.44805  -0.38872
 Alpha  occ. eigenvalues --   -0.38689
 Alpha virt. eigenvalues --    0.03807   0.07602   0.08136   0.10139   0.11244
 Alpha virt. eigenvalues --    0.11551   0.15507   0.16167   0.16346   0.20099
 Alpha virt. eigenvalues --    0.20197   0.25648   0.32902   0.34428   0.35142

 Mulliken charges:
               1
     1  C   -0.078317
     2  C   -0.000179
     3  N   -0.211477
     4  H    0.093250
     5  H    0.099746
     6  H    0.096976
 Sum of Mulliken charges =   0.00000

 Dipole moment (field-independent basis, Debye):
    X=              4.1389    Y=              0.0100    Z=              0.0078  Tot=              4.1390
 Quadrupole moment (field-independent basis, Debye-Ang):
   XX=            -20.9989   YY=            -17.6616   ZZ=            -17.8163
   XY=             -0.0917   XZ=              0.0490   YZ=             -0.0247

 Normal termination of Gaussian 09 at Thu Aug 27 00:10:50 2020.
