 Gaussian 09, Revision D.01,
 Gaussian 09:  ES64L-G09RevD.01 24-Apr-2013

 --------------------
 #p B2PLYPD3/Def2QZVP
 --------------------

 ------------
 cyanomethane
 ------------
 Symbolic Z-matrix:
 Charge =  0 Multiplicity = 1

                         Standard orientation:
 ---------------------------------------------------------------------
 Center     Atomic      Atomic             Coordinates (Angstroms)
 Number     Number       Type             X           Y           Z
 ---------------------------------------------------------------------
      1          6           0        1.172697   -0.000717   -0.018371
      2          6           0       -0.261389   -0.009939    0.043425
      3          7           0       -1.431930    0.005273   -0.018178
      4          1           0        1.549426   -0.216950    1.021717
      5          1           0        1.509604    1.026854   -0.327730
      6          1           0        1.496632   -0.782880   -0.717062
 ---------------------------------------------------------------------

 SCF Done:  E(RB2PLYPD3) =  -132.530003828     A.U. after   12 cycles
 E2(B2PLYPD3) =    -0.1824063892D+00 E(B2PLYPD3) =    -0.13271241021680D+03

 The electronic state is 1-A.
 Alpha  occ. eigenvalues --  -14.84532 -10.67816 -10.66546  -1.03404  -0.89235
 Alpha  occ. eigenvalues --   -0.59083  -0.54381  -0.53418  -0.44743  -0.38463
 Alpha  occ. eigenvalues --   -0.38299
 Alpha virt. eigenvalues --    0.03557   0.07202   0.07391   0.10055   0.11354
 Alpha virt. eigenvalues --    0.11443   0.15308   0.15583   0.16249   0.20169
 Alpha virt. eigenvalues --    0.20201   0.25776   0.32420   0.33661   0.34389

 Mulliken charges:
               1
     1  C   -0.103658
     2  C    0.003323
     3  N   -0.215580
     4  H    0.100700
     5  H    0.106220
     6  H    0.108995
 Sum of Mulliken charges =   0.00000

 Dipole moment (field-independent basis, Debye):
    X=              4.1122    Y=             -0.0077    Z=              0.0250  Tot=              4.1123
 Quadrupole moment (field-independent basis, Debye-Ang):
   XX=            -21.3637   YY=            -17.6865   ZZ=            -17.7856
   XY=              0.0259   XZ=             -0.0386   YZ=              0.0378

 Normal termination of Gaussian 09 at Wed Aug 26 10:44:50 2020.
