 Gaussian 09, Revision D.01,
 Gaussian 09:  ES64L-G09RevD.01 24-Apr-2013

 --------------------
 #p B2PLYPD3/Def2QZVP
 --------------------

 ------------
 cyanomethane
 ------------
 Symbolic Z-matrix:
 Charge =  0 Multiplicity = 1

                         Standard orientation:
 ---------------------------------------------------------------------
 Center     Atomic      Atomic             Coordinates (Angstroms)
 Number     Number       Type             X           Y           Z
 ---------------------------------------------------------------------
      1          6           0       -1.162523   -0.006107   -0.016213
      2          6           0        0.269348   -0.005422    0.034848
      3          7           0        1.434356    0.007597   -0.015800
      4          1           0       -1.553070   -0.282961    0.966424
      5          1           0       -1.516386   -0.707620   -0.728525
      6          1           0       -1.611984    1.006581   -0.239105
 ---------------------------------------------------------------------

 SCF Done:  E(RB2PLYPD3) =  -132.531761851     A.U. after   12 cycles
 E2(B2PLYPD3) =    -0.1816447072D+00 E(B2PLYPD3) =    -0.13271340655826D+03

 The electronic state is 1-A.
 Alpha  occ. eigenvalues --  -14.84565 -10.67030 -10.66556  -1.03767  -0.89570
 Alpha  occ. eigenvalues --   -0.60503  -0.54562  -0.52965  -0.44933  -0.38795
 Alpha  occ. eigenvalues --   -0.38576
 Alpha virt. eigenvalues --    0.03676   0.07102   0.07736   0.10072   0.11397
 Alpha virt. eigenvalues --    0.11579   0.15580   0.15931   0.16944   0.20115
 Alpha virt. eigenvalues --    0.20198   0.25882   0.32751   0.34011   0.35051

 Mulliken charges:
               1
     1  C   -0.077329
     2  C    0.003291
     3  N   -0.211324
     4  H    0.092276
     5  H    0.100191
     6  H    0.092895
 Sum of Mulliken charges =   0.00000

 Dipole moment (field-independent basis, Debye):
    X=             -4.1373    Y=             -0.0248    Z=              0.0337  Tot=              4.1375
 Quadrupole moment (field-independent basis, Debye-Ang):
   XX=            -20.9012   YY=            -17.7847   ZZ=            -17.8392
   XY=             -0.0828   XZ=              0.0395   YZ=              0.0583

 Normal termination of Gaussian 09 at Wed Aug 26 11:55:57 2020.
