 Gaussian 09, Revision D.01,
 Gaussian 09:  ES64L-G09RevD.01 24-Apr-2013

 --------------------
 #p B2PLYPD3/Def2QZVP
 --------------------

 ------------
 cyanomethane
 ------------
 Symbolic Z-matrix:
 Charge =  0 Multiplicity = 1

                         Standard orientation:
 ---------------------------------------------------------------------
 Center     Atomic      Atomic             Coordinates (Angstroms)
 Number     Number       Type             X           Y           Z
 ---------------------------------------------------------------------
      1          6           0        1.179062    0.011436    0.000018
      2          6           0       -0.280991   -0.006769   -0.005276
      3          7           0       -1.440091    0.000474    0.000782
      4          1           0        1.549835    0.952652   -0.339967
      5          1           0        1.600874   -0.794959   -0.648301
      6          1           0        1.541506   -0.189011    1.014336
 ---------------------------------------------------------------------

 SCF Done:  E(RB2PLYPD3) =  -132.534340830     A.U. after   12 cycles
 E2(B2PLYPD3) =    -0.1809373839D+00 E(B2PLYPD3) =    -0.13271527821381D+03

 The electronic state is 1-A.
 Alpha  occ. eigenvalues --  -14.84380 -10.67285 -10.66470  -1.03956  -0.89073
 Alpha  occ. eigenvalues --   -0.59895  -0.54364  -0.53026  -0.44851  -0.39072
 Alpha  occ. eigenvalues --   -0.38891
 Alpha virt. eigenvalues --    0.03722   0.07540   0.07938   0.10176   0.11314
 Alpha virt. eigenvalues --    0.11521   0.15372   0.16267   0.16565   0.20076
 Alpha virt. eigenvalues --    0.20128   0.25296   0.32534   0.34210   0.34995

 Mulliken charges:
               1
     1  C   -0.081255
     2  C    0.000257
     3  N   -0.207733
     4  H    0.099814
     5  H    0.092833
     6  H    0.096084
 Sum of Mulliken charges =   0.00000

 Dipole moment (field-independent basis, Debye):
    X=              4.1397    Y=             -0.0009    Z=              0.0061  Tot=              4.1397
 Quadrupole moment (field-independent basis, Debye-Ang):
   XX=            -20.9414   YY=            -17.7705   ZZ=            -17.8273
   XY=             -0.0352   XZ=             -0.0137   YZ=             -0.0435

 Normal termination of Gaussian 09 at Wed Aug 26 22:51:02 2020.
