 Gaussian 09, Revision D.01,
 Gaussian 09:  ES64L-G09RevD.01 24-Apr-2013

 --------------------
 #p B2PLYPD3/Def2QZVP
 --------------------

 ------------
 cyanomethane
 ------------
 Symbolic Z-matrix:
 Charge =  0 Multiplicity = 1

                         Standard orientation:
 ---------------------------------------------------------------------
 Center     Atomic      Atomic             Coordinates (Angstroms)
 Number     Number       Type             X           Y           Z
 ---------------------------------------------------------------------
      1          6           0        1.185505   -0.027115   -0.007991
      2          6           0       -0.266760   -0.039644   -0.008568
      3          7           0       -1.415745    0.024496   -0.002865
      4          1           0        1.550642    0.888136   -0.551210
      5          1           0        1.486961   -0.856254   -0.336473
      6          1           0        1.360147    0.197199    1.007088
 ---------------------------------------------------------------------

 SCF Done:  E(RB2PLYPD3) =  -132.512198576     A.U. after   12 cycles
 E2(B2PLYPD3) =    -0.1798075889D+00 E(B2PLYPD3) =    -0.13269200616444D+03

 The electronic state is 1-A.
 Alpha  occ. eigenvalues --  -14.83767 -10.65812 -10.65604  -1.04174  -0.91062
 Alpha  occ. eigenvalues --   -0.60054  -0.57650  -0.53270  -0.44490  -0.39347
 Alpha  occ. eigenvalues --   -0.38651
 Alpha virt. eigenvalues --    0.03779   0.08034   0.09637   0.10213   0.10891
 Alpha virt. eigenvalues --    0.11876   0.15191   0.15432   0.16557   0.19998
 Alpha virt. eigenvalues --    0.20283   0.25344   0.32692   0.33814   0.36070

 Mulliken charges:
               1
     1  C   -0.100880
     2  C   -0.005026
     3  N   -0.209042
     4  H    0.096473
     5  H    0.114822
     6  H    0.103653
 Sum of Mulliken charges =   0.00000

 Dipole moment (field-independent basis, Debye):
    X=              4.0957    Y=              0.0004    Z=              0.0499  Tot=              4.0960
 Quadrupole moment (field-independent basis, Debye-Ang):
   XX=            -21.2857   YY=            -17.4050   ZZ=            -17.7097
   XY=              0.2189   XZ=             -0.0687   YZ=              0.1327

 Normal termination of Gaussian 09 at Wed Aug 26 22:48:15 2020.
