 Gaussian 09, Revision D.01,
 Gaussian 09:  ES64L-G09RevD.01 24-Apr-2013

 --------------------
 #p B2PLYPD3/Def2QZVP
 --------------------

 ------------
 cyanomethane
 ------------
 Symbolic Z-matrix:
 Charge =  0 Multiplicity = 1

                         Standard orientation:
 ---------------------------------------------------------------------
 Center     Atomic      Atomic             Coordinates (Angstroms)
 Number     Number       Type             X           Y           Z
 ---------------------------------------------------------------------
      1          6           0       -1.187105    0.015938    0.012057
      2          6           0        0.279438   -0.012400    0.011805
      3          7           0        1.442130    0.002595   -0.013686
      4          1           0       -1.485466   -0.453023    0.913965
      5          1           0       -1.636643   -0.607272   -0.857066
      6          1           0       -1.526804    1.020905   -0.104271
 ---------------------------------------------------------------------

 SCF Done:  E(RB2PLYPD3) =  -132.529881297     A.U. after   12 cycles
 E2(B2PLYPD3) =    -0.1813630793D+00 E(B2PLYPD3) =    -0.13271124437585D+03

 The electronic state is 1-A.
 Alpha  occ. eigenvalues --  -14.84437 -10.67448 -10.66540  -1.03753  -0.89088
 Alpha  occ. eigenvalues --   -0.59329  -0.55488  -0.52302  -0.44785  -0.39028
 Alpha  occ. eigenvalues --   -0.38691
 Alpha virt. eigenvalues --    0.03610   0.07180   0.08336   0.10173   0.11091
 Alpha virt. eigenvalues --    0.11552   0.15228   0.15885   0.16584   0.20060
 Alpha virt. eigenvalues --    0.20184   0.25161   0.32078   0.33840   0.35321

 Mulliken charges:
               1
     1  C   -0.089365
     2  C   -0.000434
     3  N   -0.209977
     4  H    0.104025
     5  H    0.090801
     6  H    0.104951
 Sum of Mulliken charges =   0.00000

 Dipole moment (field-independent basis, Debye):
    X=             -4.1361    Y=             -0.0036    Z=              0.0305  Tot=              4.1362
 Quadrupole moment (field-independent basis, Debye-Ang):
   XX=            -21.0816   YY=            -17.7220   ZZ=            -17.8439
   XY=              0.0333   XZ=              0.1646   YZ=             -0.1006

 Normal termination of Gaussian 09 at Wed Aug 26 13:55:20 2020.
