 Gaussian 09, Revision D.01,
 Gaussian 09:  ES64L-G09RevD.01 24-Apr-2013

 --------------------
 #p B2PLYPD3/Def2QZVP
 --------------------

 ------------
 cyanomethane
 ------------
 Symbolic Z-matrix:
 Charge =  0 Multiplicity = 1

                         Standard orientation:
 ---------------------------------------------------------------------
 Center     Atomic      Atomic             Coordinates (Angstroms)
 Number     Number       Type             X           Y           Z
 ---------------------------------------------------------------------
      1          6           0        1.183335   -0.033102   -0.011797
      2          6           0       -0.272813   -0.005477   -0.050901
      3          7           0       -1.418483    0.014575    0.036631
      4          1           0        1.320856   -0.655594   -0.705216
      5          1           0        1.571155   -0.284982    0.998406
      6          1           0        1.574237    1.070024   -0.173418
 ---------------------------------------------------------------------

 SCF Done:  E(RB2PLYPD3) =  -132.505022233     A.U. after   12 cycles
 E2(B2PLYPD3) =    -0.1803496638D+00 E(B2PLYPD3) =    -0.13268537189652D+03

 The electronic state is 1-A.
 Alpha  occ. eigenvalues --  -14.83869 -10.66714 -10.65845  -1.04307  -0.90428
 Alpha  occ. eigenvalues --   -0.58696  -0.57821  -0.51713  -0.44576  -0.39330
 Alpha  occ. eigenvalues --   -0.38715
 Alpha virt. eigenvalues --    0.03505   0.06848   0.09621   0.10214   0.10934
 Alpha virt. eigenvalues --    0.11919   0.15025   0.15627   0.16601   0.19960
 Alpha virt. eigenvalues --    0.20217   0.25371   0.31756   0.33372   0.35828

 Mulliken charges:
               1
     1  C   -0.115632
     2  C   -0.004298
     3  N   -0.205555
     4  H    0.126988
     5  H    0.102356
     6  H    0.096141
 Sum of Mulliken charges =   0.00000

 Dipole moment (field-independent basis, Debye):
    X=              4.0579    Y=             -0.0126    Z=             -0.0116  Tot=              4.0579
 Quadrupole moment (field-independent basis, Debye-Ang):
   XX=            -21.3316   YY=            -17.5987   ZZ=            -17.6363
   XY=              0.2449   XZ=              0.4484   YZ=              0.1848

 Normal termination of Gaussian 09 at Wed Aug 26 23:52:46 2020.
