 Gaussian 09, Revision D.01,
 Gaussian 09:  ES64L-G09RevD.01 24-Apr-2013

 --------------------
 #p B2PLYPD3/Def2QZVP
 --------------------

 ------------
 cyanomethane
 ------------
 Symbolic Z-matrix:
 Charge =  0 Multiplicity = 1

                         Standard orientation:
 ---------------------------------------------------------------------
 Center     Atomic      Atomic             Coordinates (Angstroms)
 Number     Number       Type             X           Y           Z
 ---------------------------------------------------------------------
      1          6           0       -1.189295   -0.023559    0.019904
      2          6           0        0.294285    0.045200   -0.019079
      3          7           0        1.434636   -0.015846    0.002576
      4          1           0       -1.466457   -0.366138    0.992143
      5          1           0       -1.565340   -0.745093   -0.805686
      6          1           0       -1.640592    1.092309   -0.209442
 ---------------------------------------------------------------------

 SCF Done:  E(RB2PLYPD3) =  -132.521670809     A.U. after   12 cycles
 E2(B2PLYPD3) =    -0.1803902015D+00 E(B2PLYPD3) =    -0.13270206101087D+03

 The electronic state is 1-A.
 Alpha  occ. eigenvalues --  -14.83878 -10.69165 -10.66005  -1.04571  -0.87560
 Alpha  occ. eigenvalues --   -0.58226  -0.53852  -0.51290  -0.44687  -0.39483
 Alpha  occ. eigenvalues --   -0.39112
 Alpha virt. eigenvalues --    0.03281   0.06859   0.08055   0.10173   0.11501
 Alpha virt. eigenvalues --    0.11740   0.15055   0.16017   0.16366   0.19945
 Alpha virt. eigenvalues --    0.20020   0.25000   0.30808   0.32982   0.34620

 Mulliken charges:
               1
     1  C   -0.117252
     2  C   -0.000145
     3  N   -0.197482
     4  H    0.114690
     5  H    0.104288
     6  H    0.095900
 Sum of Mulliken charges =   0.00000

 Dipole moment (field-independent basis, Debye):
    X=             -4.0629    Y=             -0.0128    Z=              0.0126  Tot=              4.0629
 Quadrupole moment (field-independent basis, Debye-Ang):
   XX=            -21.3436   YY=            -17.7322   ZZ=            -17.7609
   XY=              0.0757   XZ=              0.0494   YZ=             -0.0269

 Normal termination of Gaussian 09 at Wed Aug 26 16:28:36 2020.
