 Gaussian 09, Revision D.01,
 Gaussian 09:  ES64L-G09RevD.01 24-Apr-2013

 --------------------
 #p B2PLYPD3/Def2QZVP
 --------------------

 ------------
 cyanomethane
 ------------
 Symbolic Z-matrix:
 Charge =  0 Multiplicity = 1

                         Standard orientation:
 ---------------------------------------------------------------------
 Center     Atomic      Atomic             Coordinates (Angstroms)
 Number     Number       Type             X           Y           Z
 ---------------------------------------------------------------------
      1          6           0        1.180505   -0.010457   -0.000594
      2          6           0       -0.273534   -0.025165    0.005255
      3          7           0       -1.426570    0.015125   -0.006676
      4          1           0        1.551821    0.918831   -0.392820
      5          1           0        1.536517   -0.761052   -0.538505
      6          1           0        1.455827   -0.049924    0.950095
 ---------------------------------------------------------------------

 SCF Done:  E(RB2PLYPD3) =  -132.521781850     A.U. after   12 cycles
 E2(B2PLYPD3) =    -0.1796135848D+00 E(B2PLYPD3) =    -0.13270139543500D+03

 The electronic state is 1-A.
 Alpha  occ. eigenvalues --  -14.84069 -10.66079 -10.64844  -1.04138  -0.91155
 Alpha  occ. eigenvalues --   -0.60301  -0.57135  -0.54479  -0.44708  -0.39311
 Alpha  occ. eigenvalues --   -0.39036
 Alpha virt. eigenvalues --    0.03986   0.08390   0.09259   0.10230   0.11099
 Alpha virt. eigenvalues --    0.11491   0.15596   0.15897   0.16676   0.20074
 Alpha virt. eigenvalues --    0.20177   0.25398   0.33131   0.34952   0.36313

 Mulliken charges:
               1
     1  C   -0.065894
     2  C   -0.002678
     3  N   -0.208418
     4  H    0.087046
     5  H    0.094661
     6  H    0.095283
 Sum of Mulliken charges =   0.00000

 Dipole moment (field-independent basis, Debye):
    X=              4.1404    Y=             -0.0155    Z=              0.0291  Tot=              4.1405
 Quadrupole moment (field-independent basis, Debye-Ang):
   XX=            -20.8508   YY=            -17.6244   ZZ=            -17.6444
   XY=              0.1143   XZ=             -0.0622   YZ=              0.0652

 Normal termination of Gaussian 09 at Wed Aug 26 13:56:02 2020.
