 Gaussian 09, Revision D.01,
 Gaussian 09:  ES64L-G09RevD.01 24-Apr-2013

 --------------------
 #p B2PLYPD3/Def2QZVP
 --------------------

 ------------
 cyanomethane
 ------------
 Symbolic Z-matrix:
 Charge =  0 Multiplicity = 1

                         Standard orientation:
 ---------------------------------------------------------------------
 Center     Atomic      Atomic             Coordinates (Angstroms)
 Number     Number       Type             X           Y           Z
 ---------------------------------------------------------------------
      1          6           0        1.162198   -0.010279   -0.007584
      2          6           0       -0.279490   -0.008295   -0.019958
      3          7           0       -1.430019    0.009007    0.009904
      4          1           0        1.546619   -0.870492   -0.582605
      5          1           0        1.547485   -0.080985    1.098832
      6          1           0        1.619780    0.999872   -0.420304
 ---------------------------------------------------------------------

 SCF Done:  E(RB2PLYPD3) =  -132.525593998     A.U. after   12 cycles
 E2(B2PLYPD3) =    -0.1811501365D+00 E(B2PLYPD3) =    -0.13270674413463D+03

 The electronic state is 1-A.
 Alpha  occ. eigenvalues --  -14.84169 -10.68812 -10.66191  -1.04344  -0.88191
 Alpha  occ. eigenvalues --   -0.59320  -0.53528  -0.51538  -0.44869  -0.39100
 Alpha  occ. eigenvalues --   -0.38737
 Alpha virt. eigenvalues --    0.03325   0.06536   0.07515   0.10124   0.11545
 Alpha virt. eigenvalues --    0.11988   0.15387   0.16210   0.16584   0.19992
 Alpha virt. eigenvalues --    0.20131   0.25596   0.32088   0.32849   0.34261

 Mulliken charges:
               1
     1  C   -0.103834
     2  C    0.003227
     3  N   -0.201881
     4  H    0.106757
     5  H    0.098139
     6  H    0.097592
 Sum of Mulliken charges =   0.00000

 Dipole moment (field-independent basis, Debye):
    X=              4.0840    Y=             -0.0213    Z=             -0.0040  Tot=              4.0841
 Quadrupole moment (field-independent basis, Debye-Ang):
   XX=            -21.1390   YY=            -17.7549   ZZ=            -17.8632
   XY=              0.0982   XZ=              0.0627   YZ=              0.0745

 Normal termination of Gaussian 09 at Wed Aug 26 14:13:05 2020.
