 Gaussian 09, Revision D.01,
 Gaussian 09:  ES64L-G09RevD.01 24-Apr-2013

 --------------------
 #p B2PLYPD3/Def2QZVP
 --------------------

 ------------
 cyanomethane
 ------------
 Symbolic Z-matrix:
 Charge =  0 Multiplicity = 1

                         Standard orientation:
 ---------------------------------------------------------------------
 Center     Atomic      Atomic             Coordinates (Angstroms)
 Number     Number       Type             X           Y           Z
 ---------------------------------------------------------------------
      1          6           0        1.157458   -0.014434   -0.000826
      2          6           0       -0.263187    0.041433    0.019652
      3          7           0       -1.438476   -0.020025   -0.008469
      4          1           0        1.589947   -0.253437    1.014605
      5          1           0        1.560447    1.010827   -0.324809
      6          1           0        1.553309   -0.779215   -0.743466
 ---------------------------------------------------------------------

 SCF Done:  E(RB2PLYPD3) =  -132.526265617     A.U. after   12 cycles
 E2(B2PLYPD3) =    -0.1832663322D+00 E(B2PLYPD3) =    -0.13270953194925D+03

 The electronic state is 1-A.
 Alpha  occ. eigenvalues --  -14.84891 -10.68265 -10.66868  -1.03371  -0.88889
 Alpha  occ. eigenvalues --   -0.60107  -0.53133  -0.52746  -0.45003  -0.38337
 Alpha  occ. eigenvalues --   -0.38203
 Alpha virt. eigenvalues --    0.03429   0.06458   0.06761   0.09982   0.11451
 Alpha virt. eigenvalues --    0.11598   0.15528   0.15870   0.16710   0.20165
 Alpha virt. eigenvalues --    0.20222   0.26050   0.32329   0.33564   0.34035

 Mulliken charges:
               1
     1  C   -0.093069
     2  C    0.007352
     3  N   -0.214512
     4  H    0.100893
     5  H    0.097047
     6  H    0.102290
 Sum of Mulliken charges =   0.00000

 Dipole moment (field-independent basis, Debye):
    X=              4.1270    Y=              0.0220    Z=              0.0058  Tot=              4.1271
 Quadrupole moment (field-independent basis, Debye-Ang):
   XX=            -21.0707   YY=            -17.8875   ZZ=            -17.8581
   XY=             -0.1086   XZ=             -0.0261   YZ=              0.0019

 Normal termination of Gaussian 09 at Wed Aug 26 12:26:06 2020.
