 Gaussian 09, Revision D.01,
 Gaussian 09:  ES64L-G09RevD.01 24-Apr-2013

 --------------------
 #p B2PLYPD3/Def2QZVP
 --------------------

 ------------
 cyanomethane
 ------------
 Symbolic Z-matrix:
 Charge =  0 Multiplicity = 1

                         Standard orientation:
 ---------------------------------------------------------------------
 Center     Atomic      Atomic             Coordinates (Angstroms)
 Number     Number       Type             X           Y           Z
 ---------------------------------------------------------------------
      1          6           0        1.160256   -0.005227    0.007517
      2          6           0       -0.269243   -0.004131   -0.041596
      3          7           0       -1.432569    0.008440    0.018394
      4          1           0        1.641834    1.023134   -0.253902
      5          1           0        1.531465   -0.766879   -0.676254
      6          1           0        1.508602   -0.259190    1.005870
 ---------------------------------------------------------------------

 SCF Done:  E(RB2PLYPD3) =  -132.529788337     A.U. after   12 cycles
 E2(B2PLYPD3) =    -0.1818006708D+00 E(B2PLYPD3) =    -0.13271158900770D+03

 The electronic state is 1-A.
 Alpha  occ. eigenvalues --  -14.84529 -10.67567 -10.66512  -1.03824  -0.89248
 Alpha  occ. eigenvalues --   -0.60191  -0.54080  -0.52706  -0.44928  -0.38705
 Alpha  occ. eigenvalues --   -0.38598
 Alpha virt. eigenvalues --    0.03560   0.06758   0.07648   0.10067   0.11425
 Alpha virt. eigenvalues --    0.11691   0.15558   0.15993   0.16770   0.20084
 Alpha virt. eigenvalues --    0.20197   0.25909   0.32314   0.34125   0.34528

 Mulliken charges:
               1
     1  C   -0.085952
     2  C    0.003773
     3  N   -0.210243
     4  H    0.093942
     5  H    0.098829
     6  H    0.099651
 Sum of Mulliken charges =   0.00000

 Dipole moment (field-independent basis, Debye):
    X=              4.1197    Y=             -0.0414    Z=              0.0008  Tot=              4.1199
 Quadrupole moment (field-independent basis, Debye-Ang):
   XX=            -20.9929   YY=            -17.7476   ZZ=            -17.8808
   XY=              0.0777   XZ=              0.1153   YZ=              0.0313

 Normal termination of Gaussian 09 at Wed Aug 26 11:20:19 2020.
