 Gaussian 09, Revision D.01,
 Gaussian 09:  ES64L-G09RevD.01 24-Apr-2013

 --------------------
 #p B2PLYPD3/Def2QZVP
 --------------------

 ------------
 cyanomethane
 ------------
 Symbolic Z-matrix:
 Charge =  0 Multiplicity = 1

                         Standard orientation:
 ---------------------------------------------------------------------
 Center     Atomic      Atomic             Coordinates (Angstroms)
 Number     Number       Type             X           Y           Z
 ---------------------------------------------------------------------
      1          6           0       -1.172240    0.008573    0.004412
      2          6           0        0.282615   -0.021173   -0.000183
      3          7           0        1.428805    0.007836   -0.000196
      4          1           0       -1.522299    1.041590   -0.055678
      5          1           0       -1.571769   -0.467910    0.885324
      6          1           0       -1.569809   -0.552929   -0.853648
 ---------------------------------------------------------------------

 SCF Done:  E(RB2PLYPD3) =  -132.535959912     A.U. after   11 cycles
 E2(B2PLYPD3) =    -0.1797968715D+00 E(B2PLYPD3) =    -0.13271575678329D+03

 The electronic state is 1-A.
 Alpha  occ. eigenvalues --  -14.83978 -10.67075 -10.66018  -1.04452  -0.89185
 Alpha  occ. eigenvalues --   -0.59839  -0.54203  -0.53397  -0.44781  -0.39308
 Alpha  occ. eigenvalues --   -0.39192
 Alpha virt. eigenvalues --    0.03762   0.07942   0.08085   0.10193   0.11519
 Alpha virt. eigenvalues --    0.11639   0.15440   0.16294   0.16622   0.20032
 Alpha virt. eigenvalues --    0.20070   0.25436   0.32860   0.34454   0.34859

 Mulliken charges:
               1
     1  C   -0.082280
     2  C   -0.002257
     3  N   -0.201954
     4  H    0.098509
     5  H    0.095260
     6  H    0.092723
 Sum of Mulliken charges =   0.00000

 Dipole moment (field-independent basis, Debye):
    X=             -4.1150    Y=             -0.0224    Z=              0.0004  Tot=              4.1151
 Quadrupole moment (field-independent basis, Debye-Ang):
   XX=            -20.9508   YY=            -17.6587   ZZ=            -17.8151
   XY=              0.0259   XZ=             -0.0011   YZ=             -0.0207

 Normal termination of Gaussian 09 at Thu Aug 27 00:13:57 2020.
