 Gaussian 09, Revision D.01,
 Gaussian 09:  ES64L-G09RevD.01 24-Apr-2013

 --------------------
 #p B2PLYPD3/Def2QZVP
 --------------------

 ------------
 cyanomethane
 ------------
 Symbolic Z-matrix:
 Charge =  0 Multiplicity = 1

                         Standard orientation:
 ---------------------------------------------------------------------
 Center     Atomic      Atomic             Coordinates (Angstroms)
 Number     Number       Type             X           Y           Z
 ---------------------------------------------------------------------
      1          6           0        1.154365   -0.002946    0.036128
      2          6           0       -0.268355   -0.049289   -0.034739
      3          7           0       -1.430057    0.029087    0.015024
      4          1           0        1.599314    1.091308   -0.220698
      5          1           0        1.529589   -0.651507   -0.819676
      6          1           0        1.565434   -0.330001    0.926875
 ---------------------------------------------------------------------

 SCF Done:  E(RB2PLYPD3) =  -132.520568694     A.U. after   12 cycles
 E2(B2PLYPD3) =    -0.1822285679D+00 E(B2PLYPD3) =    -0.13270279726176D+03

 The electronic state is 1-A.
 Alpha  occ. eigenvalues --  -14.84603 -10.67854 -10.66553  -1.03873  -0.89166
 Alpha  occ. eigenvalues --   -0.60726  -0.54341  -0.51547  -0.45000  -0.38852
 Alpha  occ. eigenvalues --   -0.38255
 Alpha virt. eigenvalues --    0.03212   0.06473   0.07542   0.09908   0.11405
 Alpha virt. eigenvalues --    0.11826   0.15507   0.15632   0.17425   0.20056
 Alpha virt. eigenvalues --    0.20255   0.26121   0.32066   0.32630   0.35092

 Mulliken charges:
               1
     1  C   -0.092038
     2  C    0.009243
     3  N   -0.209828
     4  H    0.092578
     5  H    0.092531
     6  H    0.107514
 Sum of Mulliken charges =   0.00000

 Dipole moment (field-independent basis, Debye):
    X=              4.0934    Y=             -0.0680    Z=             -0.0259  Tot=              4.0940
 Quadrupole moment (field-independent basis, Debye-Ang):
   XX=            -21.0148   YY=            -17.8738   ZZ=            -17.8007
   XY=              0.1534   XZ=              0.0723   YZ=             -0.0650

 Normal termination of Gaussian 09 at Wed Aug 26 22:24:13 2020.
