 Gaussian 09, Revision D.01,
 Gaussian 09:  ES64L-G09RevD.01 24-Apr-2013

 --------------------
 #p B2PLYPD3/Def2QZVP
 --------------------

 ------------
 cyanomethane
 ------------
 Symbolic Z-matrix:
 Charge =  0 Multiplicity = 1

                         Standard orientation:
 ---------------------------------------------------------------------
 Center     Atomic      Atomic             Coordinates (Angstroms)
 Number     Number       Type             X           Y           Z
 ---------------------------------------------------------------------
      1          6           0        1.170343    0.019939   -0.049411
      2          6           0       -0.280838    0.031001   -0.038027
      3          7           0       -1.421640   -0.024354    0.032163
      4          1           0        1.667002   -0.506871    0.926920
      5          1           0        1.451854    0.939689    0.087504
      6          1           0        1.495596   -0.567980   -0.714935
 ---------------------------------------------------------------------

 SCF Done:  E(RB2PLYPD3) =  -132.493662934     A.U. after   12 cycles
 E2(B2PLYPD3) =    -0.1796683442D+00 E(B2PLYPD3) =    -0.13267333127841D+03

 The electronic state is 1-A.
 Alpha  occ. eigenvalues --  -14.83968 -10.65906 -10.65540  -1.04645  -0.90991
 Alpha  occ. eigenvalues --   -0.61126  -0.59635  -0.50213  -0.44827  -0.39905
 Alpha  occ. eigenvalues --   -0.38606
 Alpha virt. eigenvalues --    0.03085   0.07492   0.09736   0.10169   0.10773
 Alpha virt. eigenvalues --    0.12140   0.15557   0.16573   0.16989   0.19837
 Alpha virt. eigenvalues --    0.20213   0.25419   0.30837   0.33971   0.37455

 Mulliken charges:
               1
     1  C   -0.081258
     2  C    0.002075
     3  N   -0.201100
     4  H    0.065559
     5  H    0.106301
     6  H    0.108425
 Sum of Mulliken charges =   0.00000

 Dipole moment (field-independent basis, Debye):
    X=              4.0897    Y=              0.0351    Z=             -0.0417  Tot=              4.0901
 Quadrupole moment (field-independent basis, Debye-Ang):
   XX=            -20.7901   YY=            -17.5021   ZZ=            -17.9314
   XY=             -0.2629   XZ=              0.3426   YZ=              0.2843

 Normal termination of Gaussian 09 at Wed Aug 26 23:03:02 2020.
