 Gaussian 09, Revision D.01,
 Gaussian 09:  ES64L-G09RevD.01 24-Apr-2013

 --------------------
 #p B2PLYPD3/Def2QZVP
 --------------------

 ------------
 cyanomethane
 ------------
 Symbolic Z-matrix:
 Charge =  0 Multiplicity = 1

                         Standard orientation:
 ---------------------------------------------------------------------
 Center     Atomic      Atomic             Coordinates (Angstroms)
 Number     Number       Type             X           Y           Z
 ---------------------------------------------------------------------
      1          6           0        1.175642   -0.006790    0.007951
      2          6           0       -0.273220    0.021227    0.003076
      3          7           0       -1.432173   -0.006652   -0.002658
      4          1           0        1.530299   -0.092024    1.018740
      5          1           0        1.582444    0.934559   -0.466415
      6          1           0        1.497934   -0.882589   -0.599882
 ---------------------------------------------------------------------

 SCF Done:  E(RB2PLYPD3) =  -132.533324640     A.U. after   11 cycles
 E2(B2PLYPD3) =    -0.1810822822D+00 E(B2PLYPD3) =    -0.13271440692217D+03

 The electronic state is 1-A.
 Alpha  occ. eigenvalues --  -14.84252 -10.67578 -10.66300  -1.03908  -0.89101
 Alpha  occ. eigenvalues --   -0.59345  -0.54344  -0.53255  -0.44749  -0.38904
 Alpha  occ. eigenvalues --   -0.38746
 Alpha virt. eigenvalues --    0.03656   0.07439   0.07881   0.10152   0.11391
 Alpha virt. eigenvalues --    0.11568   0.15355   0.16071   0.16210   0.20106
 Alpha virt. eigenvalues --    0.20133   0.25481   0.32501   0.33928   0.34655

 Mulliken charges:
               1
     1  C   -0.095334
     2  C   -0.000215
     3  N   -0.208795
     4  H    0.104085
     5  H    0.098159
     6  H    0.102100
 Sum of Mulliken charges =   0.00000

 Dipole moment (field-independent basis, Debye):
    X=              4.1161    Y=              0.0008    Z=              0.0073  Tot=              4.1161
 Quadrupole moment (field-independent basis, Debye-Ang):
   XX=            -21.1821   YY=            -17.7517   ZZ=            -17.7254
   XY=              0.0127   XZ=             -0.0110   YZ=              0.0087

 Normal termination of Gaussian 09 at Wed Aug 26 19:29:08 2020.
