 Gaussian 09, Revision D.01,
 Gaussian 09:  ES64L-G09RevD.01 24-Apr-2013

 --------------------
 #p B2PLYPD3/Def2QZVP
 --------------------

 ------------
 cyanomethane
 ------------
 Symbolic Z-matrix:
 Charge =  0 Multiplicity = 1

                         Standard orientation:
 ---------------------------------------------------------------------
 Center     Atomic      Atomic             Coordinates (Angstroms)
 Number     Number       Type             X           Y           Z
 ---------------------------------------------------------------------
      1          6           0        1.174921   -0.000310   -0.005235
      2          6           0       -0.283938   -0.001555    0.024219
      3          7           0       -1.427740    0.001502   -0.012246
      4          1           0        1.558034    1.039752   -0.112415
      5          1           0        1.544686   -0.610749   -0.840400
      6          1           0        1.545564   -0.428326    0.924633
 ---------------------------------------------------------------------

 SCF Done:  E(RB2PLYPD3) =  -132.535619995     A.U. after   11 cycles
 E2(B2PLYPD3) =    -0.1797349124D+00 E(B2PLYPD3) =    -0.13271535490773D+03

 The electronic state is 1-A.
 Alpha  occ. eigenvalues --  -14.83892 -10.67424 -10.65937  -1.04511  -0.88911
 Alpha  occ. eigenvalues --   -0.59397  -0.53789  -0.53548  -0.44737  -0.39278
 Alpha  occ. eigenvalues --   -0.39277
 Alpha virt. eigenvalues --    0.03701   0.07826   0.08153   0.10187   0.11568
 Alpha virt. eigenvalues --    0.11631   0.15400   0.16121   0.16616   0.20024
 Alpha virt. eigenvalues --    0.20058   0.25361   0.32770   0.34420   0.34523

 Mulliken charges:
               1
     1  C   -0.090433
     2  C   -0.003173
     3  N   -0.200546
     4  H    0.097930
     5  H    0.098638
     6  H    0.097584
 Sum of Mulliken charges =   0.00000

 Dipole moment (field-independent basis, Debye):
    X=              4.1022    Y=             -0.0119    Z=              0.0215  Tot=              4.1023
 Quadrupole moment (field-independent basis, Debye-Ang):
   XX=            -21.0539   YY=            -17.6880   ZZ=            -17.7518
   XY=             -0.0031   XZ=             -0.0637   YZ=             -0.0011

 Normal termination of Gaussian 09 at Thu Aug 27 00:04:03 2020.
