 Gaussian 09, Revision D.01,
 Gaussian 09:  ES64L-G09RevD.01 24-Apr-2013

 --------------------
 #p B2PLYPD3/Def2QZVP
 --------------------

 ------------
 cyanomethane
 ------------
 Symbolic Z-matrix:
 Charge =  0 Multiplicity = 1

                         Standard orientation:
 ---------------------------------------------------------------------
 Center     Atomic      Atomic             Coordinates (Angstroms)
 Number     Number       Type             X           Y           Z
 ---------------------------------------------------------------------
      1          6           0        1.211864    0.031941   -0.022860
      2          6           0       -0.294167   -0.075103   -0.024431
      3          7           0       -1.430569    0.034310    0.020050
      4          1           0        1.477195    1.053016    0.126110
      5          1           0        1.452498   -0.440830   -0.878254
      6          1           0        1.578108   -0.593385    0.895538
 ---------------------------------------------------------------------

 SCF Done:  E(RB2PLYPD3) =  -132.521352053     A.U. after   12 cycles
 E2(B2PLYPD3) =    -0.1796915363D+00 E(B2PLYPD3) =    -0.13270104358960D+03

 The electronic state is 1-A.
 Alpha  occ. eigenvalues --  -14.83718 -10.67394 -10.65787  -1.04404  -0.88928
 Alpha  occ. eigenvalues --   -0.57668  -0.56760  -0.52266  -0.44461  -0.39635
 Alpha  occ. eigenvalues --   -0.39178
 Alpha virt. eigenvalues --    0.03512   0.07712   0.09530   0.10128   0.10885
 Alpha virt. eigenvalues --    0.11634   0.14882   0.15303   0.16533   0.19888
 Alpha virt. eigenvalues --    0.20112   0.24820   0.31718   0.33675   0.35809

 Mulliken charges:
               1
     1  C   -0.106695
     2  C   -0.008811
     3  N   -0.200775
     4  H    0.112933
     5  H    0.112093
     6  H    0.091255
 Sum of Mulliken charges =   0.00000

 Dipole moment (field-independent basis, Debye):
    X=              4.0772    Y=             -0.0472    Z=             -0.0296  Tot=              4.0775
 Quadrupole moment (field-independent basis, Debye-Ang):
   XX=            -21.3755   YY=            -17.5461   ZZ=            -17.7032
   XY=              0.1441   XZ=              0.2002   YZ=              0.1355

 Normal termination of Gaussian 09 at Wed Aug 26 20:58:44 2020.
