 Gaussian 09, Revision D.01,
 Gaussian 09:  ES64L-G09RevD.01 24-Apr-2013

 --------------------
 #p B2PLYPD3/Def2QZVP
 --------------------

 ------------
 cyanomethane
 ------------
 Symbolic Z-matrix:
 Charge =  0 Multiplicity = 1

                         Standard orientation:
 ---------------------------------------------------------------------
 Center     Atomic      Atomic             Coordinates (Angstroms)
 Number     Number       Type             X           Y           Z
 ---------------------------------------------------------------------
      1          6           0        1.165110    0.002393    0.013958
      2          6           0       -0.281460   -0.040441   -0.003174
      3          7           0       -1.427900    0.025027   -0.000478
      4          1           0        1.616568    1.033854   -0.291062
      5          1           0        1.532916   -0.730890   -0.743048
      6          1           0        1.543917   -0.249866    0.972750
 ---------------------------------------------------------------------

 SCF Done:  E(RB2PLYPD3) =  -132.530330576     A.U. after   12 cycles
 E2(B2PLYPD3) =    -0.1803903552D+00 E(B2PLYPD3) =    -0.13271072093078D+03

 The electronic state is 1-A.
 Alpha  occ. eigenvalues --  -14.84092 -10.67696 -10.66097  -1.04449  -0.88855
 Alpha  occ. eigenvalues --   -0.59841  -0.54227  -0.52211  -0.44859  -0.39272
 Alpha  occ. eigenvalues --   -0.38966
 Alpha virt. eigenvalues --    0.03482   0.07092   0.08158   0.10109   0.11492
 Alpha virt. eigenvalues --    0.11802   0.15511   0.15923   0.17052   0.20009
 Alpha virt. eigenvalues --    0.20119   0.25657   0.32611   0.33484   0.34843

 Mulliken charges:
               1
     1  C   -0.089589
     2  C    0.000816
     3  N   -0.201642
     4  H    0.093428
     5  H    0.095273
     6  H    0.101715
 Sum of Mulliken charges =   0.00000

 Dipole moment (field-independent basis, Debye):
    X=              4.0934    Y=             -0.0550    Z=              0.0058  Tot=              4.0938
 Quadrupole moment (field-independent basis, Debye-Ang):
   XX=            -20.9840   YY=            -17.8010   ZZ=            -17.7515
   XY=              0.1746   XZ=             -0.0056   YZ=             -0.0066

 Normal termination of Gaussian 09 at Wed Aug 26 13:22:34 2020.
