 Gaussian 09, Revision D.01,
 Gaussian 09:  ES64L-G09RevD.01 24-Apr-2013

 --------------------
 #p B2PLYPD3/Def2QZVP
 --------------------

 ------------
 cyanomethane
 ------------
 Symbolic Z-matrix:
 Charge =  0 Multiplicity = 1

                         Standard orientation:
 ---------------------------------------------------------------------
 Center     Atomic      Atomic             Coordinates (Angstroms)
 Number     Number       Type             X           Y           Z
 ---------------------------------------------------------------------
      1          6           0       -1.178366   -0.022069   -0.005904
      2          6           0        0.274494   -0.004440    0.024562
      3          7           0        1.441346    0.003602   -0.012378
      4          1           0       -1.553270    0.039304    0.992399
      5          1           0       -1.569517   -0.838482   -0.514092
      6          1           0       -1.543401    0.933019   -0.503610
 ---------------------------------------------------------------------

 SCF Done:  E(RB2PLYPD3) =  -132.530588882     A.U. after   12 cycles
 E2(B2PLYPD3) =    -0.1815639872D+00 E(B2PLYPD3) =    -0.13271215286896D+03

 The electronic state is 1-A.
 Alpha  occ. eigenvalues --  -14.84589 -10.66874 -10.66668  -1.03640  -0.89556
 Alpha  occ. eigenvalues --   -0.60321  -0.55337  -0.52737  -0.44878  -0.38961
 Alpha  occ. eigenvalues --   -0.38550
 Alpha virt. eigenvalues --    0.03700   0.07431   0.07989   0.10117   0.11125
 Alpha virt. eigenvalues --    0.11560   0.15433   0.15903   0.16851   0.20096
 Alpha virt. eigenvalues --    0.20209   0.25441   0.32540   0.33707   0.35593

 Mulliken charges:
               1
     1  C   -0.076885
     2  C    0.002398
     3  N   -0.212280
     4  H    0.095091
     5  H    0.101518
     6  H    0.090159
 Sum of Mulliken charges =   0.00000

 Dipole moment (field-independent basis, Debye):
    X=             -4.1515    Y=              0.0062    Z=              0.0298  Tot=              4.1517
 Quadrupole moment (field-independent basis, Debye-Ang):
   XX=            -20.9311   YY=            -17.7652   ZZ=            -17.8406
   XY=             -0.0375   XZ=              0.0381   YZ=              0.0940

 Normal termination of Gaussian 09 at Wed Aug 26 12:07:13 2020.
