 Gaussian 09, Revision D.01,
 Gaussian 09:  ES64L-G09RevD.01 24-Apr-2013

 --------------------
 #p B2PLYPD3/Def2QZVP
 --------------------

 ------------
 cyanomethane
 ------------
 Symbolic Z-matrix:
 Charge =  0 Multiplicity = 1

                         Standard orientation:
 ---------------------------------------------------------------------
 Center     Atomic      Atomic             Coordinates (Angstroms)
 Number     Number       Type             X           Y           Z
 ---------------------------------------------------------------------
      1          6           0        1.154753    0.000360   -0.014218
      2          6           0       -0.260997    0.039569    0.021378
      3          7           0       -1.435421   -0.019203   -0.008178
      4          1           0        1.575788   -0.253502    0.933646
      5          1           0        1.576586    0.885383   -0.275554
      6          1           0        1.533037   -0.737032   -0.643809
 ---------------------------------------------------------------------

 SCF Done:  E(RB2PLYPD3) =  -132.525427204     A.U. after   11 cycles
 E2(B2PLYPD3) =    -0.1819774363D+00 E(B2PLYPD3) =    -0.13270740463998D+03

 The electronic state is 1-A.
 Alpha  occ. eigenvalues --  -14.84868 -10.66821 -10.65209  -1.03471  -0.91008
 Alpha  occ. eigenvalues --   -0.62220  -0.55610  -0.53894  -0.45048  -0.38660
 Alpha  occ. eigenvalues --   -0.38412
 Alpha virt. eigenvalues --    0.03884   0.07371   0.07887   0.10059   0.11210
 Alpha virt. eigenvalues --    0.11588   0.15814   0.16407   0.16884   0.20161
 Alpha virt. eigenvalues --    0.20285   0.26180   0.33192   0.34941   0.35689

 Mulliken charges:
               1
     1  C   -0.044662
     2  C    0.007858
     3  N   -0.216967
     4  H    0.080395
     5  H    0.087089
     6  H    0.086287
 Sum of Mulliken charges =   0.00000

 Dipole moment (field-independent basis, Debye):
    X=              4.1837    Y=              0.0099    Z=              0.0171  Tot=              4.1837
 Quadrupole moment (field-independent basis, Debye-Ang):
   XX=            -20.5603   YY=            -17.7508   ZZ=            -17.8930
   XY=             -0.1095   XZ=              0.0016   YZ=             -0.0062

 Normal termination of Gaussian 09 at Wed Aug 26 13:43:20 2020.
