 Gaussian 09, Revision D.01,
 Gaussian 09:  ES64L-G09RevD.01 24-Apr-2013

 --------------------
 #p B2PLYPD3/Def2QZVP
 --------------------

 ------------
 cyanomethane
 ------------
 Symbolic Z-matrix:
 Charge =  0 Multiplicity = 1

                         Standard orientation:
 ---------------------------------------------------------------------
 Center     Atomic      Atomic             Coordinates (Angstroms)
 Number     Number       Type             X           Y           Z
 ---------------------------------------------------------------------
      1          6           0       -1.183064   -0.006723   -0.000141
      2          6           0        0.273590    0.016780   -0.014620
      3          7           0        1.437250   -0.009959    0.007012
      4          1           0       -1.515518    0.902350   -0.444399
      5          1           0       -1.527287   -0.046434    1.015592
      6          1           0       -1.561101   -0.846544   -0.531710
 ---------------------------------------------------------------------

 SCF Done:  E(RB2PLYPD3) =  -132.533974361     A.U. after   11 cycles
 E2(B2PLYPD3) =    -0.1810199143D+00 E(B2PLYPD3) =    -0.13271499427506D+03

 The electronic state is 1-A.
 Alpha  occ. eigenvalues --  -14.84407 -10.66509 -10.66452  -1.03710  -0.89817
 Alpha  occ. eigenvalues --   -0.59824  -0.54814  -0.54365  -0.44769  -0.38890
 Alpha  occ. eigenvalues --   -0.38805
 Alpha virt. eigenvalues --    0.03846   0.07901   0.08197   0.10157   0.11232
 Alpha virt. eigenvalues --    0.11353   0.15419   0.15887   0.16517   0.20123
 Alpha virt. eigenvalues --    0.20173   0.25360   0.32787   0.34743   0.35112

 Mulliken charges:
               1
     1  C   -0.078774
     2  C   -0.001141
     3  N   -0.211803
     4  H    0.097205
     5  H    0.096564
     6  H    0.097949
 Sum of Mulliken charges =   0.00000

 Dipole moment (field-independent basis, Debye):
    X=             -4.1463    Y=              0.0184    Z=             -0.0035  Tot=              4.1464
 Quadrupole moment (field-independent basis, Debye-Ang):
   XX=            -21.0141   YY=            -17.7086   ZZ=            -17.7612
   XY=              0.0741   XZ=             -0.0411   YZ=              0.0068

 Normal termination of Gaussian 09 at Wed Aug 26 10:21:43 2020.
