 Gaussian 09, Revision D.01,
 Gaussian 09:  ES64L-G09RevD.01 24-Apr-2013

 --------------------
 #p B2PLYPD3/Def2QZVP
 --------------------

 ------------
 cyanomethane
 ------------
 Symbolic Z-matrix:
 Charge =  0 Multiplicity = 1

                         Standard orientation:
 ---------------------------------------------------------------------
 Center     Atomic      Atomic             Coordinates (Angstroms)
 Number     Number       Type             X           Y           Z
 ---------------------------------------------------------------------
      1          6           0       -1.188842    0.007566   -0.011528
      2          6           0        0.281317    0.045387    0.005026
      3          7           0        1.422614   -0.032029   -0.014826
      4          1           0       -1.689364   -0.884336   -0.576764
      5          1           0       -1.482602    0.968828   -0.336701
      6          1           0       -1.341179   -0.178004    1.056256
 ---------------------------------------------------------------------

 SCF Done:  E(RB2PLYPD3) =  -132.523454860     A.U. after   13 cycles
 E2(B2PLYPD3) =    -0.1801724517D+00 E(B2PLYPD3) =    -0.13270362731173D+03

 The electronic state is 1-A.
 Alpha  occ. eigenvalues --  -14.83710 -10.67765 -10.65834  -1.04432  -0.89054
 Alpha  occ. eigenvalues --   -0.58177  -0.55681  -0.52213  -0.44535  -0.39375
 Alpha  occ. eigenvalues --   -0.38856
 Alpha virt. eigenvalues --    0.03416   0.07250   0.09088   0.10190   0.11267
 Alpha virt. eigenvalues --    0.11904   0.14760   0.15228   0.17320   0.20019
 Alpha virt. eigenvalues --    0.20228   0.25206   0.32149   0.33408   0.35118

 Mulliken charges:
               1
     1  C   -0.111947
     2  C   -0.003668
     3  N   -0.202164
     4  H    0.101049
     5  H    0.111005
     6  H    0.105726
 Sum of Mulliken charges =   0.00000

 Dipole moment (field-independent basis, Debye):
    X=             -4.0766    Y=              0.0372    Z=              0.0703  Tot=              4.0774
 Quadrupole moment (field-independent basis, Debye-Ang):
   XX=            -21.3559   YY=            -17.4996   ZZ=            -17.8275
   XY=              0.3324   XZ=              0.2136   YZ=             -0.0915

 Normal termination of Gaussian 09 at Wed Aug 26 18:51:14 2020.
