 Gaussian 09, Revision D.01,
 Gaussian 09:  ES64L-G09RevD.01 24-Apr-2013

 --------------------
 #p B2PLYPD3/Def2QZVP
 --------------------

 ------------
 cyanomethane
 ------------
 Symbolic Z-matrix:
 Charge =  0 Multiplicity = 1

                         Standard orientation:
 ---------------------------------------------------------------------
 Center     Atomic      Atomic             Coordinates (Angstroms)
 Number     Number       Type             X           Y           Z
 ---------------------------------------------------------------------
      1          6           0       -1.216054    0.004810   -0.022832
      2          6           0        0.296156   -0.054520   -0.023051
      3          7           0        1.441083    0.023089    0.018466
      4          1           0       -1.437726    0.978793   -0.501110
      5          1           0       -1.577610    0.058716    1.108406
      6          1           0       -1.552863   -0.900872   -0.461259
 ---------------------------------------------------------------------

 SCF Done:  E(RB2PLYPD3) =  -132.524278720     A.U. after   12 cycles
 E2(B2PLYPD3) =    -0.1805660072D+00 E(B2PLYPD3) =    -0.13270484472717D+03

 The electronic state is 1-A.
 Alpha  occ. eigenvalues --  -14.83893 -10.68652 -10.66074  -1.04139  -0.87869
 Alpha  occ. eigenvalues --   -0.57419  -0.55532  -0.51597  -0.44471  -0.39443
 Alpha  occ. eigenvalues --   -0.38978
 Alpha virt. eigenvalues --    0.03311   0.07448   0.08838   0.10236   0.10869
 Alpha virt. eigenvalues --    0.11642   0.14689   0.15785   0.15994   0.19911
 Alpha virt. eigenvalues --    0.20130   0.24400   0.31562   0.32851   0.35136

 Mulliken charges:
               1
     1  C   -0.114792
     2  C   -0.006174
     3  N   -0.202469
     4  H    0.114554
     5  H    0.096164
     6  H    0.112717
 Sum of Mulliken charges =   0.00000

 Dipole moment (field-independent basis, Debye):
    X=             -4.1039    Y=             -0.0255    Z=             -0.0213  Tot=              4.1041
 Quadrupole moment (field-independent basis, Debye-Ang):
   XX=            -21.4626   YY=            -17.5082   ZZ=            -17.8888
   XY=             -0.0373   XZ=             -0.2047   YZ=              0.0085

 Normal termination of Gaussian 09 at Wed Aug 26 22:46:04 2020.
