 Gaussian 09, Revision D.01,
 Gaussian 09:  ES64L-G09RevD.01 24-Apr-2013

 --------------------
 #p B2PLYPD3/Def2QZVP
 --------------------

 ------------
 cyanomethane
 ------------
 Symbolic Z-matrix:
 Charge =  0 Multiplicity = 1

                         Standard orientation:
 ---------------------------------------------------------------------
 Center     Atomic      Atomic             Coordinates (Angstroms)
 Number     Number       Type             X           Y           Z
 ---------------------------------------------------------------------
      1          6           0        1.173047    0.006886    0.025382
      2          6           0       -0.283403   -0.041586   -0.009463
      3          7           0       -1.436492    0.024444    0.002357
      4          1           0        1.614241    1.043565   -0.241308
      5          1           0        1.541302   -0.684997   -0.796592
      6          1           0        1.562036   -0.321481    0.925892
 ---------------------------------------------------------------------

 SCF Done:  E(RB2PLYPD3) =  -132.528009852     A.U. after   12 cycles
 E2(B2PLYPD3) =    -0.1809498604D+00 E(B2PLYPD3) =    -0.13270895971212D+03

 The electronic state is 1-A.
 Alpha  occ. eigenvalues --  -14.84331 -10.67676 -10.66397  -1.04179  -0.88819
 Alpha  occ. eigenvalues --   -0.60098  -0.54337  -0.52002  -0.44906  -0.39254
 Alpha  occ. eigenvalues --   -0.38804
 Alpha virt. eigenvalues --    0.03482   0.07034   0.08113   0.10087   0.11308
 Alpha virt. eigenvalues --    0.11720   0.15446   0.15772   0.17281   0.20041
 Alpha virt. eigenvalues --    0.20143   0.25512   0.32427   0.33206   0.35012

 Mulliken charges:
               1
     1  C   -0.086819
     2  C    0.003355
     3  N   -0.204947
     4  H    0.094724
     5  H    0.090538
     6  H    0.103149
 Sum of Mulliken charges =   0.00000

 Dipole moment (field-independent basis, Debye):
    X=              4.1121    Y=             -0.0555    Z=             -0.0058  Tot=              4.1125
 Quadrupole moment (field-independent basis, Debye-Ang):
   XX=            -20.9387   YY=            -17.8244   ZZ=            -17.8107
   XY=              0.1467   XZ=              0.0023   YZ=             -0.0667

 Normal termination of Gaussian 09 at Wed Aug 26 11:24:16 2020.
