 Gaussian 09, Revision D.01,
 Gaussian 09:  ES64L-G09RevD.01 24-Apr-2013

 --------------------
 #p B2PLYPD3/Def2QZVP
 --------------------

 ------------
 cyanomethane
 ------------
 Symbolic Z-matrix:
 Charge =  0 Multiplicity = 1

                         Standard orientation:
 ---------------------------------------------------------------------
 Center     Atomic      Atomic             Coordinates (Angstroms)
 Number     Number       Type             X           Y           Z
 ---------------------------------------------------------------------
      1          6           0        1.173700   -0.020972   -0.002905
      2          6           0       -0.289959   -0.022123    0.009280
      3          7           0       -1.440781    0.016841   -0.000706
      4          1           0        1.627779    1.054866   -0.055581
      5          1           0        1.527115   -0.498626   -0.828658
      6          1           0        1.628120   -0.415559    0.850926
 ---------------------------------------------------------------------

 SCF Done:  E(RB2PLYPD3) =  -132.526199954     A.U. after   11 cycles
 E2(B2PLYPD3) =    -0.1802532712D+00 E(B2PLYPD3) =    -0.13270645322569D+03

 The electronic state is 1-A.
 Alpha  occ. eigenvalues --  -14.84337 -10.66700 -10.66440  -1.04373  -0.89426
 Alpha  occ. eigenvalues --   -0.60954  -0.55354  -0.51745  -0.44987  -0.39537
 Alpha  occ. eigenvalues --   -0.39049
 Alpha virt. eigenvalues --    0.03575   0.07377   0.08522   0.10200   0.11209
 Alpha virt. eigenvalues --    0.11760   0.15473   0.16691   0.17029   0.19976
 Alpha virt. eigenvalues --    0.20153   0.25242   0.32265   0.33781   0.36006

 Mulliken charges:
               1
     1  C   -0.064731
     2  C    0.003780
     3  N   -0.203430
     4  H    0.079488
     5  H    0.094853
     6  H    0.090040
 Sum of Mulliken charges =   0.00000

 Dipole moment (field-independent basis, Debye):
    X=              4.1400    Y=             -0.0474    Z=             -0.0007  Tot=              4.1403
 Quadrupole moment (field-independent basis, Debye-Ang):
   XX=            -20.6119   YY=            -17.8980   ZZ=            -17.8043
   XY=              0.1098   XZ=              0.0568   YZ=              0.0434

 Normal termination of Gaussian 09 at Wed Aug 26 13:21:19 2020.
