 Gaussian 09, Revision D.01,
 Gaussian 09:  ES64L-G09RevD.01 24-Apr-2013

 --------------------
 #p B2PLYPD3/Def2QZVP
 --------------------

 ------------
 cyanomethane
 ------------
 Symbolic Z-matrix:
 Charge =  0 Multiplicity = 1

                         Standard orientation:
 ---------------------------------------------------------------------
 Center     Atomic      Atomic             Coordinates (Angstroms)
 Number     Number       Type             X           Y           Z
 ---------------------------------------------------------------------
      1          6           0       -1.181751    0.002692    0.002280
      2          6           0        0.273522   -0.021273   -0.004813
      3          7           0        1.440611    0.012372   -0.000424
      4          1           0       -1.502724   -0.449852    0.921705
      5          1           0       -1.564043   -0.566157   -0.842849
      6          1           0       -1.568140    1.040892   -0.060686
 ---------------------------------------------------------------------

 SCF Done:  E(RB2PLYPD3) =  -132.533590067     A.U. after   12 cycles
 E2(B2PLYPD3) =    -0.1816244139D+00 E(B2PLYPD3) =    -0.13271521448135D+03

 The electronic state is 1-A.
 Alpha  occ. eigenvalues --  -14.84535 -10.67202 -10.66612  -1.03589  -0.89316
 Alpha  occ. eigenvalues --   -0.59635  -0.54411  -0.53662  -0.44808  -0.38740
 Alpha  occ. eigenvalues --   -0.38706
 Alpha virt. eigenvalues --    0.03708   0.07437   0.07950   0.10146   0.11261
 Alpha virt. eigenvalues --    0.11367   0.15356   0.15897   0.16484   0.20141
 Alpha virt. eigenvalues --    0.20167   0.25382   0.32567   0.34415   0.34683

 Mulliken charges:
               1
     1  C   -0.086012
     2  C    0.000357
     3  N   -0.212444
     4  H    0.100987
     5  H    0.098452
     6  H    0.098661
 Sum of Mulliken charges =   0.00000

 Dipole moment (field-independent basis, Debye):
    X=             -4.1440    Y=             -0.0238    Z=              0.0056  Tot=              4.1440
 Quadrupole moment (field-independent basis, Debye-Ang):
   XX=            -21.0679   YY=            -17.7707   ZZ=            -17.7845
   XY=             -0.0756   XZ=              0.0404   YZ=             -0.0115

 Normal termination of Gaussian 09 at Thu Aug 27 00:01:31 2020.
