 Gaussian 09, Revision D.01,
 Gaussian 09:  ES64L-G09RevD.01 24-Apr-2013

 --------------------
 #p B2PLYPD3/Def2QZVP
 --------------------

 ------------
 cyanomethane
 ------------
 Symbolic Z-matrix:
 Charge =  0 Multiplicity = 1

                         Standard orientation:
 ---------------------------------------------------------------------
 Center     Atomic      Atomic             Coordinates (Angstroms)
 Number     Number       Type             X           Y           Z
 ---------------------------------------------------------------------
      1          6           0        1.184034    0.026142    0.015431
      2          6           0       -0.270661    0.005342   -0.066866
      3          7           0       -1.447099   -0.007864    0.023557
      4          1           0        1.543828    1.012489   -0.127088
      5          1           0        1.672075   -0.739835   -0.719351
      6          1           0        1.433549   -0.406510    0.990148
 ---------------------------------------------------------------------

 SCF Done:  E(RB2PLYPD3) =  -132.525474057     A.U. after   12 cycles
 E2(B2PLYPD3) =    -0.1831396768D+00 E(B2PLYPD3) =    -0.13270861373408D+03

 The electronic state is 1-A.
 Alpha  occ. eigenvalues --  -14.84917 -10.67787 -10.67032  -1.03143  -0.89006
 Alpha  occ. eigenvalues --   -0.59516  -0.55540  -0.51848  -0.44874  -0.38642
 Alpha  occ. eigenvalues --   -0.38121
 Alpha virt. eigenvalues --    0.03523   0.06591   0.07700   0.10133   0.10839
 Alpha virt. eigenvalues --    0.11606   0.15135   0.15781   0.16613   0.20073
 Alpha virt. eigenvalues --    0.20239   0.25554   0.31574   0.33821   0.35142

 Mulliken charges:
               1
     1  C   -0.091198
     2  C    0.005387
     3  N   -0.217327
     4  H    0.109211
     5  H    0.090271
     6  H    0.103657
 Sum of Mulliken charges =   0.00000

 Dipole moment (field-independent basis, Debye):
    X=              4.1445    Y=             -0.0147    Z=              0.0164  Tot=              4.1446
 Quadrupole moment (field-independent basis, Debye-Ang):
   XX=            -21.1223   YY=            -17.6305   ZZ=            -18.0690
   XY=             -0.1473   XZ=              0.0499   YZ=             -0.0912

 Normal termination of Gaussian 09 at Wed Aug 26 16:38:15 2020.
