 Gaussian 09, Revision D.01,
 Gaussian 09:  ES64L-G09RevD.01 24-Apr-2013

 --------------------
 #p B2PLYPD3/Def2QZVP
 --------------------

 ------------
 cyanomethane
 ------------
 Symbolic Z-matrix:
 Charge =  0 Multiplicity = 1

                         Standard orientation:
 ---------------------------------------------------------------------
 Center     Atomic      Atomic             Coordinates (Angstroms)
 Number     Number       Type             X           Y           Z
 ---------------------------------------------------------------------
      1          6           0        1.179542    0.005058   -0.006471
      2          6           0       -0.284954    0.002862    0.016906
      3          7           0       -1.437483   -0.000329   -0.009157
      4          1           0        1.591042    0.984975   -0.264950
      5          1           0        1.557438   -0.749672   -0.715327
      6          1           0        1.546368   -0.280520    0.981773
 ---------------------------------------------------------------------

 SCF Done:  E(RB2PLYPD3) =  -132.535290519     A.U. after   12 cycles
 E2(B2PLYPD3) =    -0.1804316171D+00 E(B2PLYPD3) =    -0.13271572213658D+03

 The electronic state is 1-A.
 Alpha  occ. eigenvalues --  -14.84205 -10.67386 -10.66298  -1.04198  -0.88895
 Alpha  occ. eigenvalues --   -0.59724  -0.53825  -0.53348  -0.44823  -0.39208
 Alpha  occ. eigenvalues --   -0.39081
 Alpha virt. eigenvalues --    0.03709   0.07742   0.07971   0.10183   0.11406
 Alpha virt. eigenvalues --    0.11539   0.15366   0.16095   0.16814   0.20057
 Alpha virt. eigenvalues --    0.20089   0.25243   0.32628   0.34326   0.34811

 Mulliken charges:
               1
     1  C   -0.083555
     2  C   -0.000744
     3  N   -0.204490
     4  H    0.097880
     5  H    0.096075
     6  H    0.094836
 Sum of Mulliken charges =   0.00000

 Dipole moment (field-independent basis, Debye):
    X=              4.1297    Y=             -0.0110    Z=              0.0234  Tot=              4.1298
 Quadrupole moment (field-independent basis, Debye-Ang):
   XX=            -20.9459   YY=            -17.7274   ZZ=            -17.8387
   XY=             -0.0016   XZ=             -0.0429   YZ=             -0.0091

 Normal termination of Gaussian 09 at Thu Aug 27 00:06:25 2020.
