 Gaussian 09, Revision D.01,
 Gaussian 09:  ES64L-G09RevD.01 24-Apr-2013

 --------------------
 #p B2PLYPD3/Def2QZVP
 --------------------

 ------------
 cyanomethane
 ------------
 Symbolic Z-matrix:
 Charge =  0 Multiplicity = 1

                         Standard orientation:
 ---------------------------------------------------------------------
 Center     Atomic      Atomic             Coordinates (Angstroms)
 Number     Number       Type             X           Y           Z
 ---------------------------------------------------------------------
      1          6           0        1.181745   -0.011072   -0.010348
      2          6           0       -0.274559    0.017746    0.014692
      3          7           0       -1.438578   -0.006264   -0.004454
      4          1           0        1.570742   -0.058484    0.999861
      5          1           0        1.551250    0.923655   -0.448629
      6          1           0        1.504935   -0.861364   -0.546118
 ---------------------------------------------------------------------

 SCF Done:  E(RB2PLYPD3) =  -132.533908401     A.U. after   11 cycles
 E2(B2PLYPD3) =    -0.1811907240D+00 E(B2PLYPD3) =    -0.13271509912524D+03

 The electronic state is 1-A.
 Alpha  occ. eigenvalues --  -14.84439 -10.66841 -10.66508  -1.03711  -0.89545
 Alpha  occ. eigenvalues --   -0.59780  -0.55002  -0.53566  -0.44792  -0.38913
 Alpha  occ. eigenvalues --   -0.38742
 Alpha virt. eigenvalues --    0.03796   0.07774   0.07970   0.10166   0.11235
 Alpha virt. eigenvalues --    0.11412   0.15356   0.16066   0.16410   0.20104
 Alpha virt. eigenvalues --    0.20170   0.25380   0.32643   0.34350   0.35179

 Mulliken charges:
               1
     1  C   -0.081196
     2  C   -0.000391
     3  N   -0.211465
     4  H    0.093952
     5  H    0.096823
     6  H    0.102277
 Sum of Mulliken charges =   0.00000

 Dipole moment (field-independent basis, Debye):
    X=              4.1448    Y=              0.0064    Z=              0.0199  Tot=              4.1448
 Quadrupole moment (field-independent basis, Debye-Ang):
   XX=            -21.0218   YY=            -17.6683   ZZ=            -17.8481
   XY=             -0.0014   XZ=              0.0517   YZ=              0.0374

 Normal termination of Gaussian 09 at Wed Aug 26 10:25:18 2020.
