 Gaussian 09, Revision D.01,
 Gaussian 09:  ES64L-G09RevD.01 24-Apr-2013

 --------------------
 #p B2PLYPD3/Def2QZVP
 --------------------

 ------------
 cyanomethane
 ------------
 Symbolic Z-matrix:
 Charge =  0 Multiplicity = 1

                         Standard orientation:
 ---------------------------------------------------------------------
 Center     Atomic      Atomic             Coordinates (Angstroms)
 Number     Number       Type             X           Y           Z
 ---------------------------------------------------------------------
      1          6           0        1.179714   -0.000887    0.000162
      2          6           0       -0.281507    0.014457   -0.005321
      3          7           0       -1.433816   -0.002481    0.001310
      4          1           0        1.522627   -0.670825   -0.789600
      5          1           0        1.505961   -0.397705    0.958659
      6          1           0        1.618883    1.004479   -0.147275
 ---------------------------------------------------------------------

 SCF Done:  E(RB2PLYPD3) =  -132.535336551     A.U. after   12 cycles
 E2(B2PLYPD3) =    -0.1803543826D+00 E(B2PLYPD3) =    -0.13271569093369D+03

 The electronic state is 1-A.
 Alpha  occ. eigenvalues --  -14.84117 -10.67339 -10.66199  -1.04179  -0.89039
 Alpha  occ. eigenvalues --   -0.59465  -0.53926  -0.53693  -0.44755  -0.39132
 Alpha  occ. eigenvalues --   -0.39070
 Alpha virt. eigenvalues --    0.03732   0.07769   0.08079   0.10204   0.11444
 Alpha virt. eigenvalues --    0.11529   0.15347   0.16027   0.16608   0.20066
 Alpha virt. eigenvalues --    0.20098   0.25272   0.32605   0.34450   0.34693

 Mulliken charges:
               1
     1  C   -0.088727
     2  C   -0.001858
     3  N   -0.205042
     4  H    0.098970
     5  H    0.099149
     6  H    0.097507
 Sum of Mulliken charges =   0.00000

 Dipole moment (field-independent basis, Debye):
    X=              4.1235    Y=             -0.0129    Z=              0.0046  Tot=              4.1235
 Quadrupole moment (field-independent basis, Debye-Ang):
   XX=            -21.0433   YY=            -17.7196   ZZ=            -17.7726
   XY=              0.0350   XZ=             -0.0031   YZ=              0.0024

 Normal termination of Gaussian 09 at Thu Aug 27 00:04:06 2020.
