 Gaussian 09, Revision D.01,
 Gaussian 09:  ES64L-G09RevD.01 24-Apr-2013

 --------------------
 #p B2PLYPD3/Def2QZVP
 --------------------

 ------------
 cyanomethane
 ------------
 Symbolic Z-matrix:
 Charge =  0 Multiplicity = 1

                         Standard orientation:
 ---------------------------------------------------------------------
 Center     Atomic      Atomic             Coordinates (Angstroms)
 Number     Number       Type             X           Y           Z
 ---------------------------------------------------------------------
      1          6           0       -1.157576    0.029697    0.014383
      2          6           0        0.261063   -0.003431    0.074817
      3          7           0        1.423094    0.002832   -0.044925
      4          1           0       -1.458741   -0.291203    0.947438
      5          1           0       -1.528139   -0.885015   -0.765747
      6          1           0       -1.595701    0.998800   -0.402415
 ---------------------------------------------------------------------

 SCF Done:  E(RB2PLYPD3) =  -132.510768829     A.U. after   12 cycles
 E2(B2PLYPD3) =    -0.1828317174D+00 E(B2PLYPD3) =    -0.13269360054625D+03

 The electronic state is 1-A.
 Alpha  occ. eigenvalues --  -14.84527 -10.68286 -10.66434  -1.03705  -0.89322
 Alpha  occ. eigenvalues --   -0.59271  -0.55861  -0.50738  -0.44866  -0.38733
 Alpha  occ. eigenvalues --   -0.37852
 Alpha virt. eigenvalues --    0.02771   0.05750   0.08266   0.09895   0.11082
 Alpha virt. eigenvalues --    0.12091   0.15149   0.15530   0.17048   0.19989
 Alpha virt. eigenvalues --    0.20317   0.26033   0.30673   0.33092   0.34957

 Mulliken charges:
               1
     1  C   -0.112031
     2  C    0.009039
     3  N   -0.212261
     4  H    0.111804
     5  H    0.090452
     6  H    0.112997
 Sum of Mulliken charges =   0.00000

 Dipole moment (field-independent basis, Debye):
    X=             -4.0641    Y=             -0.0059    Z=              0.0783  Tot=              4.0649
 Quadrupole moment (field-independent basis, Debye-Ang):
   XX=            -21.3414   YY=            -17.6966   ZZ=            -17.8378
   XY=             -0.0521   XZ=              0.2826   YZ=             -0.2056

 Normal termination of Gaussian 09 at Wed Aug 26 20:12:53 2020.
