 Gaussian 09, Revision D.01,
 Gaussian 09:  ES64L-G09RevD.01 24-Apr-2013

 --------------------
 #p B2PLYPD3/Def2QZVP
 --------------------

 ------------
 cyanomethane
 ------------
 Symbolic Z-matrix:
 Charge =  0 Multiplicity = 1

                         Standard orientation:
 ---------------------------------------------------------------------
 Center     Atomic      Atomic             Coordinates (Angstroms)
 Number     Number       Type             X           Y           Z
 ---------------------------------------------------------------------
      1          6           0       -1.193402   -0.021767   -0.008319
      2          6           0        0.287350    0.022231    0.012276
      3          7           0        1.434820   -0.006508   -0.006813
      4          1           0       -1.512504   -0.168405    0.987460
      5          1           0       -1.515125   -0.771972   -0.632738
      6          1           0       -1.579801    0.983144   -0.330772
 ---------------------------------------------------------------------

 SCF Done:  E(RB2PLYPD3) =  -132.531866856     A.U. after   12 cycles
 E2(B2PLYPD3) =    -0.1796784492D+00 E(B2PLYPD3) =    -0.13271154530494D+03

 The electronic state is 1-A.
 Alpha  occ. eigenvalues --  -14.83959 -10.66744 -10.66058  -1.04289  -0.89384
 Alpha  occ. eigenvalues --   -0.59195  -0.55591  -0.53300  -0.44660  -0.39462
 Alpha  occ. eigenvalues --   -0.39177
 Alpha virt. eigenvalues --    0.03818   0.08131   0.08738   0.10210   0.11227
 Alpha virt. eigenvalues --    0.11510   0.15252   0.15887   0.16611   0.20016
 Alpha virt. eigenvalues --    0.20097   0.24944   0.32457   0.34246   0.35637

 Mulliken charges:
               1
     1  C   -0.085464
     2  C   -0.005192
     3  N   -0.203490
     4  H    0.097588
     5  H    0.103736
     6  H    0.092821
 Sum of Mulliken charges =   0.00000

 Dipole moment (field-independent basis, Debye):
    X=             -4.1247    Y=              0.0032    Z=              0.0308  Tot=              4.1248
 Quadrupole moment (field-independent basis, Debye-Ang):
   XX=            -21.0532   YY=            -17.6509   ZZ=            -17.7317
   XY=             -0.0054   XZ=              0.0083   YZ=              0.0726

 Normal termination of Gaussian 09 at Wed Aug 26 16:59:40 2020.
