 Gaussian 09, Revision D.01,
 Gaussian 09:  ES64L-G09RevD.01 24-Apr-2013

 --------------------
 #p B2PLYPD3/Def2QZVP
 --------------------

 ------------
 cyanomethane
 ------------
 Symbolic Z-matrix:
 Charge =  0 Multiplicity = 1

                         Standard orientation:
 ---------------------------------------------------------------------
 Center     Atomic      Atomic             Coordinates (Angstroms)
 Number     Number       Type             X           Y           Z
 ---------------------------------------------------------------------
      1          6           0        1.166142   -0.001035   -0.000461
      2          6           0       -0.271189   -0.001976   -0.029494
      3          7           0       -1.432217   -0.001690    0.007822
      4          1           0        1.557020    0.965214   -0.338114
      5          1           0        1.647672   -0.806499   -0.569215
      6          1           0        1.451108   -0.128818    1.032304
 ---------------------------------------------------------------------

 SCF Done:  E(RB2PLYPD3) =  -132.533711947     A.U. after   12 cycles
 E2(B2PLYPD3) =    -0.1811484209D+00 E(B2PLYPD3) =    -0.13271486036838D+03

 The electronic state is 1-A.
 Alpha  occ. eigenvalues --  -14.84381 -10.66974 -10.66422  -1.03904  -0.89578
 Alpha  occ. eigenvalues --   -0.60313  -0.54033  -0.53741  -0.44858  -0.38870
 Alpha  occ. eigenvalues --   -0.38720
 Alpha virt. eigenvalues --    0.03759   0.07435   0.07806   0.10162   0.11412
 Alpha virt. eigenvalues --    0.11624   0.15499   0.15920   0.16906   0.20123
 Alpha virt. eigenvalues --    0.20166   0.25729   0.32710   0.34426   0.34871

 Mulliken charges:
               1
     1  C   -0.080512
     2  C    0.002146
     3  N   -0.210082
     4  H    0.095969
     5  H    0.094940
     6  H    0.097539
 Sum of Mulliken charges =   0.00000

 Dipole moment (field-independent basis, Debye):
    X=              4.1392    Y=              0.0036    Z=              0.0224  Tot=              4.1393
 Quadrupole moment (field-independent basis, Debye-Ang):
   XX=            -20.9295   YY=            -17.7292   ZZ=            -17.8418
   XY=             -0.0545   XZ=             -0.0129   YZ=             -0.0060

 Normal termination of Gaussian 09 at Wed Aug 26 15:42:59 2020.
