 Gaussian 09, Revision D.01,
 Gaussian 09:  ES64L-G09RevD.01 24-Apr-2013

 --------------------
 #p B2PLYPD3/Def2QZVP
 --------------------

 ------------
 cyanomethane
 ------------
 Symbolic Z-matrix:
 Charge =  0 Multiplicity = 1

                         Standard orientation:
 ---------------------------------------------------------------------
 Center     Atomic      Atomic             Coordinates (Angstroms)
 Number     Number       Type             X           Y           Z
 ---------------------------------------------------------------------
      1          6           0        1.137436   -0.037025    0.008625
      2          6           0       -0.255965   -0.006282   -0.064103
      3          7           0       -1.431556    0.010528    0.031577
      4          1           0        1.614941    1.061578   -0.143275
      5          1           0        1.562977   -0.600060   -0.676102
      6          1           0        1.554146   -0.275375    0.931209
 ---------------------------------------------------------------------

 SCF Done:  E(RB2PLYPD3) =  -132.510500637     A.U. after   11 cycles
 E2(B2PLYPD3) =    -0.1830020443D+00 E(B2PLYPD3) =    -0.13269350268141D+03

 The electronic state is 1-A.
 Alpha  occ. eigenvalues --  -14.85061 -10.66911 -10.66020  -1.03495  -0.90799
 Alpha  occ. eigenvalues --   -0.62885  -0.56287  -0.51488  -0.45195  -0.38654
 Alpha  occ. eigenvalues --   -0.37876
 Alpha virt. eigenvalues --    0.03321   0.06064   0.07867   0.09901   0.11143
 Alpha virt. eigenvalues --    0.12015   0.15907   0.16381   0.17193   0.20089
 Alpha virt. eigenvalues --    0.20394   0.26568   0.31448   0.34281   0.35843

 Mulliken charges:
               1
     1  C   -0.057104
     2  C    0.013065
     3  N   -0.216619
     4  H    0.075074
     5  H    0.095069
     6  H    0.090516
 Sum of Mulliken charges =   0.00000

 Dipole moment (field-independent basis, Debye):
    X=              4.1475    Y=             -0.0459    Z=             -0.0105  Tot=              4.1478
 Quadrupole moment (field-independent basis, Debye-Ang):
   XX=            -20.5853   YY=            -17.8983   ZZ=            -17.8898
   XY=              0.0518   XZ=              0.2104   YZ=              0.1014

 Normal termination of Gaussian 09 at Wed Aug 26 22:13:18 2020.
