 Gaussian 09, Revision D.01,
 Gaussian 09:  ES64L-G09RevD.01 24-Apr-2013

 --------------------
 #p B2PLYPD3/Def2QZVP
 --------------------

 ------------
 cyanomethane
 ------------
 Symbolic Z-matrix:
 Charge =  0 Multiplicity = 1

                         Standard orientation:
 ---------------------------------------------------------------------
 Center     Atomic      Atomic             Coordinates (Angstroms)
 Number     Number       Type             X           Y           Z
 ---------------------------------------------------------------------
      1          6           0        1.175430    0.003561    0.005063
      2          6           0       -0.271791   -0.009508   -0.030611
      3          7           0       -1.429216    0.000199    0.011500
      4          1           0        1.469524    1.044444    0.010053
      5          1           0        1.604445   -0.516221   -0.835518
      6          1           0        1.508711   -0.493940    0.898252
 ---------------------------------------------------------------------

 SCF Done:  E(RB2PLYPD3) =  -132.534745523     A.U. after   12 cycles
 E2(B2PLYPD3) =    -0.1806325429D+00 E(B2PLYPD3) =    -0.13271537806539D+03

 The electronic state is 1-A.
 Alpha  occ. eigenvalues --  -14.84193 -10.66711 -10.66227  -1.03953  -0.89724
 Alpha  occ. eigenvalues --   -0.59741  -0.54736  -0.54082  -0.44730  -0.38921
 Alpha  occ. eigenvalues --   -0.38878
 Alpha virt. eigenvalues --    0.03810   0.07911   0.08107   0.10185   0.11379
 Alpha virt. eigenvalues --    0.11490   0.15392   0.16075   0.16310   0.20101
 Alpha virt. eigenvalues --    0.20147   0.25552   0.32855   0.34643   0.34841

 Mulliken charges:
               1
     1  C   -0.084971
     2  C   -0.001347
     3  N   -0.209450
     4  H    0.101346
     5  H    0.095805
     6  H    0.098617
 Sum of Mulliken charges =   0.00000

 Dipole moment (field-independent basis, Debye):
    X=              4.1265    Y=             -0.0070    Z=             -0.0074  Tot=              4.1265
 Quadrupole moment (field-independent basis, Debye-Ang):
   XX=            -21.0771   YY=            -17.6326   ZZ=            -17.7861
   XY=             -0.0978   XZ=              0.0127   YZ=             -0.0070

 Normal termination of Gaussian 09 at Wed Aug 26 12:17:16 2020.
