 Gaussian 09, Revision D.01,
 Gaussian 09:  ES64L-G09RevD.01 24-Apr-2013

 --------------------
 #p B2PLYPD3/Def2QZVP
 --------------------

 ------------
 cyanomethane
 ------------
 Symbolic Z-matrix:
 Charge =  0 Multiplicity = 1

                         Standard orientation:
 ---------------------------------------------------------------------
 Center     Atomic      Atomic             Coordinates (Angstroms)
 Number     Number       Type             X           Y           Z
 ---------------------------------------------------------------------
      1          6           0        1.178094   -0.000620    0.006783
      2          6           0       -0.284908   -0.024324   -0.009581
      3          7           0       -1.435198    0.013159    0.005563
      4          1           0        1.564722    1.036161   -0.066677
      5          1           0        1.545971   -0.540931   -0.839630
      6          1           0        1.576572   -0.437682    0.884158
 ---------------------------------------------------------------------

 SCF Done:  E(RB2PLYPD3) =  -132.534819766     A.U. after   11 cycles
 E2(B2PLYPD3) =    -0.1800622829D+00 E(B2PLYPD3) =    -0.13271488204930D+03

 The electronic state is 1-A.
 Alpha  occ. eigenvalues --  -14.84158 -10.66818 -10.66229  -1.04283  -0.89310
 Alpha  occ. eigenvalues --   -0.60061  -0.54369  -0.53461  -0.44829  -0.39296
 Alpha  occ. eigenvalues --   -0.39166
 Alpha virt. eigenvalues --    0.03765   0.07840   0.08326   0.10189   0.11376
 Alpha virt. eigenvalues --    0.11536   0.15438   0.16209   0.16818   0.20039
 Alpha virt. eigenvalues --    0.20093   0.25295   0.32810   0.34459   0.35181

 Mulliken charges:
               1
     1  C   -0.075630
     2  C   -0.001182
     3  N   -0.204016
     4  H    0.092426
     5  H    0.093363
     6  H    0.095039
 Sum of Mulliken charges =   0.00000

 Dipole moment (field-independent basis, Debye):
    X=              4.1313    Y=             -0.0283    Z=             -0.0121  Tot=              4.1314
 Quadrupole moment (field-independent basis, Debye-Ang):
   XX=            -20.8611   YY=            -17.7549   ZZ=            -17.7744
   XY=              0.0600   XZ=              0.0419   YZ=             -0.0086

 Normal termination of Gaussian 09 at Wed Aug 26 23:57:04 2020.
