 Gaussian 09, Revision D.01,
 Gaussian 09:  ES64L-G09RevD.01 24-Apr-2013

 --------------------
 #p B2PLYPD3/Def2QZVP
 --------------------

 ------------
 cyanomethane
 ------------
 Symbolic Z-matrix:
 Charge =  0 Multiplicity = 1

                         Standard orientation:
 ---------------------------------------------------------------------
 Center     Atomic      Atomic             Coordinates (Angstroms)
 Number     Number       Type             X           Y           Z
 ---------------------------------------------------------------------
      1          6           0        1.174094   -0.001386    0.003740
      2          6           0       -0.276754    0.004719   -0.025462
      3          7           0       -1.440256   -0.002833    0.014113
      4          1           0        1.559162    1.043390    0.015917
      5          1           0        1.555475   -0.517562   -0.872530
      6          1           0        1.583117   -0.525998    0.888147
 ---------------------------------------------------------------------

 SCF Done:  E(RB2PLYPD3) =  -132.533542340     A.U. after   12 cycles
 E2(B2PLYPD3) =    -0.1815221520D+00 E(B2PLYPD3) =    -0.13271506449165D+03

 The electronic state is 1-A.
 Alpha  occ. eigenvalues --  -14.84534 -10.67465 -10.66598  -1.03788  -0.89037
 Alpha  occ. eigenvalues --   -0.60025  -0.53827  -0.53203  -0.44899  -0.38831
 Alpha  occ. eigenvalues --   -0.38784
 Alpha virt. eigenvalues --    0.03656   0.07263   0.07707   0.10120   0.11344
 Alpha virt. eigenvalues --    0.11507   0.15429   0.16133   0.16658   0.20095
 Alpha virt. eigenvalues --    0.20161   0.25499   0.32590   0.34329   0.34501

 Mulliken charges:
               1
     1  C   -0.082523
     2  C    0.001998
     3  N   -0.209753
     4  H    0.096975
     5  H    0.097078
     6  H    0.096224
 Sum of Mulliken charges =   0.00000

 Dipole moment (field-independent basis, Debye):
    X=              4.1381    Y=             -0.0072    Z=             -0.0210  Tot=              4.1381
 Quadrupole moment (field-independent basis, Debye-Ang):
   XX=            -20.9563   YY=            -17.7703   ZZ=            -17.8713
   XY=             -0.0513   XZ=              0.0933   YZ=              0.0170

 Normal termination of Gaussian 09 at Wed Aug 26 14:31:23 2020.
