 Gaussian 09, Revision D.01,
 Gaussian 09:  ES64L-G09RevD.01 24-Apr-2013

 --------------------
 #p B2PLYPD3/Def2QZVP
 --------------------

 ------------
 cyanomethane
 ------------
 Symbolic Z-matrix:
 Charge =  0 Multiplicity = 1

                         Standard orientation:
 ---------------------------------------------------------------------
 Center     Atomic      Atomic             Coordinates (Angstroms)
 Number     Number       Type             X           Y           Z
 ---------------------------------------------------------------------
      1          6           0        1.175803   -0.006709    0.004956
      2          6           0       -0.289429   -0.018912    0.013713
      3          7           0       -1.438741    0.017723   -0.007937
      4          1           0        1.671255    0.973251   -0.403771
      5          1           0        1.511124   -0.814179   -0.643508
      6          1           0        1.570563   -0.129409    0.990818
 ---------------------------------------------------------------------

 SCF Done:  E(RB2PLYPD3) =  -132.530223337     A.U. after   12 cycles
 E2(B2PLYPD3) =    -0.1804945571D+00 E(B2PLYPD3) =    -0.13271071789436D+03

 The electronic state is 1-A.
 Alpha  occ. eigenvalues --  -14.84226 -10.67746 -10.66323  -1.04373  -0.88623
 Alpha  occ. eigenvalues --   -0.59861  -0.54333  -0.51855  -0.44899  -0.39355
 Alpha  occ. eigenvalues --   -0.39075
 Alpha virt. eigenvalues --    0.03492   0.07091   0.08271   0.10182   0.11356
 Alpha virt. eigenvalues --    0.11723   0.15364   0.16163   0.17078   0.19986
 Alpha virt. eigenvalues --    0.20144   0.25253   0.32227   0.33825   0.34951

 Mulliken charges:
               1
     1  C   -0.084048
     2  C    0.000666
     3  N   -0.201918
     4  H    0.089057
     5  H    0.098203
     6  H    0.098040
 Sum of Mulliken charges =   0.00000

 Dipole moment (field-independent basis, Debye):
    X=              4.1201    Y=             -0.0475    Z=              0.0229  Tot=              4.1204
 Quadrupole moment (field-independent basis, Debye-Ang):
   XX=            -20.8598   YY=            -17.8557   ZZ=            -17.8097
   XY=              0.1795   XZ=             -0.0236   YZ=              0.0608

 Normal termination of Gaussian 09 at Wed Aug 26 16:12:14 2020.
