 Gaussian 09, Revision D.01,
 Gaussian 09:  ES64L-G09RevD.01 24-Apr-2013

 --------------------
 #p B2PLYPD3/Def2QZVP
 --------------------

 ------------
 cyanomethane
 ------------
 Symbolic Z-matrix:
 Charge =  0 Multiplicity = 1

                         Standard orientation:
 ---------------------------------------------------------------------
 Center     Atomic      Atomic             Coordinates (Angstroms)
 Number     Number       Type             X           Y           Z
 ---------------------------------------------------------------------
      1          6           0       -1.187680    0.014783    0.008850
      2          6           0        0.284732    0.007261   -0.022676
      3          7           0        1.433167   -0.003774    0.010905
      4          1           0       -1.531032   -0.300693    0.969061
      5          1           0       -1.524594   -0.753863   -0.707730
      6          1           0       -1.558857    0.948709   -0.254715
 ---------------------------------------------------------------------

 SCF Done:  E(RB2PLYPD3) =  -132.533881578     A.U. after   12 cycles
 E2(B2PLYPD3) =    -0.1797596475D+00 E(B2PLYPD3) =    -0.13271364122581D+03

 The electronic state is 1-A.
 Alpha  occ. eigenvalues --  -14.83992 -10.66681 -10.66081  -1.04275  -0.89447
 Alpha  occ. eigenvalues --   -0.59478  -0.55377  -0.53404  -0.44695  -0.39422
 Alpha  occ. eigenvalues --   -0.39107
 Alpha virt. eigenvalues --    0.03828   0.08165   0.08574   0.10213   0.11198
 Alpha virt. eigenvalues --    0.11596   0.15337   0.15933   0.16680   0.20016
 Alpha virt. eigenvalues --    0.20117   0.25084   0.32723   0.34214   0.35599

 Mulliken charges:
               1
     1  C   -0.082533
     2  C   -0.004035
     3  N   -0.204002
     4  H    0.097272
     5  H    0.092595
     6  H    0.100703
 Sum of Mulliken charges =   0.00000

 Dipole moment (field-independent basis, Debye):
    X=             -4.1270    Y=             -0.0104    Z=             -0.0119  Tot=              4.1271
 Quadrupole moment (field-independent basis, Debye-Ang):
   XX=            -21.0141   YY=            -17.6337   ZZ=            -17.7691
   XY=              0.0337   XZ=             -0.0671   YZ=             -0.0549

 Normal termination of Gaussian 09 at Wed Aug 26 13:29:27 2020.
