 Gaussian 09, Revision D.01,
 Gaussian 09:  ES64L-G09RevD.01 24-Apr-2013

 --------------------
 #p B2PLYPD3/Def2QZVP
 --------------------

 ------------
 cyanomethane
 ------------
 Symbolic Z-matrix:
 Charge =  0 Multiplicity = 1

                         Standard orientation:
 ---------------------------------------------------------------------
 Center     Atomic      Atomic             Coordinates (Angstroms)
 Number     Number       Type             X           Y           Z
 ---------------------------------------------------------------------
      1          6           0        1.178486   -0.000759    0.000445
      2          6           0       -0.278452    0.030025   -0.017489
      3          7           0       -1.423097   -0.008725    0.009057
      4          1           0        1.445902   -0.885356   -0.568647
      5          1           0        1.511241   -0.129830    1.015930
      6          1           0        1.604329    0.900661   -0.408424
 ---------------------------------------------------------------------

 SCF Done:  E(RB2PLYPD3) =  -132.535395167     A.U. after   12 cycles
 E2(B2PLYPD3) =    -0.1795716758D+00 E(B2PLYPD3) =    -0.13271496684240D+03

 The electronic state is 1-A.
 Alpha  occ. eigenvalues --  -14.83803 -10.66818 -10.65848  -1.04409  -0.89510
 Alpha  occ. eigenvalues --   -0.59290  -0.54675  -0.54084  -0.44634  -0.39299
 Alpha  occ. eigenvalues --   -0.39134
 Alpha virt. eigenvalues --    0.03813   0.08213   0.08385   0.10226   0.11425
 Alpha virt. eigenvalues --    0.11670   0.15363   0.15936   0.16456   0.20015
 Alpha virt. eigenvalues --    0.20122   0.25380   0.32894   0.34399   0.35091

 Mulliken charges:
               1
     1  C   -0.090931
     2  C   -0.004629
     3  N   -0.203083
     4  H    0.101091
     5  H    0.098307
     6  H    0.099245
 Sum of Mulliken charges =   0.00000

 Dipole moment (field-independent basis, Debye):
    X=              4.1042    Y=             -0.0017    Z=              0.0007  Tot=              4.1042
 Quadrupole moment (field-independent basis, Debye-Ang):
   XX=            -21.1315   YY=            -17.5881   ZZ=            -17.7303
   XY=              0.0414   XZ=              0.0867   YZ=             -0.0005

 Normal termination of Gaussian 09 at Wed Aug 26 10:56:16 2020.
