 Gaussian 09, Revision D.01,
 Gaussian 09:  ES64L-G09RevD.01 24-Apr-2013

 --------------------
 #p B2PLYPD3/Def2QZVP
 --------------------

 ------------
 cyanomethane
 ------------
 Symbolic Z-matrix:
 Charge =  0 Multiplicity = 1

                         Standard orientation:
 ---------------------------------------------------------------------
 Center     Atomic      Atomic             Coordinates (Angstroms)
 Number     Number       Type             X           Y           Z
 ---------------------------------------------------------------------
      1          6           0       -1.171042   -0.004732   -0.009200
      2          6           0        0.276480   -0.017136   -0.012056
      3          7           0        1.441269    0.012391    0.003050
      4          1           0       -1.576337   -0.852092   -0.562613
      5          1           0       -1.632700    0.973080   -0.409670
      6          1           0       -1.512476   -0.076518    1.078464
 ---------------------------------------------------------------------

 SCF Done:  E(RB2PLYPD3) =  -132.529204024     A.U. after   12 cycles
 E2(B2PLYPD3) =    -0.1820243064D+00 E(B2PLYPD3) =    -0.13271122832998D+03

 The electronic state is 1-A.
 Alpha  occ. eigenvalues --  -14.84583 -10.68218 -10.66665  -1.03767  -0.88587
 Alpha  occ. eigenvalues --   -0.59816  -0.53747  -0.52163  -0.44925  -0.38843
 Alpha  occ. eigenvalues --   -0.38549
 Alpha virt. eigenvalues --    0.03474   0.06738   0.07497   0.10115   0.11315
 Alpha virt. eigenvalues --    0.11697   0.15373   0.15944   0.16853   0.20080
 Alpha virt. eigenvalues --    0.20194   0.25516   0.32284   0.33327   0.34518

 Mulliken charges:
               1
     1  C   -0.091906
     2  C    0.004135
     3  N   -0.209430
     4  H    0.102973
     5  H    0.097075
     6  H    0.097152
 Sum of Mulliken charges =   0.00000

 Dipole moment (field-independent basis, Debye):
    X=             -4.1303    Y=             -0.0231    Z=              0.0128  Tot=              4.1304
 Quadrupole moment (field-independent basis, Debye-Ang):
   XX=            -21.0209   YY=            -17.8152   ZZ=            -17.8973
   XY=             -0.1060   XZ=              0.0144   YZ=              0.0544

 Normal termination of Gaussian 09 at Wed Aug 26 14:51:12 2020.
