 Gaussian 09, Revision D.01,
 Gaussian 09:  ES64L-G09RevD.01 24-Apr-2013

 --------------------
 #p B2PLYPD3/Def2QZVP
 --------------------

 ------------
 cyanomethane
 ------------
 Symbolic Z-matrix:
 Charge =  0 Multiplicity = 1

                         Standard orientation:
 ---------------------------------------------------------------------
 Center     Atomic      Atomic             Coordinates (Angstroms)
 Number     Number       Type             X           Y           Z
 ---------------------------------------------------------------------
      1          6           0       -1.194561    0.012895   -0.033160
      2          6           0        0.261677    0.029170    0.064410
      3          7           0        1.454657   -0.016065   -0.031205
      4          1           0       -1.531916    1.026890   -0.072720
      5          1           0       -1.512478   -0.515725    0.959917
      6          1           0       -1.540903   -0.651104   -0.856257
 ---------------------------------------------------------------------

 SCF Done:  E(RB2PLYPD3) =  -132.520174406     A.U. after   13 cycles
 E2(B2PLYPD3) =    -0.1849718899D+00 E(B2PLYPD3) =    -0.13270514629598D+03

 The electronic state is 1-A.
 Alpha  occ. eigenvalues --  -14.85323 -10.68198 -10.67455  -1.02396  -0.88879
 Alpha  occ. eigenvalues --   -0.59089  -0.55329  -0.52174  -0.44822  -0.38155
 Alpha  occ. eigenvalues --   -0.37643
 Alpha virt. eigenvalues --    0.03342   0.06330   0.07387   0.09910   0.10694
 Alpha virt. eigenvalues --    0.11321   0.14965   0.15228   0.16603   0.20220
 Alpha virt. eigenvalues --    0.20317   0.25564   0.31513   0.33007   0.34998

 Mulliken charges:
               1
     1  C   -0.103868
     2  C    0.008874
     3  N   -0.224534
     4  H    0.112889
     5  H    0.096901
     6  H    0.109738
 Sum of Mulliken charges =   0.00000

 Dipole moment (field-independent basis, Debye):
    X=             -4.1463    Y=             -0.0026    Z=              0.0325  Tot=              4.1464
 Quadrupole moment (field-independent basis, Debye-Ang):
   XX=            -21.3932   YY=            -17.7013   ZZ=            -17.9961
   XY=              0.1178   XZ=              0.1604   YZ=              0.0395

 Normal termination of Gaussian 09 at Wed Aug 26 23:47:54 2020.
