 Gaussian 09, Revision D.01,
 Gaussian 09:  ES64L-G09RevD.01 24-Apr-2013

 --------------------
 #p B2PLYPD3/Def2QZVP
 --------------------

 ------------
 cyanomethane
 ------------
 Symbolic Z-matrix:
 Charge =  0 Multiplicity = 1

                         Standard orientation:
 ---------------------------------------------------------------------
 Center     Atomic      Atomic             Coordinates (Angstroms)
 Number     Number       Type             X           Y           Z
 ---------------------------------------------------------------------
      1          6           0        1.162316   -0.003297    0.004181
      2          6           0       -0.273399   -0.010016   -0.009010
      3          7           0       -1.429941    0.006029   -0.001600
      4          1           0        1.582087    1.038592   -0.206065
      5          1           0        1.615880   -0.702437   -0.710772
      6          1           0        1.478118   -0.298476    0.957015
 ---------------------------------------------------------------------

 SCF Done:  E(RB2PLYPD3) =  -132.531771224     A.U. after   12 cycles
 E2(B2PLYPD3) =    -0.1807901846D+00 E(B2PLYPD3) =    -0.13271256140878D+03

 The electronic state is 1-A.
 Alpha  occ. eigenvalues --  -14.84278 -10.67051 -10.66283  -1.04121  -0.89532
 Alpha  occ. eigenvalues --   -0.60374  -0.54313  -0.53097  -0.44874  -0.38960
 Alpha  occ. eigenvalues --   -0.38874
 Alpha virt. eigenvalues --    0.03686   0.07210   0.08050   0.10147   0.11551
 Alpha virt. eigenvalues --    0.11620   0.15559   0.16060   0.16879   0.20114
 Alpha virt. eigenvalues --    0.20126   0.25744   0.32602   0.34161   0.34956

 Mulliken charges:
               1
     1  C   -0.080336
     2  C    0.001505
     3  N   -0.207182
     4  H    0.093552
     5  H    0.093662
     6  H    0.098800
 Sum of Mulliken charges =   0.00000

 Dipole moment (field-independent basis, Debye):
    X=              4.1263    Y=             -0.0312    Z=              0.0320  Tot=              4.1266
 Quadrupole moment (field-independent basis, Debye-Ang):
   XX=            -20.9099   YY=            -17.7041   ZZ=            -17.8547
   XY=             -0.0105   XZ=             -0.0426   YZ=             -0.0146

 Normal termination of Gaussian 09 at Wed Aug 26 11:33:02 2020.
