 Gaussian 09, Revision D.01,
 Gaussian 09:  ES64L-G09RevD.01 24-Apr-2013

 --------------------
 #p B2PLYPD3/Def2QZVP
 --------------------

 ------------
 cyanomethane
 ------------
 Symbolic Z-matrix:
 Charge =  0 Multiplicity = 1

                         Standard orientation:
 ---------------------------------------------------------------------
 Center     Atomic      Atomic             Coordinates (Angstroms)
 Number     Number       Type             X           Y           Z
 ---------------------------------------------------------------------
      1          6           0        1.173430    0.004407    0.000353
      2          6           0       -0.285382   -0.037393   -0.007783
      3          7           0       -1.414271    0.024234    0.005406
      4          1           0        1.544527    0.027024    0.946730
      5          1           0        1.571241    0.877808   -0.485768
      6          1           0        1.455841   -0.876555   -0.454225
 ---------------------------------------------------------------------

 SCF Done:  E(RB2PLYPD3) =  -132.529069444     A.U. after   11 cycles
 E2(B2PLYPD3) =    -0.1779650178D+00 E(B2PLYPD3) =    -0.13270703446129D+03

 The electronic state is 1-A.
 Alpha  occ. eigenvalues --  -14.83430 -10.65509 -10.65404  -1.05049  -0.90345
 Alpha  occ. eigenvalues --   -0.60143  -0.55588  -0.54197  -0.44642  -0.39741
 Alpha  occ. eigenvalues --   -0.39697
 Alpha virt. eigenvalues --    0.03950   0.08553   0.09336   0.10221   0.11505
 Alpha virt. eigenvalues --    0.11718   0.15496   0.15989   0.17123   0.19929
 Alpha virt. eigenvalues --    0.20090   0.25455   0.33394   0.35224   0.35533

 Mulliken charges:
               1
     1  C   -0.073182
     2  C   -0.006762
     3  N   -0.194907
     4  H    0.088900
     5  H    0.091046
     6  H    0.094905
 Sum of Mulliken charges =   0.00000

 Dipole moment (field-independent basis, Debye):
    X=              4.0920    Y=             -0.0450    Z=              0.0212  Tot=              4.0923
 Quadrupole moment (field-independent basis, Debye-Ang):
   XX=            -20.8705   YY=            -17.4605   ZZ=            -17.7363
   XY=              0.2164   XZ=              0.1271   YZ=              0.0347

 Normal termination of Gaussian 09 at Wed Aug 26 19:11:42 2020.
