 Gaussian 09, Revision D.01,
 Gaussian 09:  ES64L-G09RevD.01 24-Apr-2013

 --------------------
 #p B2PLYPD3/Def2QZVP
 --------------------

 ------------
 cyanomethane
 ------------
 Symbolic Z-matrix:
 Charge =  0 Multiplicity = 1

                         Standard orientation:
 ---------------------------------------------------------------------
 Center     Atomic      Atomic             Coordinates (Angstroms)
 Number     Number       Type             X           Y           Z
 ---------------------------------------------------------------------
      1          6           0       -1.176621    0.005868    0.004886
      2          6           0        0.283964    0.035142    0.000677
      3          7           0        1.420638   -0.014317    0.002366
      4          1           0       -1.557757   -0.271708    1.022252
      5          1           0       -1.455829   -0.848737   -0.725394
      6          1           0       -1.574937    0.974604   -0.346800
 ---------------------------------------------------------------------

 SCF Done:  E(RB2PLYPD3) =  -132.531287704     A.U. after   12 cycles
 E2(B2PLYPD3) =    -0.1795801937D+00 E(B2PLYPD3) =    -0.13271086789808D+03

 The electronic state is 1-A.
 Alpha  occ. eigenvalues --  -14.83596 -10.68284 -10.65660  -1.04714  -0.88367
 Alpha  occ. eigenvalues --   -0.58551  -0.54017  -0.52601  -0.44605  -0.39460
 Alpha  occ. eigenvalues --   -0.39116
 Alpha virt. eigenvalues --    0.03506   0.07645   0.08067   0.10207   0.11555
 Alpha virt. eigenvalues --    0.11981   0.15233   0.15844   0.16488   0.19956
 Alpha virt. eigenvalues --    0.20086   0.25290   0.32496   0.33120   0.34632

 Mulliken charges:
               1
     1  C   -0.111637
     2  C   -0.003263
     3  N   -0.197100
     4  H    0.104087
     5  H    0.101789
     6  H    0.106124
 Sum of Mulliken charges =   0.00000

 Dipole moment (field-independent basis, Debye):
    X=             -4.0672    Y=              0.0102    Z=             -0.0025  Tot=              4.0672
 Quadrupole moment (field-independent basis, Debye-Ang):
   XX=            -21.3253   YY=            -17.6203   ZZ=            -17.7208
   XY=              0.0289   XZ=             -0.0717   YZ=             -0.0529

 Normal termination of Gaussian 09 at Wed Aug 26 11:40:47 2020.
