 Gaussian 09, Revision D.01,
 Gaussian 09:  ES64L-G09RevD.01 24-Apr-2013

 --------------------
 #p B2PLYPD3/Def2QZVP
 --------------------

 ------------
 cyanomethane
 ------------
 Symbolic Z-matrix:
 Charge =  0 Multiplicity = 1

                         Standard orientation:
 ---------------------------------------------------------------------
 Center     Atomic      Atomic             Coordinates (Angstroms)
 Number     Number       Type             X           Y           Z
 ---------------------------------------------------------------------
      1          6           0        1.184179   -0.007840    0.004160
      2          6           0       -0.276937    0.019266   -0.006352
      3          7           0       -1.438192   -0.007702    0.003308
      4          1           0        1.560231    0.999472   -0.264267
      5          1           0        1.522572   -0.734888   -0.737902
      6          1           0        1.541083   -0.279226    0.992169
 ---------------------------------------------------------------------

 SCF Done:  E(RB2PLYPD3) =  -132.534577537     A.U. after   12 cycles
 E2(B2PLYPD3) =    -0.1811403533D+00 E(B2PLYPD3) =    -0.13271571789078D+03

 The electronic state is 1-A.
 Alpha  occ. eigenvalues --  -14.84347 -10.67397 -10.66432  -1.03793  -0.89089
 Alpha  occ. eigenvalues --   -0.59318  -0.54199  -0.53711  -0.44753  -0.38901
 Alpha  occ. eigenvalues --   -0.38827
 Alpha virt. eigenvalues --    0.03714   0.07761   0.07834   0.10165   0.11344
 Alpha virt. eigenvalues --    0.11375   0.15302   0.16006   0.16308   0.20117
 Alpha virt. eigenvalues --    0.20127   0.25271   0.32515   0.34307   0.34677

 Mulliken charges:
               1
     1  C   -0.091026
     2  C   -0.000872
     3  N   -0.209710
     4  H    0.098291
     5  H    0.101510
     6  H    0.101806
 Sum of Mulliken charges =   0.00000

 Dipole moment (field-independent basis, Debye):
    X=              4.1317    Y=              0.0069    Z=             -0.0040  Tot=              4.1317
 Quadrupole moment (field-independent basis, Debye-Ang):
   XX=            -21.1307   YY=            -17.7604   ZZ=            -17.7441
   XY=             -0.0201   XZ=              0.0259   YZ=              0.0066

 Normal termination of Gaussian 09 at Thu Aug 27 00:14:43 2020.
