 Gaussian 09, Revision D.01,
 Gaussian 09:  ES64L-G09RevD.01 24-Apr-2013

 --------------------
 #p B2PLYPD3/Def2QZVP
 --------------------

 ------------
 cyanomethane
 ------------
 Symbolic Z-matrix:
 Charge =  0 Multiplicity = 1

                         Standard orientation:
 ---------------------------------------------------------------------
 Center     Atomic      Atomic             Coordinates (Angstroms)
 Number     Number       Type             X           Y           Z
 ---------------------------------------------------------------------
      1          6           0        1.185689   -0.002981   -0.004673
      2          6           0       -0.279608   -0.004279    0.008532
      3          7           0       -1.436607    0.006726   -0.003991
      4          1           0        1.528920   -0.199264    0.993015
      5          1           0        1.593732    0.965349   -0.324135
      6          1           0        1.497108   -0.769610   -0.664102
 ---------------------------------------------------------------------

 SCF Done:  E(RB2PLYPD3) =  -132.534580679     A.U. after   12 cycles
 E2(B2PLYPD3) =    -0.1805187613D+00 E(B2PLYPD3) =    -0.13271509944049D+03

 The electronic state is 1-A.
 Alpha  occ. eigenvalues --  -14.84223 -10.66837 -10.66308  -1.03968  -0.89451
 Alpha  occ. eigenvalues --   -0.59486  -0.54872  -0.53770  -0.44735  -0.39073
 Alpha  occ. eigenvalues --   -0.38996
 Alpha virt. eigenvalues --    0.03803   0.07847   0.08388   0.10203   0.11290
 Alpha virt. eigenvalues --    0.11410   0.15334   0.15934   0.16547   0.20093
 Alpha virt. eigenvalues --    0.20127   0.25183   0.32662   0.34627   0.35031

 Mulliken charges:
               1
     1  C   -0.083827
     2  C   -0.002616
     3  N   -0.207994
     4  H    0.097455
     5  H    0.096095
     6  H    0.100888
 Sum of Mulliken charges =   0.00000

 Dipole moment (field-independent basis, Debye):
    X=              4.1371    Y=             -0.0172    Z=              0.0119  Tot=              4.1372
 Quadrupole moment (field-independent basis, Debye-Ang):
   XX=            -21.0337   YY=            -17.7206   ZZ=            -17.7411
   XY=              0.0941   XZ=             -0.0053   YZ=              0.0326

 Normal termination of Gaussian 09 at Wed Aug 26 18:57:27 2020.
