 Gaussian 09, Revision D.01,
 Gaussian 09:  ES64L-G09RevD.01 24-Apr-2013

 --------------------
 #p B2PLYPD3/Def2QZVP
 --------------------

 ------------
 cyanomethane
 ------------
 Symbolic Z-matrix:
 Charge =  0 Multiplicity = 1

                         Standard orientation:
 ---------------------------------------------------------------------
 Center     Atomic      Atomic             Coordinates (Angstroms)
 Number     Number       Type             X           Y           Z
 ---------------------------------------------------------------------
      1          6           0       -1.184362    0.009685    0.002529
      2          6           0        0.279043   -0.005368    0.013176
      3          7           0        1.437856    0.002753   -0.008363
      4          1           0       -1.525044   -0.330687    0.963829
      5          1           0       -1.547885   -0.715268   -0.768895
      6          1           0       -1.560145    1.000783   -0.230621
 ---------------------------------------------------------------------

 SCF Done:  E(RB2PLYPD3) =  -132.534339562     A.U. after   12 cycles
 E2(B2PLYPD3) =    -0.1809032241D+00 E(B2PLYPD3) =    -0.13271524278643D+03

 The electronic state is 1-A.
 Alpha  occ. eigenvalues --  -14.84289 -10.67342 -10.66378  -1.03897  -0.89094
 Alpha  occ. eigenvalues --   -0.59366  -0.54570  -0.53319  -0.44754  -0.39035
 Alpha  occ. eigenvalues --   -0.38852
 Alpha virt. eigenvalues --    0.03708   0.07654   0.08094   0.10174   0.11263
 Alpha virt. eigenvalues --    0.11490   0.15309   0.15927   0.16498   0.20081
 Alpha virt. eigenvalues --    0.20141   0.25221   0.32544   0.34083   0.34965

 Mulliken charges:
               1
     1  C   -0.089434
     2  C   -0.001299
     3  N   -0.208400
     4  H    0.100636
     5  H    0.096508
     6  H    0.101988
 Sum of Mulliken charges =   0.00000

 Dipole moment (field-independent basis, Debye):
    X=             -4.1319    Y=             -0.0125    Z=              0.0160  Tot=              4.1319
 Quadrupole moment (field-independent basis, Debye-Ang):
   XX=            -21.0959   YY=            -17.7135   ZZ=            -17.7902
   XY=             -0.0070   XZ=              0.0584   YZ=             -0.0431

 Normal termination of Gaussian 09 at Wed Aug 26 15:31:45 2020.
