 Gaussian 09, Revision D.01,
 Gaussian 09:  ES64L-G09RevD.01 24-Apr-2013

 --------------------
 #p B2PLYPD3/Def2QZVP
 --------------------

 ------------
 cyanomethane
 ------------
 Symbolic Z-matrix:
 Charge =  0 Multiplicity = 1

                         Standard orientation:
 ---------------------------------------------------------------------
 Center     Atomic      Atomic             Coordinates (Angstroms)
 Number     Number       Type             X           Y           Z
 ---------------------------------------------------------------------
      1          6           0        1.178995   -0.004812   -0.007469
      2          6           0       -0.274502    0.010112    0.017167
      3          7           0       -1.441390   -0.003035   -0.006502
      4          1           0        1.566332   -0.401672    0.918028
      5          1           0        1.575346    1.000784   -0.124231
      6          1           0        1.521096   -0.609663   -0.806476
 ---------------------------------------------------------------------

 SCF Done:  E(RB2PLYPD3) =  -132.534008154     A.U. after   11 cycles
 E2(B2PLYPD3) =    -0.1813966270D+00 E(B2PLYPD3) =    -0.13271540478071D+03

 The electronic state is 1-A.
 Alpha  occ. eigenvalues --  -14.84573 -10.66701 -10.66632  -1.03642  -0.89632
 Alpha  occ. eigenvalues --   -0.60200  -0.54564  -0.53860  -0.44865  -0.38832
 Alpha  occ. eigenvalues --   -0.38761
 Alpha virt. eigenvalues --    0.03814   0.07707   0.07856   0.10160   0.11299
 Alpha virt. eigenvalues --    0.11331   0.15439   0.16259   0.16432   0.20143
 Alpha virt. eigenvalues --    0.20154   0.25425   0.32676   0.34669   0.35060

 Mulliken charges:
               1
     1  C   -0.074305
     2  C    0.000916
     3  N   -0.212265
     4  H    0.093787
     5  H    0.093960
     6  H    0.097907
 Sum of Mulliken charges =   0.00000

 Dipole moment (field-independent basis, Debye):
    X=              4.1559    Y=             -0.0018    Z=              0.0086  Tot=              4.1559
 Quadrupole moment (field-independent basis, Debye-Ang):
   XX=            -20.9105   YY=            -17.7844   ZZ=            -17.7990
   XY=              0.0026   XZ=             -0.0022   YZ=              0.0232

 Normal termination of Gaussian 09 at Thu Aug 27 00:04:23 2020.
