 Gaussian 09, Revision D.01,
 Gaussian 09:  ES64L-G09RevD.01 24-Apr-2013

 --------------------
 #p B2PLYPD3/Def2QZVP
 --------------------

 ------------
 cyanomethane
 ------------
 Symbolic Z-matrix:
 Charge =  0 Multiplicity = 1

                         Standard orientation:
 ---------------------------------------------------------------------
 Center     Atomic      Atomic             Coordinates (Angstroms)
 Number     Number       Type             X           Y           Z
 ---------------------------------------------------------------------
      1          6           0        1.160818    0.001848   -0.010271
      2          6           0       -0.272142   -0.027049   -0.023298
      3          7           0       -1.433979    0.021214    0.014352
      4          1           0        1.485762   -0.772154   -0.620943
      5          1           0        1.562499   -0.197584    1.014730
      6          1           0        1.657535    0.972447   -0.292836
 ---------------------------------------------------------------------

 SCF Done:  E(RB2PLYPD3) =  -132.528784121     A.U. after   12 cycles
 E2(B2PLYPD3) =    -0.1815108992D+00 E(B2PLYPD3) =    -0.13271029501989D+03

 The electronic state is 1-A.
 Alpha  occ. eigenvalues --  -14.84532 -10.66991 -10.66528  -1.03904  -0.89615
 Alpha  occ. eigenvalues --   -0.60640  -0.54948  -0.52335  -0.44964  -0.38908
 Alpha  occ. eigenvalues --   -0.38607
 Alpha virt. eigenvalues --    0.03600   0.06759   0.08152   0.10039   0.11274
 Alpha virt. eigenvalues --    0.11787   0.15542   0.15956   0.17250   0.20039
 Alpha virt. eigenvalues --    0.20299   0.25858   0.32816   0.33905   0.35032

 Mulliken charges:
               1
     1  C   -0.075437
     2  C    0.003552
     3  N   -0.209732
     4  H    0.099102
     5  H    0.089122
     6  H    0.093393
 Sum of Mulliken charges =   0.00000

 Dipole moment (field-independent basis, Debye):
    X=              4.1374    Y=             -0.0497    Z=             -0.0025  Tot=              4.1377
 Quadrupole moment (field-independent basis, Debye-Ang):
   XX=            -20.8138   YY=            -17.7516   ZZ=            -17.9115
   XY=              0.1919   XZ=              0.1452   YZ=              0.0756

 Normal termination of Gaussian 09 at Wed Aug 26 11:30:06 2020.
