 Gaussian 09, Revision D.01,
 Gaussian 09:  ES64L-G09RevD.01 24-Apr-2013

 --------------------
 #p B2PLYPD3/Def2QZVP
 --------------------

 ------------
 cyanomethane
 ------------
 Symbolic Z-matrix:
 Charge =  0 Multiplicity = 1

                         Standard orientation:
 ---------------------------------------------------------------------
 Center     Atomic      Atomic             Coordinates (Angstroms)
 Number     Number       Type             X           Y           Z
 ---------------------------------------------------------------------
      1          6           0        1.173455   -0.006482   -0.011688
      2          6           0       -0.274928   -0.005932    0.017122
      3          7           0       -1.429666    0.004997   -0.007228
      4          1           0        1.545779    0.016778    1.023505
      5          1           0        1.549344    0.906620   -0.505739
      6          1           0        1.521377   -0.883893   -0.499775
 ---------------------------------------------------------------------

 SCF Done:  E(RB2PLYPD3) =  -132.534842733     A.U. after   11 cycles
 E2(B2PLYPD3) =    -0.1804963707D+00 E(B2PLYPD3) =    -0.13271533910399D+03

 The electronic state is 1-A.
 Alpha  occ. eigenvalues --  -14.84148 -10.67027 -10.66175  -1.04091  -0.89431
 Alpha  occ. eigenvalues --   -0.59672  -0.54795  -0.53385  -0.44757  -0.39083
 Alpha  occ. eigenvalues --   -0.38873
 Alpha virt. eigenvalues --    0.03759   0.07717   0.08106   0.10157   0.11373
 Alpha virt. eigenvalues --    0.11612   0.15443   0.16001   0.16529   0.20074
 Alpha virt. eigenvalues --    0.20135   0.25515   0.32802   0.34141   0.35050

 Mulliken charges:
               1
     1  C   -0.086150
     2  C   -0.001525
     3  N   -0.206992
     4  H    0.094892
     5  H    0.097666
     6  H    0.102109
 Sum of Mulliken charges =   0.00000

 Dipole moment (field-independent basis, Debye):
    X=              4.1202    Y=             -0.0051    Z=              0.0202  Tot=              4.1203
 Quadrupole moment (field-independent basis, Debye-Ang):
   XX=            -21.0658   YY=            -17.6607   ZZ=            -17.7869
   XY=              0.0560   XZ=             -0.0045   YZ=              0.0380

 Normal termination of Gaussian 09 at Thu Aug 27 00:09:35 2020.
