 Gaussian 09, Revision D.01,
 Gaussian 09:  ES64L-G09RevD.01 24-Apr-2013

 --------------------
 #p B2PLYPD3/Def2QZVP
 --------------------

 ------------
 cyanomethane
 ------------
 Symbolic Z-matrix:
 Charge =  0 Multiplicity = 1

                         Standard orientation:
 ---------------------------------------------------------------------
 Center     Atomic      Atomic             Coordinates (Angstroms)
 Number     Number       Type             X           Y           Z
 ---------------------------------------------------------------------
      1          6           0        1.179925   -0.027938    0.003057
      2          6           0       -0.274255   -0.046623    0.006173
      3          7           0       -1.422303    0.018832    0.000440
      4          1           0        1.538984    0.318169    0.961453
      5          1           0        1.391458    0.883752   -0.682295
      6          1           0        1.591661   -0.886370   -0.337619
 ---------------------------------------------------------------------

 SCF Done:  E(RB2PLYPD3) =  -132.526054318     A.U. after   12 cycles
 E2(B2PLYPD3) =    -0.1801607556D+00 E(B2PLYPD3) =    -0.13270621507343D+03

 The electronic state is 1-A.
 Alpha  occ. eigenvalues --  -14.83861 -10.66967 -10.65984  -1.04225  -0.89655
 Alpha  occ. eigenvalues --   -0.59821  -0.56377  -0.52184  -0.44613  -0.39394
 Alpha  occ. eigenvalues --   -0.38549
 Alpha virt. eigenvalues --    0.03607   0.07762   0.08681   0.10211   0.11021
 Alpha virt. eigenvalues --    0.12096   0.15178   0.15570   0.16937   0.19949
 Alpha virt. eigenvalues --    0.20249   0.25372   0.32248   0.33089   0.35951

 Mulliken charges:
               1
     1  C   -0.096223
     2  C   -0.000330
     3  N   -0.206450
     4  H    0.099873
     5  H    0.095032
     6  H    0.108099
 Sum of Mulliken charges =   0.00000

 Dipole moment (field-independent basis, Debye):
    X=              4.1103    Y=              0.0166    Z=              0.0085  Tot=              4.1104
 Quadrupole moment (field-independent basis, Debye-Ang):
   XX=            -21.2046   YY=            -17.5014   ZZ=            -17.8450
   XY=              0.0548   XZ=              0.0880   YZ=              0.1333

 Normal termination of Gaussian 09 at Wed Aug 26 22:19:27 2020.
