 Gaussian 09, Revision D.01,
 Gaussian 09:  ES64L-G09RevD.01 24-Apr-2013

 --------------------
 #p B2PLYPD3/Def2QZVP
 --------------------

 ------------
 cyanomethane
 ------------
 Symbolic Z-matrix:
 Charge =  0 Multiplicity = 1

                         Standard orientation:
 ---------------------------------------------------------------------
 Center     Atomic      Atomic             Coordinates (Angstroms)
 Number     Number       Type             X           Y           Z
 ---------------------------------------------------------------------
      1          6           0        1.150223   -0.019168   -0.013857
      2          6           0       -0.263466    0.083174    0.010724
      3          7           0       -1.426373   -0.035156    0.002142
      4          1           0        1.623706    1.022564   -0.114268
      5          1           0        1.439622   -0.683205   -0.810005
      6          1           0        1.600740   -0.477300    0.928078
 ---------------------------------------------------------------------

 SCF Done:  E(RB2PLYPD3) =  -132.526621950     A.U. after   12 cycles
 E2(B2PLYPD3) =    -0.1824001241D+00 E(B2PLYPD3) =    -0.13270902207427D+03

 The electronic state is 1-A.
 Alpha  occ. eigenvalues --  -14.84656 -10.67662 -10.66550  -1.03752  -0.89265
 Alpha  occ. eigenvalues --   -0.60328  -0.54293  -0.52259  -0.44989  -0.38583
 Alpha  occ. eigenvalues --   -0.38339
 Alpha virt. eigenvalues --    0.03491   0.06578   0.07125   0.09938   0.11434
 Alpha virt. eigenvalues --    0.11794   0.15603   0.16105   0.16670   0.19948
 Alpha virt. eigenvalues --    0.20266   0.26381   0.32308   0.33554   0.35001

 Mulliken charges:
               1
     1  C   -0.089342
     2  C    0.007673
     3  N   -0.211631
     4  H    0.094511
     5  H    0.105752
     6  H    0.093036
 Sum of Mulliken charges =   0.00000

 Dipole moment (field-independent basis, Debye):
    X=              4.0906    Y=              0.0040    Z=             -0.0014  Tot=              4.0906
 Quadrupole moment (field-independent basis, Debye-Ang):
   XX=            -21.0284   YY=            -17.6750   ZZ=            -17.9696
   XY=             -0.1724   XZ=              0.1355   YZ=              0.0717

 Normal termination of Gaussian 09 at Wed Aug 26 22:08:21 2020.
