 Gaussian 09, Revision D.01,
 Gaussian 09:  ES64L-G09RevD.01 24-Apr-2013

 --------------------
 #p B2PLYPD3/Def2QZVP
 --------------------

 ------------
 cyanomethane
 ------------
 Symbolic Z-matrix:
 Charge =  0 Multiplicity = 1

                         Standard orientation:
 ---------------------------------------------------------------------
 Center     Atomic      Atomic             Coordinates (Angstroms)
 Number     Number       Type             X           Y           Z
 ---------------------------------------------------------------------
      1          6           0       -1.182434    0.012398    0.000300
      2          6           0        0.274720   -0.004863    0.016607
      3          7           0        1.439093    0.002016   -0.009533
      4          1           0       -1.529495   -0.190778    0.979184
      5          1           0       -1.541873   -0.819915   -0.650375
      6          1           0       -1.555997    0.951374   -0.363525
 ---------------------------------------------------------------------

 SCF Done:  E(RB2PLYPD3) =  -132.533393617     A.U. after   12 cycles
 E2(B2PLYPD3) =    -0.1812705799D+00 E(B2PLYPD3) =    -0.13271466419720D+03

 The electronic state is 1-A.
 Alpha  occ. eigenvalues --  -14.84445 -10.66974 -10.66522  -1.03694  -0.89464
 Alpha  occ. eigenvalues --   -0.59710  -0.54931  -0.53465  -0.44789  -0.38918
 Alpha  occ. eigenvalues --   -0.38701
 Alpha virt. eigenvalues --    0.03746   0.07609   0.08096   0.10156   0.11194
 Alpha virt. eigenvalues --    0.11450   0.15369   0.15874   0.16560   0.20109
 Alpha virt. eigenvalues --    0.20177   0.25340   0.32605   0.34143   0.35178

 Mulliken charges:
               1
     1  C   -0.083616
     2  C   -0.000226
     3  N   -0.211456
     4  H    0.098722
     5  H    0.095011
     6  H    0.101565
 Sum of Mulliken charges =   0.00000

 Dipole moment (field-independent basis, Debye):
    X=             -4.1439    Y=             -0.0139    Z=              0.0254  Tot=              4.1440
 Quadrupole moment (field-independent basis, Debye-Ang):
   XX=            -21.0456   YY=            -17.6982   ZZ=            -17.8227
   XY=              0.0077   XZ=              0.0363   YZ=             -0.0504

 Normal termination of Gaussian 09 at Wed Aug 26 15:53:34 2020.
