 Gaussian 09, Revision D.01,
 Gaussian 09:  ES64L-G09RevD.01 24-Apr-2013

 --------------------
 #p B2PLYPD3/Def2QZVP
 --------------------

 ------------
 cyanomethane
 ------------
 Symbolic Z-matrix:
 Charge =  0 Multiplicity = 1

                         Standard orientation:
 ---------------------------------------------------------------------
 Center     Atomic      Atomic             Coordinates (Angstroms)
 Number     Number       Type             X           Y           Z
 ---------------------------------------------------------------------
      1          6           0       -1.179001   -0.007507    0.004413
      2          6           0        0.286798    0.020551   -0.001590
      3          7           0        1.432537   -0.009936    0.000910
      4          1           0       -1.565548   -0.014227    1.027882
      5          1           0       -1.553088   -0.898676   -0.535564
      6          1           0       -1.555905    0.904189   -0.515618
 ---------------------------------------------------------------------

 SCF Done:  E(RB2PLYPD3) =  -132.535187606     A.U. after   11 cycles
 E2(B2PLYPD3) =    -0.1799639533D+00 E(B2PLYPD3) =    -0.13271515155962D+03

 The electronic state is 1-A.
 Alpha  occ. eigenvalues --  -14.83980 -10.67665 -10.66060  -1.04441  -0.88657
 Alpha  occ. eigenvalues --   -0.59348  -0.53672  -0.53256  -0.44760  -0.39316
 Alpha  occ. eigenvalues --   -0.39219
 Alpha virt. eigenvalues --    0.03672   0.07837   0.07968   0.10192   0.11526
 Alpha virt. eigenvalues --    0.11596   0.15337   0.16149   0.16642   0.20031
 Alpha virt. eigenvalues --    0.20048   0.25228   0.32600   0.34185   0.34633

 Mulliken charges:
               1
     1  C   -0.091087
     2  C   -0.002471
     3  N   -0.200970
     4  H    0.099307
     5  H    0.098973
     6  H    0.096249
 Sum of Mulliken charges =   0.00000

 Dipole moment (field-independent basis, Debye):
    X=             -4.1091    Y=              0.0152    Z=             -0.0009  Tot=              4.1091
 Quadrupole moment (field-independent basis, Debye-Ang):
   XX=            -21.0413   YY=            -17.7541   ZZ=            -17.7431
   XY=              0.0531   XZ=             -0.0145   YZ=              0.0111

 Normal termination of Gaussian 09 at Wed Aug 26 09:48:14 2020.
