 Gaussian 09, Revision D.01,
 Gaussian 09:  ES64L-G09RevD.01 24-Apr-2013

 --------------------
 #p B2PLYPD3/Def2QZVP
 --------------------

 ------------
 cyanomethane
 ------------
 Symbolic Z-matrix:
 Charge =  0 Multiplicity = 1

                         Standard orientation:
 ---------------------------------------------------------------------
 Center     Atomic      Atomic             Coordinates (Angstroms)
 Number     Number       Type             X           Y           Z
 ---------------------------------------------------------------------
      1          6           0       -1.174280   -0.028493   -0.016297
      2          6           0        0.267025    0.018926    0.080332
      3          7           0        1.427915   -0.010935   -0.043817
      4          1           0       -1.466734    0.016002    0.966616
      5          1           0       -1.589134   -0.838938   -0.539228
      6          1           0       -1.496003    0.956876   -0.504881
 ---------------------------------------------------------------------

 SCF Done:  E(RB2PLYPD3) =  -132.523800532     A.U. after   12 cycles
 E2(B2PLYPD3) =    -0.1817961456D+00 E(B2PLYPD3) =    -0.13270559667739D+03

 The electronic state is 1-A.
 Alpha  occ. eigenvalues --  -14.84524 -10.66549 -10.66481  -1.03657  -0.90020
 Alpha  occ. eigenvalues --   -0.60091  -0.55646  -0.53149  -0.44824  -0.38808
 Alpha  occ. eigenvalues --   -0.38441
 Alpha virt. eigenvalues --    0.03514   0.07086   0.08569   0.09846   0.11206
 Alpha virt. eigenvalues --    0.11557   0.15008   0.15593   0.17342   0.20061
 Alpha virt. eigenvalues --    0.20305   0.26011   0.32699   0.33868   0.35484

 Mulliken charges:
               1
     1  C   -0.090550
     2  C    0.005708
     3  N   -0.213573
     4  H    0.100915
     5  H    0.104005
     6  H    0.093495
 Sum of Mulliken charges =   0.00000

 Dipole moment (field-independent basis, Debye):
    X=             -4.0979    Y=              0.0211    Z=              0.0808  Tot=              4.0987
 Quadrupole moment (field-independent basis, Debye-Ang):
   XX=            -21.1082   YY=            -17.6867   ZZ=            -17.7622
   XY=              0.0991   XZ=              0.2331   YZ=              0.0718

 Normal termination of Gaussian 09 at Wed Aug 26 22:29:34 2020.
