 Gaussian 09, Revision D.01,
 Gaussian 09:  ES64L-G09RevD.01 24-Apr-2013

 --------------------
 #p B2PLYPD3/Def2QZVP
 --------------------

 ------------
 cyanomethane
 ------------
 Symbolic Z-matrix:
 Charge =  0 Multiplicity = 1

                         Standard orientation:
 ---------------------------------------------------------------------
 Center     Atomic      Atomic             Coordinates (Angstroms)
 Number     Number       Type             X           Y           Z
 ---------------------------------------------------------------------
      1          6           0        1.183999   -0.006193   -0.004818
      2          6           0       -0.276948   -0.005631   -0.016421
      3          7           0       -1.435173    0.005691    0.010254
      4          1           0        1.502677   -0.874089   -0.547158
      5          1           0        1.548924   -0.042070    1.061756
      6          1           0        1.552303    0.947264   -0.458942
 ---------------------------------------------------------------------

 SCF Done:  E(RB2PLYPD3) =  -132.532886147     A.U. after   11 cycles
 E2(B2PLYPD3) =    -0.1810341426D+00 E(B2PLYPD3) =    -0.13271392028950D+03

 The electronic state is 1-A.
 Alpha  occ. eigenvalues --  -14.84227 -10.67711 -10.66305  -1.03893  -0.88918
 Alpha  occ. eigenvalues --   -0.58950  -0.54682  -0.52981  -0.44706  -0.38980
 Alpha  occ. eigenvalues --   -0.38782
 Alpha virt. eigenvalues --    0.03624   0.07423   0.08124   0.10169   0.11258
 Alpha virt. eigenvalues --    0.11564   0.15256   0.15975   0.16192   0.20069
 Alpha virt. eigenvalues --    0.20154   0.25242   0.32453   0.33774   0.34737

 Mulliken charges:
               1
     1  C   -0.098122
     2  C   -0.001496
     3  N   -0.208302
     4  H    0.106594
     5  H    0.099829
     6  H    0.101499
 Sum of Mulliken charges =   0.00000

 Dipole moment (field-independent basis, Debye):
    X=              4.1171    Y=             -0.0079    Z=             -0.0094  Tot=              4.1172
 Quadrupole moment (field-independent basis, Debye-Ang):
   XX=            -21.2311   YY=            -17.6805   ZZ=            -17.7835
   XY=              0.0706   XZ=              0.0915   YZ=              0.0434

 Normal termination of Gaussian 09 at Wed Aug 26 23:56:02 2020.
