 Gaussian 09, Revision D.01,
 Gaussian 09:  ES64L-G09RevD.01 24-Apr-2013

 --------------------
 #p B2PLYPD3/Def2QZVP
 --------------------

 ------------
 cyanomethane
 ------------
 Symbolic Z-matrix:
 Charge =  0 Multiplicity = 1

                         Standard orientation:
 ---------------------------------------------------------------------
 Center     Atomic      Atomic             Coordinates (Angstroms)
 Number     Number       Type             X           Y           Z
 ---------------------------------------------------------------------
      1          6           0        1.165805    0.006372    0.007447
      2          6           0       -0.274566   -0.008497   -0.012709
      3          7           0       -1.431747    0.001703    0.003339
      4          1           0        1.545612    0.952374   -0.388332
      5          1           0        1.600988   -0.815369   -0.622596
      6          1           0        1.528194   -0.136177    1.019124
 ---------------------------------------------------------------------

 SCF Done:  E(RB2PLYPD3) =  -132.534399324     A.U. after   11 cycles
 E2(B2PLYPD3) =    -0.1808677795D+00 E(B2PLYPD3) =    -0.13271526710391D+03

 The electronic state is 1-A.
 Alpha  occ. eigenvalues --  -14.84293 -10.67268 -10.66310  -1.04069  -0.89268
 Alpha  occ. eigenvalues --   -0.60105  -0.54179  -0.53127  -0.44860  -0.38971
 Alpha  occ. eigenvalues --   -0.38847
 Alpha virt. eigenvalues --    0.03715   0.07415   0.07768   0.10139   0.11492
 Alpha virt. eigenvalues --    0.11619   0.15506   0.16407   0.16424   0.20096
 Alpha virt. eigenvalues --    0.20119   0.25663   0.32700   0.34269   0.34743

 Mulliken charges:
               1
     1  C   -0.082448
     2  C    0.000749
     3  N   -0.207163
     4  H    0.097568
     5  H    0.092649
     6  H    0.098645
 Sum of Mulliken charges =   0.00000

 Dipole moment (field-independent basis, Debye):
    X=              4.1252    Y=              0.0007    Z=              0.0012  Tot=              4.1252
 Quadrupole moment (field-independent basis, Debye-Ang):
   XX=            -20.9619   YY=            -17.7889   ZZ=            -17.7725
   XY=             -0.0214   XZ=             -0.0141   YZ=             -0.0362

 Normal termination of Gaussian 09 at Wed Aug 26 21:35:38 2020.
