 Gaussian 09, Revision D.01,
 Gaussian 09:  ES64L-G09RevD.01 24-Apr-2013

 --------------------
 #p B2PLYPD3/Def2QZVP
 --------------------

 ------------
 cyanomethane
 ------------
 Symbolic Z-matrix:
 Charge =  0 Multiplicity = 1

                         Standard orientation:
 ---------------------------------------------------------------------
 Center     Atomic      Atomic             Coordinates (Angstroms)
 Number     Number       Type             X           Y           Z
 ---------------------------------------------------------------------
      1          6           0       -1.172181    0.003145   -0.024832
      2          6           0        0.246863   -0.062568    0.032829
      3          7           0        1.437891    0.029872   -0.010459
      4          1           0       -1.561239    0.067708    0.944559
      5          1           0       -1.496903   -0.859474   -0.452811
      6          1           0       -1.455186    0.939202   -0.466517
 ---------------------------------------------------------------------

 SCF Done:  E(RB2PLYPD3) =  -132.520189146     A.U. after   12 cycles
 E2(B2PLYPD3) =    -0.1837745533D+00 E(B2PLYPD3) =    -0.13270396369899D+03

 The electronic state is 1-A.
 Alpha  occ. eigenvalues --  -14.85143 -10.67124 -10.65569  -1.02638  -0.91088
 Alpha  occ. eigenvalues --   -0.60626  -0.57240  -0.53871  -0.44844  -0.38127
 Alpha  occ. eigenvalues --   -0.37755
 Alpha virt. eigenvalues --    0.03695   0.07147   0.07933   0.10019   0.10769
 Alpha virt. eigenvalues --    0.11456   0.15093   0.15966   0.16399   0.20178
 Alpha virt. eigenvalues --    0.20404   0.26191   0.32946   0.34207   0.35684

 Mulliken charges:
               1
     1  C   -0.070086
     2  C    0.005657
     3  N   -0.227206
     4  H    0.087760
     5  H    0.102280
     6  H    0.101595
 Sum of Mulliken charges =   0.00000

 Dipole moment (field-independent basis, Debye):
    X=             -4.1797    Y=             -0.0112    Z=              0.0628  Tot=              4.1802
 Quadrupole moment (field-independent basis, Debye-Ang):
   XX=            -21.0449   YY=            -17.4857   ZZ=            -18.0271
   XY=             -0.1437   XZ=             -0.1498   YZ=              0.0634

 Normal termination of Gaussian 09 at Wed Aug 26 22:56:29 2020.
