 Gaussian 09, Revision D.01,
 Gaussian 09:  ES64L-G09RevD.01 24-Apr-2013

 --------------------
 #p B2PLYPD3/Def2QZVP
 --------------------

 ------------
 cyanomethane
 ------------
 Symbolic Z-matrix:
 Charge =  0 Multiplicity = 1

                         Standard orientation:
 ---------------------------------------------------------------------
 Center     Atomic      Atomic             Coordinates (Angstroms)
 Number     Number       Type             X           Y           Z
 ---------------------------------------------------------------------
      1          6           0        1.177897    0.004651   -0.004700
      2          6           0       -0.273110   -0.008128   -0.001151
      3          7           0       -1.430624    0.005302    0.001406
      4          1           0        1.509979   -0.795532   -0.649542
      5          1           0        1.529345   -0.184041    1.016910
      6          1           0        1.546321    0.963319   -0.342104
 ---------------------------------------------------------------------

 SCF Done:  E(RB2PLYPD3) =  -132.535201737     A.U. after   11 cycles
 E2(B2PLYPD3) =    -0.1806526493D+00 E(B2PLYPD3) =    -0.13271585438651D+03

 The electronic state is 1-A.
 Alpha  occ. eigenvalues --  -14.84173 -10.66988 -10.66215  -1.03954  -0.89504
 Alpha  occ. eigenvalues --   -0.59443  -0.54613  -0.53963  -0.44713  -0.38963
 Alpha  occ. eigenvalues --   -0.38857
 Alpha virt. eigenvalues --    0.03783   0.07864   0.08084   0.10164   0.11372
 Alpha virt. eigenvalues --    0.11495   0.15404   0.15918   0.16360   0.20106
 Alpha virt. eigenvalues --    0.20144   0.25431   0.32784   0.34368   0.34852

 Mulliken charges:
               1
     1  C   -0.089127
     2  C   -0.002099
     3  N   -0.208752
     4  H    0.100757
     5  H    0.098126
     6  H    0.101095
 Sum of Mulliken charges =   0.00000

 Dipole moment (field-independent basis, Debye):
    X=              4.1236    Y=             -0.0121    Z=              0.0021  Tot=              4.1236
 Quadrupole moment (field-independent basis, Debye-Ang):
   XX=            -21.1375   YY=            -17.6715   ZZ=            -17.7423
   XY=              0.0443   XZ=              0.0249   YZ=              0.0060

 Normal termination of Gaussian 09 at Wed Aug 26 23:54:41 2020.
