 Gaussian 09, Revision D.01,
 Gaussian 09:  ES64L-G09RevD.01 24-Apr-2013

 --------------------
 #p B2PLYPD3/Def2QZVP
 --------------------

 ------------
 cyanomethane
 ------------
 Symbolic Z-matrix:
 Charge =  0 Multiplicity = 1

                         Standard orientation:
 ---------------------------------------------------------------------
 Center     Atomic      Atomic             Coordinates (Angstroms)
 Number     Number       Type             X           Y           Z
 ---------------------------------------------------------------------
      1          6           0        1.174019   -0.001824   -0.019316
      2          6           0       -0.265131    0.039796    0.017812
      3          7           0       -1.435105   -0.019448   -0.003680
      4          1           0        1.579328   -0.094706    1.010887
      5          1           0        1.520788    0.907690   -0.437155
      6          1           0        1.492290   -0.904679   -0.538946
 ---------------------------------------------------------------------

 SCF Done:  E(RB2PLYPD3) =  -132.531446013     A.U. after   11 cycles
 E2(B2PLYPD3) =    -0.1819853051D+00 E(B2PLYPD3) =    -0.13271343131814D+03

 The electronic state is 1-A.
 Alpha  occ. eigenvalues --  -14.84588 -10.66941 -10.66604  -1.03458  -0.89721
 Alpha  occ. eigenvalues --   -0.59801  -0.55563  -0.53087  -0.44805  -0.38683
 Alpha  occ. eigenvalues --   -0.38375
 Alpha virt. eigenvalues --    0.03702   0.07245   0.07952   0.10100   0.11087
 Alpha virt. eigenvalues --    0.11577   0.15337   0.15968   0.16355   0.20096
 Alpha virt. eigenvalues --    0.20251   0.25730   0.32674   0.33977   0.35162

 Mulliken charges:
               1
     1  C   -0.084748
     2  C    0.001585
     3  N   -0.215247
     4  H    0.091973
     5  H    0.103507
     6  H    0.102931
 Sum of Mulliken charges =   0.00000

 Dipole moment (field-independent basis, Debye):
    X=              4.1389    Y=              0.0135    Z=              0.0237  Tot=              4.1390
 Quadrupole moment (field-independent basis, Debye-Ang):
   XX=            -21.1101   YY=            -17.5892   ZZ=            -17.9277
   XY=             -0.1060   XZ=              0.0971   YZ=             -0.0225

 Normal termination of Gaussian 09 at Wed Aug 26 15:16:24 2020.
