 Gaussian 09, Revision D.01,
 Gaussian 09:  ES64L-G09RevD.01 24-Apr-2013

 --------------------
 #p B2PLYPD3/Def2QZVP
 --------------------

 ------------
 cyanomethane
 ------------
 Symbolic Z-matrix:
 Charge =  0 Multiplicity = 1

                         Standard orientation:
 ---------------------------------------------------------------------
 Center     Atomic      Atomic             Coordinates (Angstroms)
 Number     Number       Type             X           Y           Z
 ---------------------------------------------------------------------
      1          6           0       -1.171150    0.019390    0.005376
      2          6           0        0.276654    0.025451   -0.010067
      3          7           0        1.432195   -0.022769    0.004651
      4          1           0       -1.457875    1.019658   -0.099992
      5          1           0       -1.591484   -0.472777    0.905307
      6          1           0       -1.609025   -0.656541   -0.809727
 ---------------------------------------------------------------------

 SCF Done:  E(RB2PLYPD3) =  -132.528886423     A.U. after   12 cycles
 E2(B2PLYPD3) =    -0.1809581957D+00 E(B2PLYPD3) =    -0.13270984461908D+03

 The electronic state is 1-A.
 Alpha  occ. eigenvalues --  -14.84264 -10.67337 -10.66290  -1.04075  -0.89271
 Alpha  occ. eigenvalues --   -0.59857  -0.55695  -0.51700  -0.44825  -0.39153
 Alpha  occ. eigenvalues --   -0.38656
 Alpha virt. eigenvalues --    0.03603   0.06960   0.08338   0.10127   0.11115
 Alpha virt. eigenvalues --    0.11915   0.15297   0.16321   0.16588   0.19946
 Alpha virt. eigenvalues --    0.20252   0.25530   0.32542   0.33610   0.35294

 Mulliken charges:
               1
     1  C   -0.084258
     2  C   -0.000227
     3  N   -0.206892
     4  H    0.106615
     5  H    0.094458
     6  H    0.090303
 Sum of Mulliken charges =   0.00000

 Dipole moment (field-independent basis, Debye):
    X=             -4.1207    Y=              0.0021    Z=              0.0060  Tot=              4.1207
 Quadrupole moment (field-independent basis, Debye-Ang):
   XX=            -21.0034   YY=            -17.5265   ZZ=            -18.0311
   XY=              0.3379   XZ=             -0.0526   YZ=             -0.0515

 Normal termination of Gaussian 09 at Wed Aug 26 10:32:23 2020.
