 Gaussian 09, Revision D.01,
 Gaussian 09:  ES64L-G09RevD.01 24-Apr-2013

 --------------------
 #p B2PLYPD3/Def2QZVP
 --------------------

 ------------
 cyanomethane
 ------------
 Symbolic Z-matrix:
 Charge =  0 Multiplicity = 1

                         Standard orientation:
 ---------------------------------------------------------------------
 Center     Atomic      Atomic             Coordinates (Angstroms)
 Number     Number       Type             X           Y           Z
 ---------------------------------------------------------------------
      1          6           0       -1.177116    0.004662    0.002726
      2          6           0        0.286459   -0.012030    0.013471
      3          7           0        1.434301    0.002058   -0.006078
      4          1           0       -1.599290   -0.859840   -0.563630
      5          1           0       -1.511048    0.917789   -0.496145
      6          1           0       -1.585829   -0.028146    1.005143
 ---------------------------------------------------------------------

 SCF Done:  E(RB2PLYPD3) =  -132.535329724     A.U. after   12 cycles
 E2(B2PLYPD3) =    -0.1800362611D+00 E(B2PLYPD3) =    -0.13271536598511D+03

 The electronic state is 1-A.
 Alpha  occ. eigenvalues --  -14.84069 -10.67393 -10.66155  -1.04393  -0.88864
 Alpha  occ. eigenvalues --   -0.59730  -0.53960  -0.53108  -0.44808  -0.39309
 Alpha  occ. eigenvalues --   -0.39197
 Alpha virt. eigenvalues --    0.03711   0.07740   0.08082   0.10210   0.11465
 Alpha virt. eigenvalues --    0.11617   0.15367   0.16358   0.16632   0.20027
 Alpha virt. eigenvalues --    0.20069   0.25255   0.32634   0.34349   0.34806

 Mulliken charges:
               1
     1  C   -0.084008
     2  C   -0.001599
     3  N   -0.202050
     4  H    0.093303
     5  H    0.097612
     6  H    0.096741
 Sum of Mulliken charges =   0.00000

 Dipole moment (field-independent basis, Debye):
    X=             -4.1213    Y=              0.0044    Z=              0.0067  Tot=              4.1213
 Quadrupole moment (field-independent basis, Debye-Ang):
   XX=            -20.9350   YY=            -17.7840   ZZ=            -17.7595
   XY=              0.0385   XZ=              0.0185   YZ=             -0.0237

 Normal termination of Gaussian 09 at Wed Aug 26 23:59:53 2020.
