 Gaussian 09, Revision D.01,
 Gaussian 09:  ES64L-G09RevD.01 24-Apr-2013

 --------------------
 #p B2PLYPD3/Def2QZVP
 --------------------

 ------------
 cyanomethane
 ------------
 Symbolic Z-matrix:
 Charge =  0 Multiplicity = 1

                         Standard orientation:
 ---------------------------------------------------------------------
 Center     Atomic      Atomic             Coordinates (Angstroms)
 Number     Number       Type             X           Y           Z
 ---------------------------------------------------------------------
      1          6           0        1.177229    0.044752   -0.005430
      2          6           0       -0.297520   -0.067900    0.002908
      3          7           0       -1.438130    0.029926   -0.009103
      4          1           0        1.617867    1.029447   -0.321084
      5          1           0        1.677240   -0.863387   -0.685675
      6          1           0        1.493548   -0.236653    1.085613
 ---------------------------------------------------------------------

 SCF Done:  E(RB2PLYPD3) =  -132.514988600     A.U. after   12 cycles
 E2(B2PLYPD3) =    -0.1813270525D+00 E(B2PLYPD3) =    -0.13269631565236D+03

 The electronic state is 1-A.
 Alpha  occ. eigenvalues --  -14.84161 -10.69869 -10.66307  -1.04629  -0.86935
 Alpha  occ. eigenvalues --   -0.58868  -0.52732  -0.50428  -0.44917  -0.39436
 Alpha  occ. eigenvalues --   -0.38893
 Alpha virt. eigenvalues --    0.03083   0.06340   0.07256   0.09991   0.11560
 Alpha virt. eigenvalues --    0.11934   0.15128   0.15474   0.17618   0.20036
 Alpha virt. eigenvalues --    0.20066   0.25487   0.30718   0.32566   0.34168

 Mulliken charges:
               1
     1  C   -0.115209
     2  C    0.008459
     3  N   -0.196832
     4  H    0.114091
     5  H    0.090437
     6  H    0.099054
 Sum of Mulliken charges =   0.00000

 Dipole moment (field-independent basis, Debye):
    X=              4.0532    Y=             -0.0303    Z=              0.0491  Tot=              4.0536
 Quadrupole moment (field-independent basis, Debye-Ang):
   XX=            -21.1555   YY=            -17.7347   ZZ=            -18.0147
   XY=              0.1693   XZ=             -0.1084   YZ=             -0.1165

 Normal termination of Gaussian 09 at Wed Aug 26 21:02:20 2020.
