 Gaussian 09, Revision D.01,
 Gaussian 09:  ES64L-G09RevD.01 24-Apr-2013

 --------------------
 #p B2PLYPD3/Def2QZVP
 --------------------

 ------------
 cyanomethane
 ------------
 Symbolic Z-matrix:
 Charge =  0 Multiplicity = 1

                         Standard orientation:
 ---------------------------------------------------------------------
 Center     Atomic      Atomic             Coordinates (Angstroms)
 Number     Number       Type             X           Y           Z
 ---------------------------------------------------------------------
      1          6           0        1.169225   -0.006235   -0.008368
      2          6           0       -0.274847   -0.001403   -0.013111
      3          7           0       -1.430760    0.001739    0.005879
      4          1           0        1.560229    1.004120   -0.207215
      5          1           0        1.565997   -0.694078   -0.692114
      6          1           0        1.522826   -0.276387    0.987051
 ---------------------------------------------------------------------

 SCF Done:  E(RB2PLYPD3) =  -132.534402917     A.U. after   11 cycles
 E2(B2PLYPD3) =    -0.1804890744D+00 E(B2PLYPD3) =    -0.13271489199111D+03

 The electronic state is 1-A.
 Alpha  occ. eigenvalues --  -14.84227 -10.66684 -10.66252  -1.04095  -0.89674
 Alpha  occ. eigenvalues --   -0.60301  -0.54771  -0.53433  -0.44825  -0.39109
 Alpha  occ. eigenvalues --   -0.38868
 Alpha virt. eigenvalues --    0.03799   0.07721   0.08109   0.10159   0.11346
 Alpha virt. eigenvalues --    0.11650   0.15538   0.16186   0.16652   0.20069
 Alpha virt. eigenvalues --    0.20152   0.25584   0.32904   0.34263   0.35231

 Mulliken charges:
               1
     1  C   -0.076454
     2  C   -0.000158
     3  N   -0.207364
     4  H    0.093671
     5  H    0.097632
     6  H    0.092674
 Sum of Mulliken charges =   0.00000

 Dipole moment (field-independent basis, Debye):
    X=              4.1330    Y=             -0.0083    Z=              0.0087  Tot=              4.1330
 Quadrupole moment (field-independent basis, Debye-Ang):
   XX=            -20.9203   YY=            -17.7029   ZZ=            -17.7971
   XY=              0.0025   XZ=              0.0431   YZ=              0.0471

 Normal termination of Gaussian 09 at Wed Aug 26 12:41:33 2020.
