 Gaussian 09, Revision D.01,
 Gaussian 09:  ES64L-G09RevD.01 24-Apr-2013

 --------------------
 #p B2PLYPD3/Def2QZVP
 --------------------

 ------------
 cyanomethane
 ------------
 Symbolic Z-matrix:
 Charge =  0 Multiplicity = 1

                         Standard orientation:
 ---------------------------------------------------------------------
 Center     Atomic      Atomic             Coordinates (Angstroms)
 Number     Number       Type             X           Y           Z
 ---------------------------------------------------------------------
      1          6           0       -1.202889    0.018184    0.003872
      2          6           0        0.296057   -0.060157   -0.040440
      3          7           0        1.433679    0.020299    0.020920
      4          1           0       -1.419455    0.870647   -0.507052
      5          1           0       -1.521392    0.088778    0.976392
      6          1           0       -1.653916   -0.849679   -0.396372
 ---------------------------------------------------------------------

 SCF Done:  E(RB2PLYPD3) =  -132.527481527     A.U. after   12 cycles
 E2(B2PLYPD3) =    -0.1788620607D+00 E(B2PLYPD3) =    -0.13270634358806D+03

 The electronic state is 1-A.
 Alpha  occ. eigenvalues --  -14.83821 -10.65934 -10.65785  -1.04524  -0.89893
 Alpha  occ. eigenvalues --   -0.59281  -0.55915  -0.54248  -0.44626  -0.39674
 Alpha  occ. eigenvalues --   -0.39572
 Alpha virt. eigenvalues --    0.03916   0.08646   0.09191   0.10342   0.11170
 Alpha virt. eigenvalues --    0.11385   0.15154   0.16232   0.16483   0.19927
 Alpha virt. eigenvalues --    0.20067   0.24825   0.32651   0.35376   0.35946

 Mulliken charges:
               1
     1  C   -0.074494
     2  C   -0.006809
     3  N   -0.200640
     4  H    0.100739
     5  H    0.091829
     6  H    0.089375
 Sum of Mulliken charges =   0.00000

 Dipole moment (field-independent basis, Debye):
    X=             -4.1300    Y=             -0.0215    Z=             -0.0063  Tot=              4.1300
 Quadrupole moment (field-independent basis, Debye-Ang):
   XX=            -20.8636   YY=            -17.5722   ZZ=            -17.7552
   XY=              0.0381   XZ=             -0.1844   YZ=             -0.0643

 Normal termination of Gaussian 09 at Wed Aug 26 16:31:53 2020.
