 Gaussian 09, Revision D.01,
 Gaussian 09:  ES64L-G09RevD.01 24-Apr-2013

 --------------------
 #p B2PLYPD3/Def2QZVP
 --------------------

 ------------
 cyanomethane
 ------------
 Symbolic Z-matrix:
 Charge =  0 Multiplicity = 1

                         Standard orientation:
 ---------------------------------------------------------------------
 Center     Atomic      Atomic             Coordinates (Angstroms)
 Number     Number       Type             X           Y           Z
 ---------------------------------------------------------------------
      1          6           0        1.173238    0.007699   -0.027293
      2          6           0       -0.287287   -0.055889    0.034749
      3          7           0       -1.441773    0.020750   -0.009075
      4          1           0        1.678286    0.058399    1.015475
      5          1           0        1.456040    0.963530   -0.499680
      6          1           0        1.642374   -0.878034   -0.497003
 ---------------------------------------------------------------------

 SCF Done:  E(RB2PLYPD3) =  -132.528956194     A.U. after   12 cycles
 E2(B2PLYPD3) =    -0.1814485525D+00 E(B2PLYPD3) =    -0.13271040474627D+03

 The electronic state is 1-A.
 Alpha  occ. eigenvalues --  -14.84489 -10.68182 -10.66597  -1.04111  -0.88278
 Alpha  occ. eigenvalues --   -0.59910  -0.54172  -0.51336  -0.44971  -0.39200
 Alpha  occ. eigenvalues --   -0.38776
 Alpha virt. eigenvalues --    0.03483   0.06877   0.07552   0.10193   0.11277
 Alpha virt. eigenvalues --    0.11788   0.15155   0.16377   0.16961   0.19961
 Alpha virt. eigenvalues --    0.20119   0.25556   0.32009   0.33626   0.34948

 Mulliken charges:
               1
     1  C   -0.085466
     2  C    0.005749
     3  N   -0.205581
     4  H    0.084046
     5  H    0.102838
     6  H    0.098413
 Sum of Mulliken charges =   0.00000

 Dipole moment (field-independent basis, Debye):
    X=              4.1213    Y=             -0.0121    Z=              0.0242  Tot=              4.1214
 Quadrupole moment (field-independent basis, Debye-Ang):
   XX=            -20.8493   YY=            -17.6796   ZZ=            -18.1114
   XY=              0.0121   XZ=              0.0942   YZ=              0.0029

 Normal termination of Gaussian 09 at Wed Aug 26 18:43:35 2020.
