 Gaussian 09, Revision D.01,
 Gaussian 09:  ES64L-G09RevD.01 24-Apr-2013

 --------------------
 #p B2PLYPD3/Def2QZVP
 --------------------

 ------------
 cyanomethane
 ------------
 Symbolic Z-matrix:
 Charge =  0 Multiplicity = 1

                         Standard orientation:
 ---------------------------------------------------------------------
 Center     Atomic      Atomic             Coordinates (Angstroms)
 Number     Number       Type             X           Y           Z
 ---------------------------------------------------------------------
      1          6           0       -1.169045    0.002581    0.000364
      2          6           0        0.274541    0.000169    0.021535
      3          7           0        1.432840   -0.000760   -0.013433
      4          1           0       -1.550126    1.029524   -0.049326
      5          1           0       -1.531233   -0.487828    0.880966
      6          1           0       -1.581497   -0.552871   -0.868997
 ---------------------------------------------------------------------

 SCF Done:  E(RB2PLYPD3) =  -132.534331952     A.U. after   11 cycles
 E2(B2PLYPD3) =    -0.1809095785D+00 E(B2PLYPD3) =    -0.13271524153076D+03

 The electronic state is 1-A.
 Alpha  occ. eigenvalues --  -14.84327 -10.67083 -10.66348  -1.03996  -0.89391
 Alpha  occ. eigenvalues --   -0.60084  -0.54406  -0.53257  -0.44850  -0.38959
 Alpha  occ. eigenvalues --   -0.38839
 Alpha virt. eigenvalues --    0.03717   0.07412   0.07990   0.10132   0.11385
 Alpha virt. eigenvalues --    0.11601   0.15508   0.16119   0.16653   0.20078
 Alpha virt. eigenvalues --    0.20157   0.25616   0.32821   0.34327   0.34784

 Mulliken charges:
               1
     1  C   -0.080983
     2  C    0.000389
     3  N   -0.208060
     4  H    0.097452
     5  H    0.097371
     6  H    0.093832
 Sum of Mulliken charges =   0.00000

 Dipole moment (field-independent basis, Debye):
    X=             -4.1293    Y=             -0.0086    Z=              0.0229  Tot=              4.1294
 Quadrupole moment (field-independent basis, Debye-Ang):
   XX=            -20.9610   YY=            -17.7219   ZZ=            -17.8243
   XY=              0.0362   XZ=              0.1034   YZ=             -0.0346

 Normal termination of Gaussian 09 at Wed Aug 26 23:58:47 2020.
