 Gaussian 09, Revision D.01,
 Gaussian 09:  ES64L-G09RevD.01 24-Apr-2013

 --------------------
 #p B2PLYPD3/Def2QZVP
 --------------------

 ------------
 cyanomethane
 ------------
 Symbolic Z-matrix:
 Charge =  0 Multiplicity = 1

                         Standard orientation:
 ---------------------------------------------------------------------
 Center     Atomic      Atomic             Coordinates (Angstroms)
 Number     Number       Type             X           Y           Z
 ---------------------------------------------------------------------
      1          6           0       -1.181827    0.022922    0.007665
      2          6           0        0.284144   -0.007523   -0.022695
      3          7           0        1.435466    0.000589    0.008935
      4          1           0       -1.544034    1.047738   -0.061349
      5          1           0       -1.533145   -0.510113    0.956092
      6          1           0       -1.584987   -0.634145   -0.867116
 ---------------------------------------------------------------------

 SCF Done:  E(RB2PLYPD3) =  -132.529352693     A.U. after   12 cycles
 E2(B2PLYPD3) =    -0.1808786607D+00 E(B2PLYPD3) =    -0.13271023135363D+03

 The electronic state is 1-A.
 Alpha  occ. eigenvalues --  -14.84112 -10.68527 -10.66216  -1.04194  -0.88176
 Alpha  occ. eigenvalues --   -0.58822  -0.54238  -0.51856  -0.44742  -0.39231
 Alpha  occ. eigenvalues --   -0.38813
 Alpha virt. eigenvalues --    0.03471   0.07186   0.07799   0.10159   0.11335
 Alpha virt. eigenvalues --    0.11787   0.15172   0.15860   0.16610   0.19998
 Alpha virt. eigenvalues --    0.20119   0.25201   0.32013   0.33089   0.34736

 Mulliken charges:
               1
     1  C   -0.104803
     2  C    0.000457
     3  N   -0.203539
     4  H    0.110246
     5  H    0.101398
     6  H    0.096242
 Sum of Mulliken charges =   0.00000

 Dipole moment (field-independent basis, Debye):
    X=             -4.0998    Y=             -0.0133    Z=             -0.0047  Tot=              4.0998
 Quadrupole moment (field-independent basis, Debye-Ang):
   XX=            -21.2354   YY=            -17.6213   ZZ=            -17.9118
   XY=              0.0519   XZ=             -0.0295   YZ=             -0.0380

 Normal termination of Gaussian 09 at Wed Aug 26 14:59:38 2020.
