 Gaussian 09, Revision D.01,
 Gaussian 09:  ES64L-G09RevD.01 24-Apr-2013

 --------------------
 #p B2PLYPD3/Def2QZVP
 --------------------

 ------------
 cyanomethane
 ------------
 Symbolic Z-matrix:
 Charge =  0 Multiplicity = 1

                         Standard orientation:
 ---------------------------------------------------------------------
 Center     Atomic      Atomic             Coordinates (Angstroms)
 Number     Number       Type             X           Y           Z
 ---------------------------------------------------------------------
      1          6           0        1.176792   -0.003312   -0.007920
      2          6           0       -0.277284    0.037485    0.016675
      3          7           0       -1.439252   -0.019267   -0.010127
      4          1           0        1.565202    1.010516   -0.167316
      5          1           0        1.582819   -0.694765   -0.762375
      6          1           0        1.529692   -0.385918    0.948049
 ---------------------------------------------------------------------

 SCF Done:  E(RB2PLYPD3) =  -132.533485712     A.U. after   12 cycles
 E2(B2PLYPD3) =    -0.1814187040D+00 E(B2PLYPD3) =    -0.13271490441604D+03

 The electronic state is 1-A.
 Alpha  occ. eigenvalues --  -14.84503 -10.67306 -10.66565  -1.03795  -0.89123
 Alpha  occ. eigenvalues --   -0.59939  -0.54175  -0.53185  -0.44874  -0.38904
 Alpha  occ. eigenvalues --   -0.38764
 Alpha virt. eigenvalues --    0.03667   0.07346   0.07862   0.10095   0.11237
 Alpha virt. eigenvalues --    0.11556   0.15419   0.15957   0.16783   0.20055
 Alpha virt. eigenvalues --    0.20194   0.25499   0.32637   0.34290   0.34734

 Mulliken charges:
               1
     1  C   -0.082646
     2  C    0.001762
     3  N   -0.209777
     4  H    0.098278
     5  H    0.096805
     6  H    0.095579
 Sum of Mulliken charges =   0.00000

 Dipole moment (field-independent basis, Debye):
    X=              4.1340    Y=              0.0050    Z=              0.0301  Tot=              4.1341
 Quadrupole moment (field-independent basis, Debye-Ang):
   XX=            -20.9747   YY=            -17.6883   ZZ=            -17.9178
   XY=             -0.1554   XZ=             -0.0535   YZ=             -0.0138

 Normal termination of Gaussian 09 at Wed Aug 26 11:18:21 2020.
