 Gaussian 09, Revision D.01,
 Gaussian 09:  ES64L-G09RevD.01 24-Apr-2013

 --------------------
 #p B2PLYPD3/Def2QZVP
 --------------------

 ------------
 cyanomethane
 ------------
 Symbolic Z-matrix:
 Charge =  0 Multiplicity = 1

                         Standard orientation:
 ---------------------------------------------------------------------
 Center     Atomic      Atomic             Coordinates (Angstroms)
 Number     Number       Type             X           Y           Z
 ---------------------------------------------------------------------
      1          6           0       -1.173076   -0.005722   -0.008986
      2          6           0        0.279334   -0.009154    0.018916
      3          7           0        1.437797    0.008422   -0.008410
      4          1           0       -1.555827   -0.452253    0.904759
      5          1           0       -1.538976   -0.551724   -0.849251
      6          1           0       -1.607324    1.034273   -0.056219
 ---------------------------------------------------------------------

 SCF Done:  E(RB2PLYPD3) =  -132.533698446     A.U. after   11 cycles
 E2(B2PLYPD3) =    -0.1809545521D+00 E(B2PLYPD3) =    -0.13271465299806D+03

 The electronic state is 1-A.
 Alpha  occ. eigenvalues --  -14.84395 -10.67197 -10.66453  -1.04003  -0.89187
 Alpha  occ. eigenvalues --   -0.60143  -0.54361  -0.52926  -0.44889  -0.39051
 Alpha  occ. eigenvalues --   -0.38881
 Alpha virt. eigenvalues --    0.03695   0.07380   0.07971   0.10147   0.11362
 Alpha virt. eigenvalues --    0.11562   0.15459   0.16194   0.16762   0.20067
 Alpha virt. eigenvalues --    0.20143   0.25469   0.32628   0.34187   0.35001

 Mulliken charges:
               1
     1  C   -0.078602
     2  C    0.001006
     3  N   -0.207475
     4  H    0.094575
     5  H    0.098643
     6  H    0.091853
 Sum of Mulliken charges =   0.00000

 Dipole moment (field-independent basis, Debye):
    X=             -4.1355    Y=             -0.0222    Z=              0.0150  Tot=              4.1356
 Quadrupole moment (field-independent basis, Debye-Ang):
   XX=            -20.8945   YY=            -17.8277   ZZ=            -17.7849
   XY=             -0.0784   XZ=              0.0265   YZ=              0.0289

 Normal termination of Gaussian 09 at Thu Aug 27 00:09:23 2020.
