 Gaussian 09, Revision D.01,
 Gaussian 09:  ES64L-G09RevD.01 24-Apr-2013

 --------------------
 #p B2PLYPD3/Def2QZVP
 --------------------

 ------------
 cyanomethane
 ------------
 Symbolic Z-matrix:
 Charge =  0 Multiplicity = 1

                         Standard orientation:
 ---------------------------------------------------------------------
 Center     Atomic      Atomic             Coordinates (Angstroms)
 Number     Number       Type             X           Y           Z
 ---------------------------------------------------------------------
      1          6           0       -1.160097    0.001902   -0.020662
      2          6           0        0.260632   -0.045363    0.012969
      3          7           0        1.435706    0.022497   -0.002626
      4          1           0       -1.575462    0.098734    1.014125
      5          1           0       -1.550543   -0.880085   -0.421643
      6          1           0       -1.527144    0.884638   -0.527935
 ---------------------------------------------------------------------

 SCF Done:  E(RB2PLYPD3) =  -132.529265983     A.U. after   12 cycles
 E2(B2PLYPD3) =    -0.1824864794D+00 E(B2PLYPD3) =    -0.13271175246225D+03

 The electronic state is 1-A.
 Alpha  occ. eigenvalues --  -14.84828 -10.66798 -10.66576  -1.03363  -0.90070
 Alpha  occ. eigenvalues --   -0.60891  -0.55472  -0.52898  -0.44963  -0.38575
 Alpha  occ. eigenvalues --   -0.38201
 Alpha virt. eigenvalues --    0.03694   0.06898   0.07723   0.10031   0.11129
 Alpha virt. eigenvalues --    0.11666   0.15601   0.16059   0.16712   0.20117
 Alpha virt. eigenvalues --    0.20294   0.26081   0.32783   0.34055   0.35296

 Mulliken charges:
               1
     1  C   -0.070910
     2  C    0.004549
     3  N   -0.216714
     4  H    0.087086
     5  H    0.098372
     6  H    0.097617
 Sum of Mulliken charges =   0.00000

 Dipole moment (field-independent basis, Debye):
    X=             -4.1560    Y=             -0.0175    Z=              0.0186  Tot=              4.1560
 Quadrupole moment (field-independent basis, Debye-Ang):
   XX=            -20.8890   YY=            -17.6829   ZZ=            -17.9530
   XY=             -0.1231   XZ=             -0.0643   YZ=              0.0238

 Normal termination of Gaussian 09 at Wed Aug 26 13:14:03 2020.
