 Gaussian 09, Revision D.01,
 Gaussian 09:  ES64L-G09RevD.01 24-Apr-2013

 --------------------
 #p B2PLYPD3/Def2QZVP
 --------------------

 ------------
 cyanomethane
 ------------
 Symbolic Z-matrix:
 Charge =  0 Multiplicity = 1

                         Standard orientation:
 ---------------------------------------------------------------------
 Center     Atomic      Atomic             Coordinates (Angstroms)
 Number     Number       Type             X           Y           Z
 ---------------------------------------------------------------------
      1          6           0        1.186964    0.010106    0.006285
      2          6           0       -0.276132   -0.003981   -0.021670
      3          7           0       -1.435891   -0.000767    0.008821
      4          1           0        1.505210    1.020218   -0.037568
      5          1           0        1.563423   -0.567352   -0.847989
      6          1           0        1.517612   -0.484250    0.916120
 ---------------------------------------------------------------------

 SCF Done:  E(RB2PLYPD3) =  -132.534383879     A.U. after   11 cycles
 E2(B2PLYPD3) =    -0.1808366599D+00 E(B2PLYPD3) =    -0.13271522053848D+03

 The electronic state is 1-A.
 Alpha  occ. eigenvalues --  -14.84258 -10.67005 -10.66335  -1.03822  -0.89410
 Alpha  occ. eigenvalues --   -0.59208  -0.55065  -0.53709  -0.44697  -0.38989
 Alpha  occ. eigenvalues --   -0.38830
 Alpha virt. eigenvalues --    0.03779   0.07870   0.08215   0.10185   0.11217
 Alpha virt. eigenvalues --    0.11428   0.15287   0.16004   0.16189   0.20098
 Alpha virt. eigenvalues --    0.20148   0.25225   0.32605   0.34329   0.35062

 Mulliken charges:
               1
     1  C   -0.089144
     2  C   -0.002599
     3  N   -0.209856
     4  H    0.104092
     5  H    0.097210
     6  H    0.100297
 Sum of Mulliken charges =   0.00000

 Dipole moment (field-independent basis, Debye):
    X=              4.1319    Y=             -0.0058    Z=             -0.0083  Tot=              4.1319
 Quadrupole moment (field-independent basis, Debye-Ang):
   XX=            -21.1482   YY=            -17.6513   ZZ=            -17.7810
   XY=             -0.0564   XZ=              0.0220   YZ=             -0.0162

 Normal termination of Gaussian 09 at Wed Aug 26 23:59:19 2020.
