 Gaussian 09, Revision D.01,
 Gaussian 09:  ES64L-G09RevD.01 24-Apr-2013

 --------------------
 #p B2PLYPD3/Def2QZVP
 --------------------

 ------------
 cyanomethane
 ------------
 Symbolic Z-matrix:
 Charge =  0 Multiplicity = 1

                         Standard orientation:
 ---------------------------------------------------------------------
 Center     Atomic      Atomic             Coordinates (Angstroms)
 Number     Number       Type             X           Y           Z
 ---------------------------------------------------------------------
      1          6           0        1.173323   -0.005399   -0.012349
      2          6           0       -0.273573   -0.004243    0.020489
      3          7           0       -1.429694    0.003077   -0.007507
      4          1           0        1.562588    0.016354    1.015526
      5          1           0        1.526613    0.921157   -0.509325
      6          1           0        1.520159   -0.901198   -0.502491
 ---------------------------------------------------------------------

 SCF Done:  E(RB2PLYPD3) =  -132.534681772     A.U. after   11 cycles
 E2(B2PLYPD3) =    -0.1807057997D+00 E(B2PLYPD3) =    -0.13271538757137D+03

 The electronic state is 1-A.
 Alpha  occ. eigenvalues --  -14.84172 -10.67228 -10.66200  -1.04027  -0.89324
 Alpha  occ. eigenvalues --   -0.59531  -0.54659  -0.53339  -0.44747  -0.39008
 Alpha  occ. eigenvalues --   -0.38814
 Alpha virt. eigenvalues --    0.03722   0.07691   0.07941   0.10156   0.11386
 Alpha virt. eigenvalues --    0.11610   0.15378   0.16000   0.16447   0.20078
 Alpha virt. eigenvalues --    0.20143   0.25540   0.32761   0.34057   0.34872

 Mulliken charges:
               1
     1  C   -0.089695
     2  C   -0.001058
     3  N   -0.207746
     4  H    0.095306
     5  H    0.099973
     6  H    0.103219
 Sum of Mulliken charges =   0.00000

 Dipole moment (field-independent basis, Debye):
    X=              4.1183    Y=             -0.0018    Z=              0.0267  Tot=              4.1184
 Quadrupole moment (field-independent basis, Debye-Ang):
   XX=            -21.1171   YY=            -17.6176   ZZ=            -17.8330
   XY=              0.0300   XZ=              0.0348   YZ=              0.0287

 Normal termination of Gaussian 09 at Thu Aug 27 00:01:23 2020.
