 Gaussian 09, Revision D.01,
 Gaussian 09:  ES64L-G09RevD.01 24-Apr-2013

 --------------------
 #p B2PLYPD3/Def2QZVP
 --------------------

 ------------
 cyanomethane
 ------------
 Symbolic Z-matrix:
 Charge =  0 Multiplicity = 1

                         Standard orientation:
 ---------------------------------------------------------------------
 Center     Atomic      Atomic             Coordinates (Angstroms)
 Number     Number       Type             X           Y           Z
 ---------------------------------------------------------------------
      1          6           0        1.175367    0.003794   -0.014014
      2          6           0       -0.267093   -0.012339    0.027073
      3          7           0       -1.428646    0.003691   -0.008058
      4          1           0        1.579727   -0.022025    1.014798
      5          1           0        1.461150    0.951553   -0.491706
      6          1           0        1.510005   -0.904096   -0.545039
 ---------------------------------------------------------------------

 SCF Done:  E(RB2PLYPD3) =  -132.533031209     A.U. after   11 cycles
 E2(B2PLYPD3) =    -0.1813018981D+00 E(B2PLYPD3) =    -0.13271433310726D+03

 The electronic state is 1-A.
 Alpha  occ. eigenvalues --  -14.84237 -10.67458 -10.66269  -1.03765  -0.89353
 Alpha  occ. eigenvalues --   -0.59100  -0.54787  -0.53453  -0.44681  -0.38748
 Alpha  occ. eigenvalues --   -0.38613
 Alpha virt. eigenvalues --    0.03671   0.07600   0.07789   0.10149   0.11380
 Alpha virt. eigenvalues --    0.11541   0.15220   0.15935   0.16090   0.20122
 Alpha virt. eigenvalues --    0.20172   0.25596   0.32639   0.33963   0.34530

 Mulliken charges:
               1
     1  C   -0.099064
     2  C   -0.000176
     3  N   -0.211524
     4  H    0.098123
     5  H    0.107398
     6  H    0.105242
 Sum of Mulliken charges =   0.00000

 Dipole moment (field-independent basis, Debye):
    X=              4.1133    Y=             -0.0037    Z=              0.0260  Tot=              4.1134
 Quadrupole moment (field-independent basis, Debye-Ang):
   XX=            -21.2949   YY=            -17.5660   ZZ=            -17.8416
   XY=             -0.0232   XZ=              0.0815   YZ=             -0.0025

 Normal termination of Gaussian 09 at Wed Aug 26 16:08:51 2020.
