 Gaussian 09, Revision D.01,
 Gaussian 09:  ES64L-G09RevD.01 24-Apr-2013

 --------------------
 #p B2PLYPD3/Def2QZVP
 --------------------

 ------------
 cyanomethane
 ------------
 Symbolic Z-matrix:
 Charge =  0 Multiplicity = 1

                         Standard orientation:
 ---------------------------------------------------------------------
 Center     Atomic      Atomic             Coordinates (Angstroms)
 Number     Number       Type             X           Y           Z
 ---------------------------------------------------------------------
      1          6           0       -1.178931   -0.000681    0.013361
      2          6           0        0.282264    0.002504   -0.022363
      3          7           0        1.426226   -0.002126    0.010948
      4          1           0       -1.542228   -0.007676    1.013857
      5          1           0       -1.540699   -0.897900   -0.526184
      6          1           0       -1.520652    0.909518   -0.510298
 ---------------------------------------------------------------------

 SCF Done:  E(RB2PLYPD3) =  -132.535239244     A.U. after   11 cycles
 E2(B2PLYPD3) =    -0.1796291734D+00 E(B2PLYPD3) =    -0.13271486841694D+03

 The electronic state is 1-A.
 Alpha  occ. eigenvalues --  -14.83833 -10.67223 -10.65880  -1.04467  -0.89109
 Alpha  occ. eigenvalues --   -0.59272  -0.54254  -0.53674  -0.44675  -0.39334
 Alpha  occ. eigenvalues --   -0.39199
 Alpha virt. eigenvalues --    0.03757   0.08098   0.08189   0.10179   0.11522
 Alpha virt. eigenvalues --    0.11613   0.15377   0.15934   0.16569   0.20049
 Alpha virt. eigenvalues --    0.20057   0.25307   0.32744   0.34162   0.34934

 Mulliken charges:
               1
     1  C   -0.092699
     2  C   -0.004103
     3  N   -0.201419
     4  H    0.101865
     5  H    0.097988
     6  H    0.098369
 Sum of Mulliken charges =   0.00000

 Dipole moment (field-independent basis, Debye):
    X=             -4.0994    Y=              0.0047    Z=             -0.0113  Tot=              4.0995
 Quadrupole moment (field-independent basis, Debye-Ang):
   XX=            -21.1300   YY=            -17.6747   ZZ=            -17.6932
   XY=              0.0245   XZ=             -0.0833   YZ=             -0.0027

 Normal termination of Gaussian 09 at Wed Aug 26 10:04:29 2020.
