 Gaussian 09, Revision D.01,
 Gaussian 09:  ES64L-G09RevD.01 24-Apr-2013

 --------------------
 #p B2PLYPD3/Def2QZVP
 --------------------

 ------------
 cyanomethane
 ------------
 Symbolic Z-matrix:
 Charge =  0 Multiplicity = 1

                         Standard orientation:
 ---------------------------------------------------------------------
 Center     Atomic      Atomic             Coordinates (Angstroms)
 Number     Number       Type             X           Y           Z
 ---------------------------------------------------------------------
      1          6           0        1.182486   -0.020440    0.013298
      2          6           0       -0.278468    0.024982   -0.048133
      3          7           0       -1.416256   -0.002257    0.026004
      4          1           0        1.521035   -0.046154    0.955352
      5          1           0        1.586372    0.914390   -0.425470
      6          1           0        1.382271   -0.879691   -0.502899
 ---------------------------------------------------------------------

 SCF Done:  E(RB2PLYPD3) =  -132.524482127     A.U. after   12 cycles
 E2(B2PLYPD3) =    -0.1788933641D+00 E(B2PLYPD3) =    -0.13270337549057D+03

 The electronic state is 1-A.
 Alpha  occ. eigenvalues --  -14.83626 -10.65733 -10.65618  -1.04616  -0.90426
 Alpha  occ. eigenvalues --   -0.59901  -0.56256  -0.53800  -0.44573  -0.39490
 Alpha  occ. eigenvalues --   -0.39313
 Alpha virt. eigenvalues --    0.03956   0.08226   0.09244   0.10182   0.11382
 Alpha virt. eigenvalues --    0.11654   0.15345   0.15862   0.16537   0.20025
 Alpha virt. eigenvalues --    0.20080   0.25444   0.32715   0.34919   0.35708

 Mulliken charges:
               1
     1  C   -0.084852
     2  C   -0.006033
     3  N   -0.201672
     4  H    0.096006
     5  H    0.091752
     6  H    0.104800
 Sum of Mulliken charges =   0.00000

 Dipole moment (field-independent basis, Debye):
    X=              4.0798    Y=             -0.0015    Z=             -0.0039  Tot=              4.0798
 Quadrupole moment (field-independent basis, Debye-Ang):
   XX=            -21.1129   YY=            -17.4298   ZZ=            -17.7342
   XY=              0.1368   XZ=              0.2742   YZ=              0.0853

 Normal termination of Gaussian 09 at Wed Aug 26 18:54:51 2020.
