 Gaussian 09, Revision D.01,
 Gaussian 09:  ES64L-G09RevD.01 24-Apr-2013

 --------------------
 #p B2PLYPD3/Def2QZVP
 --------------------

 ------------
 cyanomethane
 ------------
 Symbolic Z-matrix:
 Charge =  0 Multiplicity = 1

                         Standard orientation:
 ---------------------------------------------------------------------
 Center     Atomic      Atomic             Coordinates (Angstroms)
 Number     Number       Type             X           Y           Z
 ---------------------------------------------------------------------
      1          6           0        1.205653    0.015011    0.000202
      2          6           0       -0.271833   -0.019181   -0.046648
      3          7           0       -1.449816    0.024518    0.024756
      4          1           0        1.365787   -0.785144   -0.695068
      5          1           0        1.466219   -0.351260    1.004910
      6          1           0        1.713789    0.989804   -0.204463
 ---------------------------------------------------------------------

 SCF Done:  E(RB2PLYPD3) =  -132.521724196     A.U. after   13 cycles
 E2(B2PLYPD3) =    -0.1833550500D+00 E(B2PLYPD3) =    -0.13270507924595D+03

 The electronic state is 1-A.
 Alpha  occ. eigenvalues --  -14.84805 -10.67759 -10.67055  -1.02979  -0.89188
 Alpha  occ. eigenvalues --   -0.59005  -0.54416  -0.53412  -0.44665  -0.38480
 Alpha  occ. eigenvalues --   -0.38169
 Alpha virt. eigenvalues --    0.03493   0.06881   0.08390   0.09895   0.11017
 Alpha virt. eigenvalues --    0.11312   0.14515   0.15147   0.17214   0.20174
 Alpha virt. eigenvalues --    0.20349   0.25064   0.31989   0.33796   0.34840

 Mulliken charges:
               1
     1  C   -0.107019
     2  C    0.004869
     3  N   -0.219647
     4  H    0.108124
     5  H    0.104486
     6  H    0.109186
 Sum of Mulliken charges =   0.00000

 Dipole moment (field-independent basis, Debye):
    X=              4.1544    Y=             -0.0618    Z=             -0.0093  Tot=              4.1549
 Quadrupole moment (field-independent basis, Debye-Ang):
   XX=            -21.3012   YY=            -17.6565   ZZ=            -17.9555
   XY=              0.3409   XZ=              0.1944   YZ=              0.0173

 Normal termination of Gaussian 09 at Wed Aug 26 18:35:24 2020.
