 Gaussian 09, Revision D.01,
 Gaussian 09:  ES64L-G09RevD.01 24-Apr-2013

 --------------------
 #p B2PLYPD3/Def2QZVP
 --------------------

 ------------
 cyanomethane
 ------------
 Symbolic Z-matrix:
 Charge =  0 Multiplicity = 1

                         Standard orientation:
 ---------------------------------------------------------------------
 Center     Atomic      Atomic             Coordinates (Angstroms)
 Number     Number       Type             X           Y           Z
 ---------------------------------------------------------------------
      1          6           0        1.154109    0.018286    0.025165
      2          6           0       -0.265805   -0.010085   -0.056543
      3          7           0       -1.429181   -0.001985    0.012454
      4          1           0        1.537227    1.053482   -0.171413
      5          1           0        1.755323   -0.742866   -0.677273
      6          1           0        1.381897   -0.345925    0.949776
 ---------------------------------------------------------------------

 SCF Done:  E(RB2PLYPD3) =  -132.519715513     A.U. after   12 cycles
 E2(B2PLYPD3) =    -0.1819988219D+00 E(B2PLYPD3) =    -0.13270171433480D+03

 The electronic state is 1-A.
 Alpha  occ. eigenvalues --  -14.84528 -10.67427 -10.66513  -1.03875  -0.89691
 Alpha  occ. eigenvalues --   -0.60328  -0.55503  -0.51509  -0.44933  -0.38819
 Alpha  occ. eigenvalues --   -0.38321
 Alpha virt. eigenvalues --    0.03547   0.06180   0.07849   0.10178   0.11322
 Alpha virt. eigenvalues --    0.11958   0.15380   0.15901   0.17060   0.20062
 Alpha virt. eigenvalues --    0.20208   0.26144   0.31266   0.34048   0.35212

 Mulliken charges:
               1
     1  C   -0.089279
     2  C    0.006379
     3  N   -0.211745
     4  H    0.103272
     5  H    0.083349
     6  H    0.108024
 Sum of Mulliken charges =   0.00000

 Dipole moment (field-independent basis, Debye):
    X=              4.1145    Y=             -0.0135    Z=              0.0516  Tot=              4.1149
 Quadrupole moment (field-independent basis, Debye-Ang):
   XX=            -20.9505   YY=            -17.6083   ZZ=            -18.0552
   XY=             -0.1450   XZ=             -0.0253   YZ=             -0.1583

 Normal termination of Gaussian 09 at Wed Aug 26 19:12:41 2020.
