 Gaussian 09, Revision D.01,
 Gaussian 09:  ES64L-G09RevD.01 24-Apr-2013

 --------------------
 #p B2PLYPD3/Def2QZVP
 --------------------

 ------------
 cyanomethane
 ------------
 Symbolic Z-matrix:
 Charge =  0 Multiplicity = 1

                         Standard orientation:
 ---------------------------------------------------------------------
 Center     Atomic      Atomic             Coordinates (Angstroms)
 Number     Number       Type             X           Y           Z
 ---------------------------------------------------------------------
      1          6           0        1.170381    0.014581    0.005307
      2          6           0       -0.279842    0.007784   -0.010644
      3          7           0       -1.427824   -0.004969    0.007300
      4          1           0        1.576923   -0.368354    0.944233
      5          1           0        1.554342    0.968898   -0.195447
      6          1           0        1.520277   -0.699952   -0.767863
 ---------------------------------------------------------------------

 SCF Done:  E(RB2PLYPD3) =  -132.534487402     A.U. after   11 cycles
 E2(B2PLYPD3) =    -0.1798727253D+00 E(B2PLYPD3) =    -0.13271436012754D+03

 The electronic state is 1-A.
 Alpha  occ. eigenvalues --  -14.84008 -10.66822 -10.66042  -1.04393  -0.89466
 Alpha  occ. eigenvalues --   -0.60083  -0.54930  -0.53034  -0.44787  -0.39354
 Alpha  occ. eigenvalues --   -0.39023
 Alpha virt. eigenvalues --    0.03785   0.07791   0.08303   0.10173   0.11371
 Alpha virt. eigenvalues --    0.11768   0.15509   0.16080   0.16861   0.20020
 Alpha virt. eigenvalues --    0.20127   0.25490   0.32910   0.34053   0.35371

 Mulliken charges:
               1
     1  C   -0.079701
     2  C   -0.001536
     3  N   -0.203225
     4  H    0.093571
     5  H    0.099302
     6  H    0.091588
 Sum of Mulliken charges =   0.00000

 Dipole moment (field-independent basis, Debye):
    X=              4.1193    Y=             -0.0074    Z=             -0.0135  Tot=              4.1193
 Quadrupole moment (field-independent basis, Debye-Ang):
   XX=            -20.9331   YY=            -17.6501   ZZ=            -17.8138
   XY=             -0.0553   XZ=              0.0732   YZ=             -0.0371

 Normal termination of Gaussian 09 at Wed Aug 26 23:58:41 2020.
