 Gaussian 09, Revision D.01,
 Gaussian 09:  ES64L-G09RevD.01 24-Apr-2013

 --------------------
 #p B2PLYPD3/Def2QZVP
 --------------------

 ------------
 cyanomethane
 ------------
 Symbolic Z-matrix:
 Charge =  0 Multiplicity = 1

                         Standard orientation:
 ---------------------------------------------------------------------
 Center     Atomic      Atomic             Coordinates (Angstroms)
 Number     Number       Type             X           Y           Z
 ---------------------------------------------------------------------
      1          6           0        1.173177   -0.014211   -0.005332
      2          6           0       -0.286218    0.024967   -0.031370
      3          7           0       -1.438499   -0.014863    0.020589
      4          1           0        1.641269   -0.290798    0.977346
      5          1           0        1.527928    1.005176   -0.189062
      6          1           0        1.578548   -0.674870   -0.712193
 ---------------------------------------------------------------------

 SCF Done:  E(RB2PLYPD3) =  -132.531614424     A.U. after   12 cycles
 E2(B2PLYPD3) =    -0.1806214552D+00 E(B2PLYPD3) =    -0.13271223587914D+03

 The electronic state is 1-A.
 Alpha  occ. eigenvalues --  -14.84355 -10.67080 -10.66432  -1.04239  -0.89109
 Alpha  occ. eigenvalues --   -0.60510  -0.54520  -0.52331  -0.44950  -0.39309
 Alpha  occ. eigenvalues --   -0.38987
 Alpha virt. eigenvalues --    0.03642   0.07309   0.08227   0.10097   0.11288
 Alpha virt. eigenvalues --    0.11689   0.15484   0.16085   0.17323   0.19997
 Alpha virt. eigenvalues --    0.20198   0.25447   0.32746   0.34009   0.35237

 Mulliken charges:
               1
     1  C   -0.073042
     2  C    0.002859
     3  N   -0.204561
     4  H    0.087705
     5  H    0.090680
     6  H    0.096359
 Sum of Mulliken charges =   0.00000

 Dipole moment (field-independent basis, Debye):
    X=              4.1308    Y=              0.0299    Z=             -0.0296  Tot=              4.1310
 Quadrupole moment (field-independent basis, Debye-Ang):
   XX=            -20.7500   YY=            -17.7752   ZZ=            -17.8973
   XY=             -0.1182   XZ=              0.1817   YZ=              0.0734

 Normal termination of Gaussian 09 at Wed Aug 26 13:57:41 2020.
