 Gaussian 09, Revision D.01,
 Gaussian 09:  ES64L-G09RevD.01 24-Apr-2013

 --------------------
 #p B2PLYPD3/Def2QZVP
 --------------------

 ------------
 cyanomethane
 ------------
 Symbolic Z-matrix:
 Charge =  0 Multiplicity = 1

                         Standard orientation:
 ---------------------------------------------------------------------
 Center     Atomic      Atomic             Coordinates (Angstroms)
 Number     Number       Type             X           Y           Z
 ---------------------------------------------------------------------
      1          6           0       -1.179051    0.002393    0.000190
      2          6           0        0.282669   -0.002602   -0.015659
      3          7           0        1.436779   -0.001463    0.003914
      4          1           0       -1.552589    0.939510   -0.400022
      5          1           0       -1.503841   -0.094142    1.032447
      6          1           0       -1.622731   -0.833873   -0.567010
 ---------------------------------------------------------------------

 SCF Done:  E(RB2PLYPD3) =  -132.535280607     A.U. after   12 cycles
 E2(B2PLYPD3) =    -0.1804876215D+00 E(B2PLYPD3) =    -0.13271576822812D+03

 The electronic state is 1-A.
 Alpha  occ. eigenvalues --  -14.84221 -10.67237 -10.66312  -1.04136  -0.89069
 Alpha  occ. eigenvalues --   -0.59768  -0.54030  -0.53456  -0.44811  -0.39137
 Alpha  occ. eigenvalues --   -0.39057
 Alpha virt. eigenvalues --    0.03743   0.07716   0.08040   0.10203   0.11402
 Alpha virt. eigenvalues --    0.11522   0.15365   0.16144   0.16696   0.20068
 Alpha virt. eigenvalues --    0.20102   0.25272   0.32609   0.34518   0.34790

 Mulliken charges:
               1
     1  C   -0.082926
     2  C   -0.000851
     3  N   -0.205639
     4  H    0.097501
     5  H    0.097168
     6  H    0.094746
 Sum of Mulliken charges =   0.00000

 Dipole moment (field-independent basis, Debye):
    X=             -4.1329    Y=              0.0054    Z=              0.0101  Tot=              4.1329
 Quadrupole moment (field-independent basis, Debye-Ang):
   XX=            -20.9510   YY=            -17.7494   ZZ=            -17.8024
   XY=              0.0460   XZ=              0.0156   YZ=             -0.0175

 Normal termination of Gaussian 09 at Wed Aug 26 10:02:37 2020.
