 Gaussian 09, Revision D.01,
 Gaussian 09:  ES64L-G09RevD.01 24-Apr-2013

 --------------------
 #p B2PLYPD3/Def2QZVP
 --------------------

 ------------
 cyanomethane
 ------------
 Symbolic Z-matrix:
 Charge =  0 Multiplicity = 1

                         Standard orientation:
 ---------------------------------------------------------------------
 Center     Atomic      Atomic             Coordinates (Angstroms)
 Number     Number       Type             X           Y           Z
 ---------------------------------------------------------------------
      1          6           0        1.177989   -0.005858   -0.008111
      2          6           0       -0.284144    0.008764   -0.035183
      3          7           0       -1.421958   -0.000694    0.024298
      4          1           0        1.585873   -0.261698    0.977168
      5          1           0        1.555328    0.976184   -0.227715
      6          1           0        1.449429   -0.727067   -0.659772
 ---------------------------------------------------------------------

 SCF Done:  E(RB2PLYPD3) =  -132.530306158     A.U. after   12 cycles
 E2(B2PLYPD3) =    -0.1789051298D+00 E(B2PLYPD3) =    -0.13270921128783D+03

 The electronic state is 1-A.
 Alpha  occ. eigenvalues --  -14.83703 -10.66189 -10.65710  -1.04693  -0.89897
 Alpha  occ. eigenvalues --   -0.59586  -0.56234  -0.53071  -0.44674  -0.39627
 Alpha  occ. eigenvalues --   -0.39314
 Alpha virt. eigenvalues --    0.03830   0.07996   0.09180   0.10228   0.11312
 Alpha virt. eigenvalues --    0.11737   0.15478   0.16015   0.16784   0.19964
 Alpha virt. eigenvalues --    0.20106   0.25332   0.33051   0.34397   0.35784

 Mulliken charges:
               1
     1  C   -0.080802
     2  C   -0.005999
     3  N   -0.199150
     4  H    0.088654
     5  H    0.095508
     6  H    0.101789
 Sum of Mulliken charges =   0.00000

 Dipole moment (field-independent basis, Debye):
    X=              4.1017    Y=             -0.0071    Z=             -0.0254  Tot=              4.1018
 Quadrupole moment (field-independent basis, Debye-Ang):
   XX=            -20.9574   YY=            -17.5398   ZZ=            -17.7643
   XY=              0.0330   XZ=              0.2595   YZ=              0.0820

 Normal termination of Gaussian 09 at Wed Aug 26 13:40:07 2020.
