 Gaussian 09, Revision D.01,
 Gaussian 09:  ES64L-G09RevD.01 24-Apr-2013

 --------------------
 #p B2PLYPD3/Def2QZVP
 --------------------

 ------------
 cyanomethane
 ------------
 Symbolic Z-matrix:
 Charge =  0 Multiplicity = 1

                         Standard orientation:
 ---------------------------------------------------------------------
 Center     Atomic      Atomic             Coordinates (Angstroms)
 Number     Number       Type             X           Y           Z
 ---------------------------------------------------------------------
      1          6           0        1.176933    0.013424   -0.003871
      2          6           0       -0.279025    0.008082   -0.002956
      3          7           0       -1.434639   -0.007046    0.000758
      4          1           0        1.534676    1.033830   -0.035489
      5          1           0        1.575139   -0.600078   -0.851073
      6          1           0        1.545209   -0.513466    0.922220
 ---------------------------------------------------------------------

 SCF Done:  E(RB2PLYPD3) =  -132.533297677     A.U. after   11 cycles
 E2(B2PLYPD3) =    -0.1808533983D+00 E(B2PLYPD3) =    -0.13271415107558D+03

 The electronic state is 1-A.
 Alpha  occ. eigenvalues --  -14.84214 -10.67730 -10.66284  -1.04061  -0.88842
 Alpha  occ. eigenvalues --   -0.59403  -0.54576  -0.52519  -0.44780  -0.39115
 Alpha  occ. eigenvalues --   -0.38798
 Alpha virt. eigenvalues --    0.03633   0.07395   0.07922   0.10165   0.11290
 Alpha virt. eigenvalues --    0.11720   0.15326   0.16088   0.16500   0.20024
 Alpha virt. eigenvalues --    0.20160   0.25348   0.32531   0.33646   0.34899

 Mulliken charges:
               1
     1  C   -0.092100
     2  C   -0.000549
     3  N   -0.206223
     4  H    0.105110
     5  H    0.097595
     6  H    0.096167
 Sum of Mulliken charges =   0.00000

 Dipole moment (field-independent basis, Debye):
    X=              4.1199    Y=             -0.0084    Z=              0.0051  Tot=              4.1200
 Quadrupole moment (field-independent basis, Debye-Ang):
   XX=            -21.1025   YY=            -17.6218   ZZ=            -17.9086
   XY=             -0.1139   XZ=             -0.0002   YZ=              0.0057

 Normal termination of Gaussian 09 at Wed Aug 26 10:20:34 2020.
