 Gaussian 09, Revision D.01,
 Gaussian 09:  ES64L-G09RevD.01 24-Apr-2013

 --------------------
 #p B2PLYPD3/Def2QZVP
 --------------------

 ------------
 cyanomethane
 ------------
 Symbolic Z-matrix:
 Charge =  0 Multiplicity = 1

                         Standard orientation:
 ---------------------------------------------------------------------
 Center     Atomic      Atomic             Coordinates (Angstroms)
 Number     Number       Type             X           Y           Z
 ---------------------------------------------------------------------
      1          6           0       -1.169130   -0.003473   -0.007809
      2          6           0        0.277387    0.003965    0.016457
      3          7           0        1.432474    0.001237   -0.007670
      4          1           0       -1.547304   -0.346094    0.958786
      5          1           0       -1.531854   -0.675604   -0.770000
      6          1           0       -1.597694    1.010083   -0.186987
 ---------------------------------------------------------------------

 SCF Done:  E(RB2PLYPD3) =  -132.534880850     A.U. after   11 cycles
 E2(B2PLYPD3) =    -0.1806374978D+00 E(B2PLYPD3) =    -0.13271551834814D+03

 The electronic state is 1-A.
 Alpha  occ. eigenvalues --  -14.84245 -10.67185 -10.66278  -1.04135  -0.89247
 Alpha  occ. eigenvalues --   -0.60051  -0.54070  -0.53337  -0.44847  -0.39045
 Alpha  occ. eigenvalues --   -0.38953
 Alpha virt. eigenvalues --    0.03729   0.07545   0.07897   0.10150   0.11503
 Alpha virt. eigenvalues --    0.11567   0.15492   0.16164   0.16707   0.20088
 Alpha virt. eigenvalues --    0.20108   0.25567   0.32753   0.34338   0.34793

 Mulliken charges:
               1
     1  C   -0.081610
     2  C    0.000179
     3  N   -0.206186
     4  H    0.094667
     5  H    0.098473
     6  H    0.094476
 Sum of Mulliken charges =   0.00000

 Dipole moment (field-independent basis, Debye):
    X=             -4.1258    Y=             -0.0135    Z=              0.0169  Tot=              4.1259
 Quadrupole moment (field-independent basis, Debye-Ang):
   XX=            -20.9441   YY=            -17.7560   ZZ=            -17.7941
   XY=             -0.0319   XZ=              0.0242   YZ=              0.0250

 Normal termination of Gaussian 09 at Wed Aug 26 10:23:37 2020.
