 Gaussian 09, Revision D.01,
 Gaussian 09:  ES64L-G09RevD.01 24-Apr-2013

 --------------------
 #p B2PLYPD3/Def2QZVP
 --------------------

 ------------
 cyanomethane
 ------------
 Symbolic Z-matrix:
 Charge =  0 Multiplicity = 1

                         Standard orientation:
 ---------------------------------------------------------------------
 Center     Atomic      Atomic             Coordinates (Angstroms)
 Number     Number       Type             X           Y           Z
 ---------------------------------------------------------------------
      1          6           0        1.160907   -0.007182    0.010414
      2          6           0       -0.281794    0.014101   -0.040303
      3          7           0       -1.422703   -0.011232    0.024354
      4          1           0        1.621461   -0.012930    1.007849
      5          1           0        1.479829    0.933277   -0.475382
      6          1           0        1.582952   -0.883233   -0.523609
 ---------------------------------------------------------------------

 SCF Done:  E(RB2PLYPD3) =  -132.532756438     A.U. after   12 cycles
 E2(B2PLYPD3) =    -0.1798544979D+00 E(B2PLYPD3) =    -0.13271261093605D+03

 The electronic state is 1-A.
 Alpha  occ. eigenvalues --  -14.83927 -10.67348 -10.65927  -1.04671  -0.89045
 Alpha  occ. eigenvalues --   -0.60214  -0.53816  -0.52801  -0.44846  -0.39308
 Alpha  occ. eigenvalues --   -0.39161
 Alpha virt. eigenvalues --    0.03668   0.07385   0.08105   0.10076   0.11656
 Alpha virt. eigenvalues --    0.11814   0.15519   0.15898   0.17358   0.19982
 Alpha virt. eigenvalues --    0.20156   0.25781   0.32969   0.34110   0.34654

 Mulliken charges:
               1
     1  C   -0.086140
     2  C    0.001256
     3  N   -0.199581
     4  H    0.094404
     5  H    0.094697
     6  H    0.095364
 Sum of Mulliken charges =   0.00000

 Dipole moment (field-independent basis, Debye):
    X=              4.0897    Y=              0.0275    Z=             -0.0273  Tot=              4.0899
 Quadrupole moment (field-independent basis, Debye-Ang):
   XX=            -20.9175   YY=            -17.6624   ZZ=            -17.8559
   XY=             -0.1210   XZ=              0.2373   YZ=              0.0061

 Normal termination of Gaussian 09 at Wed Aug 26 12:27:18 2020.
