 Gaussian 09, Revision D.01,
 Gaussian 09:  ES64L-G09RevD.01 24-Apr-2013

 --------------------
 #p B2PLYPD3/Def2QZVP
 --------------------

 ------------
 cyanomethane
 ------------
 Symbolic Z-matrix:
 Charge =  0 Multiplicity = 1

                         Standard orientation:
 ---------------------------------------------------------------------
 Center     Atomic      Atomic             Coordinates (Angstroms)
 Number     Number       Type             X           Y           Z
 ---------------------------------------------------------------------
      1          6           0       -1.194891   -0.011148    0.006341
      2          6           0        0.286577    0.035387    0.006417
      3          7           0        1.434102   -0.013506   -0.006631
      4          1           0       -1.481415   -0.266039    0.960791
      5          1           0       -1.516602   -0.768661   -0.701249
      6          1           0       -1.590814    0.983806   -0.289671
 ---------------------------------------------------------------------

 SCF Done:  E(RB2PLYPD3) =  -132.532797262     A.U. after   12 cycles
 E2(B2PLYPD3) =    -0.1797916358D+00 E(B2PLYPD3) =    -0.13271258889762D+03

 The electronic state is 1-A.
 Alpha  occ. eigenvalues --  -14.83950 -10.66939 -10.66046  -1.04245  -0.89255
 Alpha  occ. eigenvalues --   -0.58857  -0.55097  -0.53737  -0.44629  -0.39342
 Alpha  occ. eigenvalues --   -0.39223
 Alpha virt. eigenvalues --    0.03781   0.08051   0.08763   0.10228   0.11280
 Alpha virt. eigenvalues --    0.11419   0.15221   0.15970   0.16328   0.20033
 Alpha virt. eigenvalues --    0.20081   0.24940   0.32466   0.34506   0.35173

 Mulliken charges:
               1
     1  C   -0.091098
     2  C   -0.005852
     3  N   -0.203784
     4  H    0.103546
     5  H    0.099988
     6  H    0.097201
 Sum of Mulliken charges =   0.00000

 Dipole moment (field-independent basis, Debye):
    X=             -4.1189    Y=              0.0025    Z=              0.0206  Tot=              4.1189
 Quadrupole moment (field-independent basis, Debye-Ang):
   XX=            -21.1251   YY=            -17.6455   ZZ=            -17.7177
   XY=              0.0455   XZ=              0.0577   YZ=             -0.0153

 Normal termination of Gaussian 09 at Wed Aug 26 12:18:27 2020.
