 Gaussian 09, Revision D.01,
 Gaussian 09:  ES64L-G09RevD.01 24-Apr-2013

 --------------------
 #p B2PLYPD3/Def2QZVP
 --------------------

 ------------
 cyanomethane
 ------------
 Symbolic Z-matrix:
 Charge =  0 Multiplicity = 1

                         Standard orientation:
 ---------------------------------------------------------------------
 Center     Atomic      Atomic             Coordinates (Angstroms)
 Number     Number       Type             X           Y           Z
 ---------------------------------------------------------------------
      1          6           0        1.157409    0.013279   -0.019778
      2          6           0       -0.282320    0.022996   -0.030628
      3          7           0       -1.433799   -0.018925    0.027765
      4          1           0        1.744182   -0.362219    0.943843
      5          1           0        1.501324    0.974505   -0.138492
      6          1           0        1.540556   -0.697463   -0.697269
 ---------------------------------------------------------------------

 SCF Done:  E(RB2PLYPD3) =  -132.520458844     A.U. after   12 cycles
 E2(B2PLYPD3) =    -0.1808808412D+00 E(B2PLYPD3) =    -0.13270133968512D+03

 The electronic state is 1-A.
 Alpha  occ. eigenvalues --  -14.84406 -10.66837 -10.66396  -1.04369  -0.89618
 Alpha  occ. eigenvalues --   -0.61109  -0.56370  -0.50499  -0.45047  -0.39451
 Alpha  occ. eigenvalues --   -0.38616
 Alpha virt. eigenvalues --    0.03297   0.06654   0.08555   0.10084   0.11091
 Alpha virt. eigenvalues --    0.12102   0.15572   0.16538   0.17370   0.19884
 Alpha virt. eigenvalues --    0.20370   0.25747   0.32024   0.33788   0.35973

 Mulliken charges:
               1
     1  C   -0.067715
     2  C    0.004704
     3  N   -0.203718
     4  H    0.074710
     5  H    0.098154
     6  H    0.093865
 Sum of Mulliken charges =   0.00000

 Dipole moment (field-independent basis, Debye):
    X=              4.1283    Y=              0.0125    Z=             -0.0591  Tot=              4.1287
 Quadrupole moment (field-independent basis, Debye-Ang):
   XX=            -20.5785   YY=            -17.6060   ZZ=            -18.1715
   XY=             -0.2396   XZ=              0.2840   YZ=              0.0976

 Normal termination of Gaussian 09 at Wed Aug 26 23:23:56 2020.
