 Gaussian 09, Revision D.01,
 Gaussian 09:  ES64L-G09RevD.01 24-Apr-2013

 --------------------
 #p B2PLYPD3/Def2QZVP
 --------------------

 ------------
 cyanomethane
 ------------
 Symbolic Z-matrix:
 Charge =  0 Multiplicity = 1

                         Standard orientation:
 ---------------------------------------------------------------------
 Center     Atomic      Atomic             Coordinates (Angstroms)
 Number     Number       Type             X           Y           Z
 ---------------------------------------------------------------------
      1          6           0        1.180511   -0.013463    0.016678
      2          6           0       -0.275508    0.015730   -0.038617
      3          7           0       -1.423760   -0.005216    0.022072
      4          1           0        1.554907   -0.172597    1.000211
      5          1           0        1.516305    1.002146   -0.357605
      6          1           0        1.465090   -0.806643   -0.665477
 ---------------------------------------------------------------------

 SCF Done:  E(RB2PLYPD3) =  -132.532241373     A.U. after   12 cycles
 E2(B2PLYPD3) =    -0.1802158934D+00 E(B2PLYPD3) =    -0.13271245726648D+03

 The electronic state is 1-A.
 Alpha  occ. eigenvalues --  -14.83914 -10.67276 -10.65949  -1.04224  -0.89274
 Alpha  occ. eigenvalues --   -0.59134  -0.54715  -0.53492  -0.44628  -0.39137
 Alpha  occ. eigenvalues --   -0.38936
 Alpha virt. eigenvalues --    0.03715   0.07767   0.08342   0.10091   0.11441
 Alpha virt. eigenvalues --    0.11616   0.15344   0.15460   0.16628   0.20083
 Alpha virt. eigenvalues --    0.20107   0.25461   0.32531   0.33966   0.34926

 Mulliken charges:
               1
     1  C   -0.100671
     2  C   -0.001944
     3  N   -0.205475
     4  H    0.104740
     5  H    0.098477
     6  H    0.104873
 Sum of Mulliken charges =   0.00000

 Dipole moment (field-independent basis, Debye):
    X=              4.0845    Y=              0.0015    Z=             -0.0244  Tot=              4.0846
 Quadrupole moment (field-independent basis, Debye-Ang):
   XX=            -21.2987   YY=            -17.6295   ZZ=            -17.6854
   XY=             -0.0110   XZ=              0.2035   YZ=              0.0353

 Normal termination of Gaussian 09 at Wed Aug 26 12:41:13 2020.
