 Gaussian 09, Revision D.01,
 Gaussian 09:  ES64L-G09RevD.01 24-Apr-2013

 --------------------
 #p B2PLYPD3/Def2QZVP
 --------------------

 ------------
 cyanomethane
 ------------
 Symbolic Z-matrix:
 Charge =  0 Multiplicity = 1

                         Standard orientation:
 ---------------------------------------------------------------------
 Center     Atomic      Atomic             Coordinates (Angstroms)
 Number     Number       Type             X           Y           Z
 ---------------------------------------------------------------------
      1          6           0        1.183025   -0.031806   -0.018326
      2          6           0       -0.270708   -0.047606    0.040379
      3          7           0       -1.459878    0.028407   -0.009236
      4          1           0        1.505753   -0.774865   -0.654079
      5          1           0        1.711396   -0.015353    1.036884
      6          1           0        1.528094    1.067842   -0.450470
 ---------------------------------------------------------------------

 SCF Done:  E(RB2PLYPD3) =  -132.509764217     A.U. after   12 cycles
 E2(B2PLYPD3) =    -0.1850283128D+00 E(B2PLYPD3) =    -0.13269479252991D+03

 The electronic state is 1-A.
 Alpha  occ. eigenvalues --  -14.85412 -10.68894 -10.67566  -1.02725  -0.88421
 Alpha  occ. eigenvalues --   -0.59840  -0.55089  -0.50177  -0.45046  -0.38444
 Alpha  occ. eigenvalues --   -0.37629
 Alpha virt. eigenvalues --    0.02899   0.05526   0.07337   0.10082   0.10708
 Alpha virt. eigenvalues --    0.11617   0.15126   0.15795   0.16776   0.20081
 Alpha virt. eigenvalues --    0.20315   0.25427   0.31183   0.31486   0.35000

 Mulliken charges:
               1
     1  C   -0.099589
     2  C    0.011566
     3  N   -0.219470
     4  H    0.115900
     5  H    0.098177
     6  H    0.093417
 Sum of Mulliken charges =   0.00000

 Dipole moment (field-independent basis, Debye):
    X=              4.1521    Y=             -0.0151    Z=              0.0035  Tot=              4.1521
 Quadrupole moment (field-independent basis, Debye-Ang):
   XX=            -21.0988   YY=            -17.9595   ZZ=            -17.9970
   XY=              0.2174   XZ=              0.1118   YZ=              0.2146

 Normal termination of Gaussian 09 at Wed Aug 26 22:44:10 2020.
