 Gaussian 09, Revision D.01,
 Gaussian 09:  ES64L-G09RevD.01 24-Apr-2013

 --------------------
 #p B2PLYPD3/Def2QZVP
 --------------------

 ------------
 cyanomethane
 ------------
 Symbolic Z-matrix:
 Charge =  0 Multiplicity = 1

                         Standard orientation:
 ---------------------------------------------------------------------
 Center     Atomic      Atomic             Coordinates (Angstroms)
 Number     Number       Type             X           Y           Z
 ---------------------------------------------------------------------
      1          6           0       -1.185214    0.016066    0.011503
      2          6           0        0.280171    0.004562    0.016312
      3          7           0        1.444165   -0.004498   -0.013218
      4          1           0       -1.514734   -0.248393    0.975747
      5          1           0       -1.594879   -0.812062   -0.706135
      6          1           0       -1.569282    0.968173   -0.343975
 ---------------------------------------------------------------------

 SCF Done:  E(RB2PLYPD3) =  -132.529406912     A.U. after   12 cycles
 E2(B2PLYPD3) =    -0.1815790169D+00 E(B2PLYPD3) =    -0.13271098592901D+03

 The electronic state is 1-A.
 Alpha  occ. eigenvalues --  -14.84516 -10.67653 -10.66626  -1.03723  -0.88912
 Alpha  occ. eigenvalues --   -0.59515  -0.55204  -0.52047  -0.44835  -0.39033
 Alpha  occ. eigenvalues --   -0.38621
 Alpha virt. eigenvalues --    0.03536   0.07085   0.08151   0.10163   0.11069
 Alpha virt. eigenvalues --    0.11596   0.15270   0.16001   0.16583   0.20052
 Alpha virt. eigenvalues --    0.20187   0.25172   0.32042   0.33468   0.35352

 Mulliken charges:
               1
     1  C   -0.088836
     2  C    0.001042
     3  N   -0.209961
     4  H    0.103690
     5  H    0.090529
     6  H    0.103536
 Sum of Mulliken charges =   0.00000

 Dipole moment (field-independent basis, Debye):
    X=             -4.1387    Y=              0.0007    Z=              0.0308  Tot=              4.1388
 Quadrupole moment (field-independent basis, Debye-Ang):
   XX=            -21.0510   YY=            -17.7766   ZZ=            -17.8436
   XY=              0.0561   XZ=              0.1102   YZ=             -0.1132

 Normal termination of Gaussian 09 at Wed Aug 26 12:30:56 2020.
