 Gaussian 09, Revision D.01,
 Gaussian 09:  ES64L-G09RevD.01 24-Apr-2013

 --------------------
 #p B2PLYPD3/Def2QZVP
 --------------------

 ------------
 cyanomethane
 ------------
 Symbolic Z-matrix:
 Charge =  0 Multiplicity = 1

                         Standard orientation:
 ---------------------------------------------------------------------
 Center     Atomic      Atomic             Coordinates (Angstroms)
 Number     Number       Type             X           Y           Z
 ---------------------------------------------------------------------
      1          6           0        1.176714    0.002174    0.002722
      2          6           0       -0.271019   -0.033922    0.024510
      3          7           0       -1.429956    0.022914   -0.013042
      4          1           0        1.503208   -0.285380    0.933462
      5          1           0        1.597606    0.997615   -0.245574
      6          1           0        1.474704   -0.682144   -0.759992
 ---------------------------------------------------------------------

 SCF Done:  E(RB2PLYPD3) =  -132.530654159     A.U. after   12 cycles
 E2(B2PLYPD3) =    -0.1808287586D+00 E(B2PLYPD3) =    -0.13271148291729D+03

 The electronic state is 1-A.
 Alpha  occ. eigenvalues --  -14.84294 -10.66386 -10.66293  -1.03867  -0.90032
 Alpha  occ. eigenvalues --   -0.59780  -0.55734  -0.53608  -0.44757  -0.38955
 Alpha  occ. eigenvalues --   -0.38770
 Alpha virt. eigenvalues --    0.03735   0.07545   0.08678   0.10118   0.11186
 Alpha virt. eigenvalues --    0.11524   0.15502   0.15612   0.16765   0.20103
 Alpha virt. eigenvalues --    0.20194   0.25596   0.32957   0.34398   0.35253

 Mulliken charges:
               1
     1  C   -0.082441
     2  C   -0.000995
     3  N   -0.210607
     4  H    0.100541
     5  H    0.094620
     6  H    0.098883
 Sum of Mulliken charges =   0.00000

 Dipole moment (field-independent basis, Debye):
    X=              4.1250    Y=             -0.0424    Z=              0.0165  Tot=              4.1253
 Quadrupole moment (field-independent basis, Debye-Ang):
   XX=            -21.0412   YY=            -17.7462   ZZ=            -17.6679
   XY=              0.1952   XZ=             -0.0701   YZ=              0.0075

 Normal termination of Gaussian 09 at Wed Aug 26 16:01:56 2020.
