 Gaussian 09, Revision D.01,
 Gaussian 09:  ES64L-G09RevD.01 24-Apr-2013

 --------------------
 #p B2PLYPD3/Def2QZVP
 --------------------

 ------------
 cyanomethane
 ------------
 Symbolic Z-matrix:
 Charge =  0 Multiplicity = 1

                         Standard orientation:
 ---------------------------------------------------------------------
 Center     Atomic      Atomic             Coordinates (Angstroms)
 Number     Number       Type             X           Y           Z
 ---------------------------------------------------------------------
      1          6           0        1.178997    0.001027    0.000759
      2          6           0       -0.270386    0.001689   -0.019288
      3          7           0       -1.435038   -0.001293    0.006321
      4          1           0        1.541398    0.982436   -0.259934
      5          1           0        1.568950   -0.745542   -0.668957
      6          1           0        1.483252   -0.244139    0.995822
 ---------------------------------------------------------------------

 SCF Done:  E(RB2PLYPD3) =  -132.534321212     A.U. after   12 cycles
 E2(B2PLYPD3) =    -0.1811568689D+00 E(B2PLYPD3) =    -0.13271547808095D+03

 The electronic state is 1-A.
 Alpha  occ. eigenvalues --  -14.84398 -10.66648 -10.66448  -1.03686  -0.89797
 Alpha  occ. eigenvalues --   -0.59783  -0.54665  -0.54364  -0.44762  -0.38816
 Alpha  occ. eigenvalues --   -0.38724
 Alpha virt. eigenvalues --    0.03830   0.07883   0.07982   0.10167   0.11254
 Alpha virt. eigenvalues --    0.11416   0.15430   0.15971   0.16348   0.20131
 Alpha virt. eigenvalues --    0.20182   0.25470   0.32759   0.34670   0.34953

 Mulliken charges:
               1
     1  C   -0.082012
     2  C   -0.000847
     3  N   -0.212362
     4  H    0.098988
     5  H    0.097505
     6  H    0.098728
 Sum of Mulliken charges =   0.00000

 Dipole moment (field-independent basis, Debye):
    X=              4.1433    Y=             -0.0049    Z=              0.0081  Tot=              4.1433
 Quadrupole moment (field-independent basis, Debye-Ang):
   XX=            -21.0592   YY=            -17.6803   ZZ=            -17.7841
   XY=             -0.0291   XZ=              0.0073   YZ=             -0.0034

 Normal termination of Gaussian 09 at Wed Aug 26 23:59:51 2020.
