 Gaussian 09, Revision D.01,
 Gaussian 09:  ES64L-G09RevD.01 24-Apr-2013

 --------------------
 #p B2PLYPD3/Def2QZVP
 --------------------

 ------------
 cyanomethane
 ------------
 Symbolic Z-matrix:
 Charge =  0 Multiplicity = 1

                         Standard orientation:
 ---------------------------------------------------------------------
 Center     Atomic      Atomic             Coordinates (Angstroms)
 Number     Number       Type             X           Y           Z
 ---------------------------------------------------------------------
      1          6           0       -1.173511    0.001704    0.021981
      2          6           0        0.305346    0.045088    0.011404
      3          7           0        1.439486   -0.015486   -0.007873
      4          1           0       -1.589816   -0.449105    0.880452
      5          1           0       -1.533256   -0.690686   -0.834384
      6          1           0       -1.744337    0.967448   -0.191272
 ---------------------------------------------------------------------

 SCF Done:  E(RB2PLYPD3) =  -132.526923919     A.U. after   12 cycles
 E2(B2PLYPD3) =    -0.1795989627D+00 E(B2PLYPD3) =    -0.13270652288136D+03

 The electronic state is 1-A.
 Alpha  occ. eigenvalues --  -14.83986 -10.68088 -10.66198  -1.05041  -0.88015
 Alpha  occ. eigenvalues --   -0.60391  -0.53414  -0.51174  -0.44985  -0.39921
 Alpha  occ. eigenvalues --   -0.39387
 Alpha virt. eigenvalues --    0.03490   0.07249   0.08070   0.10240   0.11463
 Alpha virt. eigenvalues --    0.12009   0.15290   0.16453   0.17789   0.19995
 Alpha virt. eigenvalues --    0.20029   0.24992   0.32150   0.33122   0.35372

 Mulliken charges:
               1
     1  C   -0.079516
     2  C    0.004933
     3  N   -0.193674
     4  H    0.095981
     5  H    0.083169
     6  H    0.089106
 Sum of Mulliken charges =   0.00000

 Dipole moment (field-independent basis, Debye):
    X=             -4.1141    Y=             -0.0183    Z=              0.0061  Tot=              4.1141
 Quadrupole moment (field-independent basis, Debye-Ang):
   XX=            -20.6002   YY=            -17.8709   ZZ=            -17.9463
   XY=              0.0632   XZ=              0.0699   YZ=             -0.1002

 Normal termination of Gaussian 09 at Wed Aug 26 20:44:40 2020.
