 Gaussian 09, Revision D.01,
 Gaussian 09:  ES64L-G09RevD.01 24-Apr-2013

 --------------------
 #p B2PLYPD3/Def2QZVP
 --------------------

 ------------
 cyanomethane
 ------------
 Symbolic Z-matrix:
 Charge =  0 Multiplicity = 1

                         Standard orientation:
 ---------------------------------------------------------------------
 Center     Atomic      Atomic             Coordinates (Angstroms)
 Number     Number       Type             X           Y           Z
 ---------------------------------------------------------------------
      1          6           0        1.175841    0.006401    0.006836
      2          6           0       -0.284850   -0.017359   -0.011066
      3          7           0       -1.434853    0.008435    0.006754
      4          1           0        1.586084   -0.480393    0.915560
      5          1           0        1.564641    1.047066   -0.054098
      6          1           0        1.547296   -0.559973   -0.883361
 ---------------------------------------------------------------------

 SCF Done:  E(RB2PLYPD3) =  -132.534155374     A.U. after   11 cycles
 E2(B2PLYPD3) =    -0.1804652717D+00 E(B2PLYPD3) =    -0.13271462064555D+03

 The electronic state is 1-A.
 Alpha  occ. eigenvalues --  -14.84136 -10.67865 -10.66215  -1.04303  -0.88567
 Alpha  occ. eigenvalues --   -0.59512  -0.53369  -0.53108  -0.44818  -0.39190
 Alpha  occ. eigenvalues --   -0.39086
 Alpha virt. eigenvalues --    0.03622   0.07587   0.07745   0.10164   0.11539
 Alpha virt. eigenvalues --    0.11587   0.15359   0.16078   0.16780   0.20048
 Alpha virt. eigenvalues --    0.20070   0.25326   0.32542   0.34038   0.34502

 Mulliken charges:
               1
     1  C   -0.090883
     2  C   -0.000331
     3  N   -0.202798
     4  H    0.098478
     5  H    0.099283
     6  H    0.096251
 Sum of Mulliken charges =   0.00000

 Dipole moment (field-independent basis, Debye):
    X=              4.1131    Y=             -0.0155    Z=             -0.0140  Tot=              4.1131
 Quadrupole moment (field-independent basis, Debye-Ang):
   XX=            -21.0196   YY=            -17.7639   ZZ=            -17.8035
   XY=              0.0385   XZ=              0.0559   YZ=             -0.0144

 Normal termination of Gaussian 09 at Wed Aug 26 10:15:08 2020.
