 Gaussian 09, Revision D.01,
 Gaussian 09:  ES64L-G09RevD.01 24-Apr-2013

 --------------------
 #p B2PLYPD3/Def2QZVP
 --------------------

 ------------
 cyanomethane
 ------------
 Symbolic Z-matrix:
 Charge =  0 Multiplicity = 1

                         Standard orientation:
 ---------------------------------------------------------------------
 Center     Atomic      Atomic             Coordinates (Angstroms)
 Number     Number       Type             X           Y           Z
 ---------------------------------------------------------------------
      1          6           0       -1.172219    0.000898   -0.013330
      2          6           0        0.261137   -0.038634    0.005969
      3          7           0        1.433837    0.017428   -0.002403
      4          1           0       -1.515338   -0.009210    0.985312
      5          1           0       -1.557190   -0.811732   -0.498628
      6          1           0       -1.497837    0.925368   -0.425700
 ---------------------------------------------------------------------

 SCF Done:  E(RB2PLYPD3) =  -132.528848828     A.U. after   12 cycles
 E2(B2PLYPD3) =    -0.1816965651D+00 E(B2PLYPD3) =    -0.13271054539292D+03

 The electronic state is 1-A.
 Alpha  occ. eigenvalues --  -14.84636 -10.66642 -10.65646  -1.03398  -0.90721
 Alpha  occ. eigenvalues --   -0.60610  -0.56061  -0.54332  -0.44825  -0.38677
 Alpha  occ. eigenvalues --   -0.38412
 Alpha virt. eigenvalues --    0.03884   0.07750   0.08181   0.10125   0.11057
 Alpha virt. eigenvalues --    0.11470   0.15570   0.15875   0.16546   0.20144
 Alpha virt. eigenvalues --    0.20276   0.25815   0.33049   0.34616   0.35621

 Mulliken charges:
               1
     1  C   -0.067380
     2  C    0.001792
     3  N   -0.217436
     4  H    0.090229
     5  H    0.096566
     6  H    0.096230
 Sum of Mulliken charges =   0.00000

 Dipole moment (field-independent basis, Debye):
    X=             -4.1633    Y=             -0.0133    Z=              0.0314  Tot=              4.1634
 Quadrupole moment (field-independent basis, Debye-Ang):
   XX=            -20.9309   YY=            -17.6199   ZZ=            -17.8393
   XY=             -0.0610   XZ=             -0.0456   YZ=              0.0345

 Normal termination of Gaussian 09 at Wed Aug 26 14:30:18 2020.
