 Gaussian 09, Revision D.01,
 Gaussian 09:  ES64L-G09RevD.01 24-Apr-2013

 --------------------
 #p B2PLYPD3/Def2QZVP
 --------------------

 ------------
 cyanomethane
 ------------
 Symbolic Z-matrix:
 Charge =  0 Multiplicity = 1

                         Standard orientation:
 ---------------------------------------------------------------------
 Center     Atomic      Atomic             Coordinates (Angstroms)
 Number     Number       Type             X           Y           Z
 ---------------------------------------------------------------------
      1          6           0       -1.177178   -0.003488    0.006047
      2          6           0        0.277384    0.018773   -0.009430
      3          7           0        1.436194   -0.010088    0.001155
      4          1           0       -1.550947    0.990230   -0.172280
      5          1           0       -1.513294   -0.350643    0.947505
      6          1           0       -1.590354   -0.660678   -0.763008
 ---------------------------------------------------------------------

 SCF Done:  E(RB2PLYPD3) =  -132.534703427     A.U. after   11 cycles
 E2(B2PLYPD3) =    -0.1807085638D+00 E(B2PLYPD3) =    -0.13271541199079D+03

 The electronic state is 1-A.
 Alpha  occ. eigenvalues --  -14.84337 -10.66689 -10.66392  -1.03950  -0.89582
 Alpha  occ. eigenvalues --   -0.60069  -0.54643  -0.53724  -0.44826  -0.39015
 Alpha  occ. eigenvalues --   -0.38945
 Alpha virt. eigenvalues --    0.03813   0.07757   0.08141   0.10171   0.11335
 Alpha virt. eigenvalues --    0.11453   0.15456   0.16171   0.16585   0.20088
 Alpha virt. eigenvalues --    0.20141   0.25417   0.32774   0.34682   0.35055

 Mulliken charges:
               1
     1  C   -0.076334
     2  C   -0.000484
     3  N   -0.208660
     4  H    0.094877
     5  H    0.097541
     6  H    0.093061
 Sum of Mulliken charges =   0.00000

 Dipole moment (field-independent basis, Debye):
    X=             -4.1409    Y=              0.0123    Z=              0.0053  Tot=              4.1409
 Quadrupole moment (field-independent basis, Debye-Ang):
   XX=            -20.9206   YY=            -17.7512   ZZ=            -17.7733
   XY=              0.0700   XZ=              0.0350   YZ=             -0.0275

 Normal termination of Gaussian 09 at Thu Aug 27 00:10:50 2020.
