 Gaussian 09, Revision D.01,
 Gaussian 09:  ES64L-G09RevD.01 24-Apr-2013

 --------------------
 #p B2PLYPD3/Def2QZVP
 --------------------

 ------------
 cyanomethane
 ------------
 Symbolic Z-matrix:
 Charge =  0 Multiplicity = 1

                         Standard orientation:
 ---------------------------------------------------------------------
 Center     Atomic      Atomic             Coordinates (Angstroms)
 Number     Number       Type             X           Y           Z
 ---------------------------------------------------------------------
      1          6           0       -1.177401   -0.005623    0.000263
      2          6           0        0.281062    0.000828    0.011581
      3          7           0        1.438481   -0.000927   -0.006817
      4          1           0       -1.549404    1.027666   -0.095724
      5          1           0       -1.561531   -0.418885    0.904043
      6          1           0       -1.580396   -0.573518   -0.831658
 ---------------------------------------------------------------------

 SCF Done:  E(RB2PLYPD3) =  -132.535004569     A.U. after   11 cycles
 E2(B2PLYPD3) =    -0.1806826217D+00 E(B2PLYPD3) =    -0.13271568719099D+03

 The electronic state is 1-A.
 Alpha  occ. eigenvalues --  -14.84340 -10.66973 -10.66419  -1.04028  -0.89283
 Alpha  occ. eigenvalues --   -0.60126  -0.54187  -0.53498  -0.44858  -0.39095
 Alpha  occ. eigenvalues --   -0.38986
 Alpha virt. eigenvalues --    0.03768   0.07711   0.08015   0.10174   0.11358
 Alpha virt. eigenvalues --    0.11490   0.15429   0.16287   0.16648   0.20081
 Alpha virt. eigenvalues --    0.20119   0.25334   0.32710   0.34457   0.35019

 Mulliken charges:
               1
     1  C   -0.076456
     2  C    0.000063
     3  N   -0.207205
     4  H    0.093307
     5  H    0.095786
     6  H    0.094506
 Sum of Mulliken charges =   0.00000

 Dipole moment (field-independent basis, Debye):
    X=             -4.1414    Y=             -0.0004    Z=              0.0116  Tot=              4.1414
 Quadrupole moment (field-independent basis, Debye-Ang):
   XX=            -20.8845   YY=            -17.7858   ZZ=            -17.7935
   XY=              0.0265   XZ=              0.0460   YZ=             -0.0109

 Normal termination of Gaussian 09 at Thu Aug 27 00:08:05 2020.
