 Gaussian 09, Revision D.01,
 Gaussian 09:  ES64L-G09RevD.01 24-Apr-2013

 --------------------
 #p B2PLYPD3/Def2QZVP
 --------------------

 ------------
 cyanomethane
 ------------
 Symbolic Z-matrix:
 Charge =  0 Multiplicity = 1

                         Standard orientation:
 ---------------------------------------------------------------------
 Center     Atomic      Atomic             Coordinates (Angstroms)
 Number     Number       Type             X           Y           Z
 ---------------------------------------------------------------------
      1          6           0        1.164722   -0.003099   -0.009963
      2          6           0       -0.281192    0.006885   -0.016213
      3          7           0       -1.427861   -0.004283    0.013788
      4          1           0        1.622330   -0.207929    1.012503
      5          1           0        1.534222    0.986663   -0.297464
      6          1           0        1.537292   -0.771467   -0.654498
 ---------------------------------------------------------------------

 SCF Done:  E(RB2PLYPD3) =  -132.533373185     A.U. after   12 cycles
 E2(B2PLYPD3) =    -0.1800571047D+00 E(B2PLYPD3) =    -0.13271343028920D+03

 The electronic state is 1-A.
 Alpha  occ. eigenvalues --  -14.84039 -10.67292 -10.66053  -1.04484  -0.89121
 Alpha  occ. eigenvalues --   -0.60074  -0.54636  -0.52364  -0.44844  -0.39329
 Alpha  occ. eigenvalues --   -0.39030
 Alpha virt. eigenvalues --    0.03665   0.07344   0.08194   0.10156   0.11463
 Alpha virt. eigenvalues --    0.11839   0.15512   0.16334   0.16781   0.19988
 Alpha virt. eigenvalues --    0.20130   0.25582   0.32776   0.33956   0.35046

 Mulliken charges:
               1
     1  C   -0.082103
     2  C   -0.000681
     3  N   -0.201592
     4  H    0.088966
     5  H    0.096560
     6  H    0.098851
 Sum of Mulliken charges =   0.00000

 Dipole moment (field-independent basis, Debye):
    X=              4.1098    Y=              0.0048    Z=             -0.0194  Tot=              4.1098
 Quadrupole moment (field-independent basis, Debye-Ang):
   XX=            -20.9088   YY=            -17.6650   ZZ=            -17.8742
   XY=             -0.0462   XZ=              0.1603   YZ=              0.0468

 Normal termination of Gaussian 09 at Wed Aug 26 09:36:50 2020.
