 Gaussian 09, Revision D.01,
 Gaussian 09:  ES64L-G09RevD.01 24-Apr-2013

 --------------------
 #p B2PLYPD3/Def2QZVP
 --------------------

 ------------
 cyanomethane
 ------------
 Symbolic Z-matrix:
 Charge =  0 Multiplicity = 1

                         Standard orientation:
 ---------------------------------------------------------------------
 Center     Atomic      Atomic             Coordinates (Angstroms)
 Number     Number       Type             X           Y           Z
 ---------------------------------------------------------------------
      1          6           0       -1.193498    0.000066    0.002703
      2          6           0        0.270528   -0.035232    0.002118
      3          7           0        1.445274    0.017470   -0.005497
      4          1           0       -1.471921   -0.165135    0.985169
      5          1           0       -1.571790   -0.758070   -0.650312
      6          1           0       -1.535385    1.011911   -0.325302
 ---------------------------------------------------------------------

 SCF Done:  E(RB2PLYPD3) =  -132.529713506     A.U. after   12 cycles
 E2(B2PLYPD3) =    -0.1821844237D+00 E(B2PLYPD3) =    -0.13271189792987D+03

 The electronic state is 1-A.
 Alpha  occ. eigenvalues --  -14.84708 -10.66853 -10.66796  -1.03210  -0.89693
 Alpha  occ. eigenvalues --   -0.59332  -0.55396  -0.53887  -0.44746  -0.38625
 Alpha  occ. eigenvalues --   -0.38489
 Alpha virt. eigenvalues --    0.03697   0.07474   0.08263   0.10159   0.11004
 Alpha virt. eigenvalues --    0.11224   0.15262   0.15628   0.16333   0.20172
 Alpha virt. eigenvalues --    0.20217   0.25217   0.32420   0.34195   0.35207

 Mulliken charges:
               1
     1  C   -0.087465
     2  C   -0.000055
     3  N   -0.217089
     4  H    0.103883
     5  H    0.101023
     6  H    0.099703
 Sum of Mulliken charges =   0.00000

 Dipole moment (field-independent basis, Debye):
    X=             -4.1567    Y=             -0.0252    Z=              0.0247  Tot=              4.1569
 Quadrupole moment (field-independent basis, Debye-Ang):
   XX=            -21.1455   YY=            -17.7230   ZZ=            -17.7918
   XY=             -0.0648   XZ=              0.0613   YZ=              0.0167

 Normal termination of Gaussian 09 at Wed Aug 26 10:55:38 2020.
