 Gaussian 09, Revision D.01,
 Gaussian 09:  ES64L-G09RevD.01 24-Apr-2013

 --------------------
 #p B2PLYPD3/Def2QZVP
 --------------------

 ------------
 cyanomethane
 ------------
 Symbolic Z-matrix:
 Charge =  0 Multiplicity = 1

                         Standard orientation:
 ---------------------------------------------------------------------
 Center     Atomic      Atomic             Coordinates (Angstroms)
 Number     Number       Type             X           Y           Z
 ---------------------------------------------------------------------
      1          6           0        1.169225   -0.007828    0.004771
      2          6           0       -0.280476    0.002078   -0.016333
      3          7           0       -1.432008   -0.002712    0.010923
      4          1           0        1.607051   -0.141246    1.016841
      5          1           0        1.518720    0.992122   -0.375640
      6          1           0        1.565792   -0.797388   -0.648292
 ---------------------------------------------------------------------

 SCF Done:  E(RB2PLYPD3) =  -132.533737434     A.U. after   12 cycles
 E2(B2PLYPD3) =    -0.1805813416D+00 E(B2PLYPD3) =    -0.13271431877562D+03

 The electronic state is 1-A.
 Alpha  occ. eigenvalues --  -14.84165 -10.67691 -10.66217  -1.04274  -0.88824
 Alpha  occ. eigenvalues --   -0.59846  -0.53634  -0.52952  -0.44842  -0.39129
 Alpha  occ. eigenvalues --   -0.38972
 Alpha virt. eigenvalues --    0.03642   0.07412   0.07774   0.10138   0.11533
 Alpha virt. eigenvalues --    0.11684   0.15439   0.16020   0.16897   0.20055
 Alpha virt. eigenvalues --    0.20112   0.25514   0.32658   0.33911   0.34632

 Mulliken charges:
               1
     1  C   -0.088732
     2  C    0.000796
     3  N   -0.203896
     4  H    0.097249
     5  H    0.095826
     6  H    0.098757
 Sum of Mulliken charges =   0.00000

 Dipole moment (field-independent basis, Debye):
    X=              4.1135    Y=              0.0079    Z=             -0.0159  Tot=              4.1136
 Quadrupole moment (field-independent basis, Debye-Ang):
   XX=            -20.9916   YY=            -17.7615   ZZ=            -17.8094
   XY=             -0.0472   XZ=              0.1107   YZ=              0.0245

 Normal termination of Gaussian 09 at Thu Aug 27 00:06:39 2020.
