 Gaussian 09, Revision D.01,
 Gaussian 09:  ES64L-G09RevD.01 24-Apr-2013

 --------------------
 #p B2PLYPD3/Def2QZVP
 --------------------

 ------------
 cyanomethane
 ------------
 Symbolic Z-matrix:
 Charge =  0 Multiplicity = 1

                         Standard orientation:
 ---------------------------------------------------------------------
 Center     Atomic      Atomic             Coordinates (Angstroms)
 Number     Number       Type             X           Y           Z
 ---------------------------------------------------------------------
      1          6           0        1.174708    0.006808    0.006209
      2          6           0       -0.268920   -0.005370   -0.019423
      3          7           0       -1.432130    0.003274    0.009766
      4          1           0        1.544098    1.001042   -0.264637
      5          1           0        1.516308   -0.749349   -0.733428
      6          1           0        1.529776   -0.283238    1.008990
 ---------------------------------------------------------------------

 SCF Done:  E(RB2PLYPD3) =  -132.533619252     A.U. after   12 cycles
 E2(B2PLYPD3) =    -0.1814161897D+00 E(B2PLYPD3) =    -0.13271503544172D+03

 The electronic state is 1-A.
 Alpha  occ. eigenvalues --  -14.84341 -10.67456 -10.66376  -1.03736  -0.89283
 Alpha  occ. eigenvalues --   -0.59375  -0.54214  -0.53724  -0.44746  -0.38751
 Alpha  occ. eigenvalues --   -0.38629
 Alpha virt. eigenvalues --    0.03682   0.07544   0.07698   0.10118   0.11387
 Alpha virt. eigenvalues --    0.11496   0.15397   0.15778   0.16366   0.20139
 Alpha virt. eigenvalues --    0.20162   0.25568   0.32636   0.34028   0.34565

 Mulliken charges:
               1
     1  C   -0.095153
     2  C    0.000391
     3  N   -0.211291
     4  H    0.103290
     5  H    0.100290
     6  H    0.102474
 Sum of Mulliken charges =   0.00000

 Dipole moment (field-independent basis, Debye):
    X=              4.1210    Y=             -0.0097    Z=             -0.0123  Tot=              4.1210
 Quadrupole moment (field-independent basis, Debye-Ang):
   XX=            -21.2125   YY=            -17.7124   ZZ=            -17.7542
   XY=              0.0248   XZ=              0.0585   YZ=             -0.0184

 Normal termination of Gaussian 09 at Wed Aug 26 15:59:13 2020.
