 Gaussian 09, Revision D.01,
 Gaussian 09:  ES64L-G09RevD.01 24-Apr-2013

 --------------------
 #p B2PLYPD3/Def2QZVP
 --------------------

 ------------
 cyanomethane
 ------------
 Symbolic Z-matrix:
 Charge =  0 Multiplicity = 1

                         Standard orientation:
 ---------------------------------------------------------------------
 Center     Atomic      Atomic             Coordinates (Angstroms)
 Number     Number       Type             X           Y           Z
 ---------------------------------------------------------------------
      1          6           0       -1.165480   -0.008441   -0.001038
      2          6           0        0.273317    0.017725   -0.009850
      3          7           0        1.433686   -0.009332    0.006123
      4          1           0       -1.545011    0.984426   -0.227987
      5          1           0       -1.575913   -0.281962    0.971938
      6          1           0       -1.561907   -0.692848   -0.721487
 ---------------------------------------------------------------------

 SCF Done:  E(RB2PLYPD3) =  -132.534486110     A.U. after   11 cycles
 E2(B2PLYPD3) =    -0.1809693007D+00 E(B2PLYPD3) =    -0.13271545541096D+03

 The electronic state is 1-A.
 Alpha  occ. eigenvalues --  -14.84414 -10.66717 -10.66426  -1.03955  -0.89661
 Alpha  occ. eigenvalues --   -0.60610  -0.54246  -0.53622  -0.44904  -0.38933
 Alpha  occ. eigenvalues --   -0.38825
 Alpha virt. eigenvalues --    0.03789   0.07563   0.07839   0.10114   0.11432
 Alpha virt. eigenvalues --    0.11546   0.15585   0.16189   0.16804   0.20104
 Alpha virt. eigenvalues --    0.20160   0.25715   0.32925   0.34526   0.34984

 Mulliken charges:
               1
     1  C   -0.072127
     2  C    0.001703
     3  N   -0.209113
     4  H    0.092091
     5  H    0.092445
     6  H    0.095001
 Sum of Mulliken charges =   0.00000

 Dipole moment (field-independent basis, Debye):
    X=             -4.1412    Y=              0.0167    Z=             -0.0078  Tot=              4.1412
 Quadrupole moment (field-independent basis, Debye-Ang):
   XX=            -20.8450   YY=            -17.7811   ZZ=            -17.8019
   XY=              0.0573   XZ=             -0.0514   YZ=              0.0229

 Normal termination of Gaussian 09 at Thu Aug 27 00:08:44 2020.
