 Gaussian 09, Revision D.01,
 Gaussian 09:  ES64L-G09RevD.01 24-Apr-2013

 --------------------
 #p B2PLYPD3/Def2QZVP
 --------------------

 ------------
 cyanomethane
 ------------
 Symbolic Z-matrix:
 Charge =  0 Multiplicity = 1

                         Standard orientation:
 ---------------------------------------------------------------------
 Center     Atomic      Atomic             Coordinates (Angstroms)
 Number     Number       Type             X           Y           Z
 ---------------------------------------------------------------------
      1          6           0       -1.211701   -0.001851   -0.003934
      2          6           0        0.305013    0.027181   -0.052444
      3          7           0        1.435575   -0.017915    0.030119
      4          1           0       -1.568287   -0.054202    0.944103
      5          1           0       -1.563275   -0.845299   -0.451833
      6          1           0       -1.477340    0.872925   -0.364838
 ---------------------------------------------------------------------

 SCF Done:  E(RB2PLYPD3) =  -132.516151560     A.U. after   11 cycles
 E2(B2PLYPD3) =    -0.1780472410D+00 E(B2PLYPD3) =    -0.13269419880086D+03

 The electronic state is 1-A.
 Alpha  occ. eigenvalues --  -14.83643 -10.65749 -10.64993  -1.04806  -0.90458
 Alpha  occ. eigenvalues --   -0.59616  -0.57205  -0.53726  -0.44607  -0.40071
 Alpha  occ. eigenvalues --   -0.39780
 Alpha virt. eigenvalues --    0.03963   0.08893   0.09913   0.10244   0.10906
 Alpha virt. eigenvalues --    0.11551   0.15260   0.16087   0.16978   0.19862
 Alpha virt. eigenvalues --    0.20084   0.24379   0.32839   0.35341   0.36692

 Mulliken charges:
               1
     1  C   -0.063433
     2  C   -0.008514
     3  N   -0.195491
     4  H    0.080061
     5  H    0.091061
     6  H    0.096316
 Sum of Mulliken charges =   0.00000

 Dipole moment (field-independent basis, Debye):
    X=             -4.1408    Y=              0.0262    Z=              0.0009  Tot=              4.1409
 Quadrupole moment (field-independent basis, Debye-Ang):
   XX=            -20.7190   YY=            -17.3923   ZZ=            -17.8600
   XY=              0.1708   XZ=             -0.3259   YZ=             -0.0071

 Normal termination of Gaussian 09 at Wed Aug 26 21:34:20 2020.
