 Gaussian 09, Revision D.01,
 Gaussian 09:  ES64L-G09RevD.01 24-Apr-2013

 --------------------
 #p B2PLYPD3/Def2QZVP
 --------------------

 ------------
 cyanomethane
 ------------
 Symbolic Z-matrix:
 Charge =  0 Multiplicity = 1

                         Standard orientation:
 ---------------------------------------------------------------------
 Center     Atomic      Atomic             Coordinates (Angstroms)
 Number     Number       Type             X           Y           Z
 ---------------------------------------------------------------------
      1          6           0       -1.190809   -0.001469    0.008310
      2          6           0        0.289047    0.034588   -0.008611
      3          7           0        1.434553   -0.017191   -0.000463
      4          1           0       -1.483948   -0.300098    0.951492
      5          1           0       -1.577023   -0.745084   -0.702364
      6          1           0       -1.570325    0.966805   -0.244077
 ---------------------------------------------------------------------

 SCF Done:  E(RB2PLYPD3) =  -132.533411592     A.U. after   12 cycles
 E2(B2PLYPD3) =    -0.1795380554D+00 E(B2PLYPD3) =    -0.13271294964711D+03

 The electronic state is 1-A.
 Alpha  occ. eigenvalues --  -14.83962 -10.66637 -10.66055  -1.04369  -0.89385
 Alpha  occ. eigenvalues --   -0.59345  -0.55198  -0.53571  -0.44699  -0.39461
 Alpha  occ. eigenvalues --   -0.39305
 Alpha virt. eigenvalues --    0.03817   0.08150   0.08752   0.10237   0.11239
 Alpha virt. eigenvalues --    0.11510   0.15312   0.16136   0.16562   0.19983
 Alpha virt. eigenvalues --    0.20100   0.24982   0.32663   0.34620   0.35455

 Mulliken charges:
               1
     1  C   -0.081445
     2  C   -0.005106
     3  N   -0.202347
     4  H    0.099392
     5  H    0.092531
     6  H    0.096974
 Sum of Mulliken charges =   0.00000

 Dipole moment (field-independent basis, Debye):
    X=             -4.1265    Y=              0.0111    Z=              0.0163  Tot=              4.1265
 Quadrupole moment (field-independent basis, Debye-Ang):
   XX=            -20.9665   YY=            -17.6384   ZZ=            -17.7708
   XY=              0.1176   XZ=              0.0412   YZ=             -0.0495

 Normal termination of Gaussian 09 at Wed Aug 26 14:20:25 2020.
