 Gaussian 09, Revision D.01,
 Gaussian 09:  ES64L-G09RevD.01 24-Apr-2013

 --------------------
 #p B2PLYPD3/Def2QZVP
 --------------------

 ------------
 cyanomethane
 ------------
 Symbolic Z-matrix:
 Charge =  0 Multiplicity = 1

                         Standard orientation:
 ---------------------------------------------------------------------
 Center     Atomic      Atomic             Coordinates (Angstroms)
 Number     Number       Type             X           Y           Z
 ---------------------------------------------------------------------
      1          6           0       -1.176697   -0.034835   -0.002388
      2          6           0        0.275692    0.074889   -0.014372
      3          7           0        1.456964   -0.039070    0.005758
      4          1           0       -1.542970    1.019320    0.043105
      5          1           0       -1.597935   -0.510770    0.798452
      6          1           0       -1.651810   -0.475385   -0.781307
 ---------------------------------------------------------------------

 SCF Done:  E(RB2PLYPD3) =  -132.516972731     A.U. after   12 cycles
 E2(B2PLYPD3) =    -0.1834348239D+00 E(B2PLYPD3) =    -0.13270040755523D+03

 The electronic state is 1-A.
 Alpha  occ. eigenvalues --  -14.85437 -10.67565 -10.65944  -1.03090  -0.90124
 Alpha  occ. eigenvalues --   -0.62651  -0.54210  -0.53128  -0.45236  -0.38673
 Alpha  occ. eigenvalues --   -0.38334
 Alpha virt. eigenvalues --    0.03751   0.07016   0.07126   0.09696   0.11344
 Alpha virt. eigenvalues --    0.11417   0.15360   0.16172   0.17805   0.20042
 Alpha virt. eigenvalues --    0.20590   0.25821   0.32388   0.34108   0.35920

 Mulliken charges:
               1
     1  C   -0.049427
     2  C    0.019069
     3  N   -0.218264
     4  H    0.079555
     5  H    0.084179
     6  H    0.084887
 Sum of Mulliken charges =   0.00000

 Dipole moment (field-independent basis, Debye):
    X=             -4.1704    Y=              0.0215    Z=              0.0025  Tot=              4.1704
 Quadrupole moment (field-independent basis, Debye-Ang):
   XX=            -20.4778   YY=            -17.8258   ZZ=            -18.1051
   XY=              0.3092   XZ=             -0.0216   YZ=              0.0105

 Normal termination of Gaussian 09 at Wed Aug 26 22:24:03 2020.
