 Gaussian 09, Revision D.01,
 Gaussian 09:  ES64L-G09RevD.01 24-Apr-2013

 --------------------
 #p B2PLYPD3/Def2QZVP
 --------------------

 ------------
 cyanomethane
 ------------
 Symbolic Z-matrix:
 Charge =  0 Multiplicity = 1

                         Standard orientation:
 ---------------------------------------------------------------------
 Center     Atomic      Atomic             Coordinates (Angstroms)
 Number     Number       Type             X           Y           Z
 ---------------------------------------------------------------------
      1          6           0       -1.138378   -0.004804    0.018864
      2          6           0        0.258650    0.045538   -0.038631
      3          7           0        1.432391   -0.030296    0.010181
      4          1           0       -1.717004   -0.881101   -0.622686
      5          1           0       -1.538641    0.992948   -0.385875
      6          1           0       -1.492727   -0.144179    1.055892
 ---------------------------------------------------------------------

 SCF Done:  E(RB2PLYPD3) =  -132.514905503     A.U. after   12 cycles
 E2(B2PLYPD3) =    -0.1838549672D+00 E(B2PLYPD3) =    -0.13269876047036D+03

 The electronic state is 1-A.
 Alpha  occ. eigenvalues --  -14.84968 -10.68598 -10.66835  -1.03526  -0.89031
 Alpha  occ. eigenvalues --   -0.60436  -0.53636  -0.51268  -0.45124  -0.38244
 Alpha  occ. eigenvalues --   -0.37954
 Alpha virt. eigenvalues --    0.03066   0.05462   0.06739   0.09871   0.11564
 Alpha virt. eigenvalues --    0.11913   0.15548   0.15839   0.17201   0.20069
 Alpha virt. eigenvalues --    0.20387   0.26456   0.31567   0.32840   0.34415

 Mulliken charges:
               1
     1  C   -0.095078
     2  C    0.010752
     3  N   -0.213243
     4  H    0.093096
     5  H    0.097761
     6  H    0.106712
 Sum of Mulliken charges =   0.00000

 Dipole moment (field-independent basis, Debye):
    X=             -4.1052    Y=              0.0582    Z=              0.0300  Tot=              4.1057
 Quadrupole moment (field-independent basis, Debye-Ang):
   XX=            -20.9828   YY=            -17.9012   ZZ=            -17.9482
   XY=              0.2406   XZ=             -0.0072   YZ=             -0.0704

 Normal termination of Gaussian 09 at Wed Aug 26 22:14:10 2020.
