 Gaussian 09, Revision D.01,
 Gaussian 09:  ES64L-G09RevD.01 24-Apr-2013

 --------------------
 #p B2PLYPD3/Def2QZVP
 --------------------

 ------------
 cyanomethane
 ------------
 Symbolic Z-matrix:
 Charge =  0 Multiplicity = 1

                         Standard orientation:
 ---------------------------------------------------------------------
 Center     Atomic      Atomic             Coordinates (Angstroms)
 Number     Number       Type             X           Y           Z
 ---------------------------------------------------------------------
      1          6           0        1.151107   -0.026069   -0.002626
      2          6           0       -0.254173    0.079648   -0.005585
      3          7           0       -1.432005   -0.034146    0.004658
      4          1           0        1.597838    1.056766   -0.116860
      5          1           0        1.500345   -0.681637   -0.838903
      6          1           0        1.544255   -0.457578    0.972429
 ---------------------------------------------------------------------

 SCF Done:  E(RB2PLYPD3) =  -132.521746450     A.U. after   12 cycles
 E2(B2PLYPD3) =    -0.1839849407D+00 E(B2PLYPD3) =    -0.13270573139069D+03

 The electronic state is 1-A.
 Alpha  occ. eigenvalues --  -14.85001 -10.68303 -10.66892  -1.03180  -0.89076
 Alpha  occ. eigenvalues --   -0.59959  -0.53538  -0.52585  -0.44999  -0.38105
 Alpha  occ. eigenvalues --   -0.37915
 Alpha virt. eigenvalues --    0.03350   0.06253   0.06453   0.09840   0.11445
 Alpha virt. eigenvalues --    0.11593   0.15555   0.15680   0.16615   0.20074
 Alpha virt. eigenvalues --    0.20306   0.26413   0.31761   0.33715   0.34174

 Mulliken charges:
               1
     1  C   -0.101360
     2  C    0.010754
     3  N   -0.217458
     4  H    0.096225
     5  H    0.108052
     6  H    0.103788
 Sum of Mulliken charges =   0.00000

 Dipole moment (field-independent basis, Debye):
    X=              4.0965    Y=              0.0087    Z=              0.0011  Tot=              4.0965
 Quadrupole moment (field-independent basis, Debye-Ang):
   XX=            -21.2298   YY=            -17.7865   ZZ=            -17.8949
   XY=             -0.1623   XZ=              0.0706   YZ=              0.0384

 Normal termination of Gaussian 09 at Wed Aug 26 16:37:22 2020.
