 Gaussian 09, Revision D.01,
 Gaussian 09:  ES64L-G09RevD.01 24-Apr-2013

 --------------------
 #p B2PLYPD3/Def2QZVP
 --------------------

 ------------
 cyanomethane
 ------------
 Symbolic Z-matrix:
 Charge =  0 Multiplicity = 1

                         Standard orientation:
 ---------------------------------------------------------------------
 Center     Atomic      Atomic             Coordinates (Angstroms)
 Number     Number       Type             X           Y           Z
 ---------------------------------------------------------------------
      1          6           0       -1.165044    0.041203    0.028832
      2          6           0        0.296998   -0.029835   -0.059213
      3          7           0        1.421002    0.000791    0.020687
      4          1           0       -1.481146    1.041575   -0.265930
      5          1           0       -1.510555   -0.306417    1.004147
      6          1           0       -1.747036   -0.808901   -0.700742
 ---------------------------------------------------------------------

 SCF Done:  E(RB2PLYPD3) =  -132.517960955     A.U. after   12 cycles
 E2(B2PLYPD3) =    -0.1793083962D+00 E(B2PLYPD3) =    -0.13269726935113D+03

 The electronic state is 1-A.
 Alpha  occ. eigenvalues --  -14.83572 -10.68766 -10.65601  -1.05340  -0.87874
 Alpha  occ. eigenvalues --   -0.58999  -0.55078  -0.49940  -0.44810  -0.40053
 Alpha  occ. eigenvalues --   -0.39112
 Alpha virt. eigenvalues --    0.03275   0.06431   0.08360   0.10192   0.11526
 Alpha virt. eigenvalues --    0.12329   0.15137   0.16371   0.17048   0.19803
 Alpha virt. eigenvalues --    0.19985   0.25548   0.30177   0.34056   0.35302

 Mulliken charges:
               1
     1  C   -0.103079
     2  C   -0.000421
     3  N   -0.188455
     4  H    0.110502
     5  H    0.103954
     6  H    0.077499
 Sum of Mulliken charges =   0.00000

 Dipole moment (field-independent basis, Debye):
    X=             -4.0242    Y=              0.0064    Z=              0.0281  Tot=              4.0243
 Quadrupole moment (field-independent basis, Debye-Ang):
   XX=            -21.0789   YY=            -17.5725   ZZ=            -17.9825
   XY=              0.1686   XZ=             -0.1463   YZ=             -0.2254

 Normal termination of Gaussian 09 at Wed Aug 26 16:26:32 2020.
