 Gaussian 09, Revision D.01,
 Gaussian 09:  ES64L-G09RevD.01 24-Apr-2013

 --------------------
 #p B2PLYPD3/Def2QZVP
 --------------------

 ------------
 cyanomethane
 ------------
 Symbolic Z-matrix:
 Charge =  0 Multiplicity = 1

                         Standard orientation:
 ---------------------------------------------------------------------
 Center     Atomic      Atomic             Coordinates (Angstroms)
 Number     Number       Type             X           Y           Z
 ---------------------------------------------------------------------
      1          6           0       -1.164288   -0.016000    0.000639
      2          6           0        0.266834    0.015101   -0.035201
      3          7           0        1.432724   -0.004868    0.015401
      4          1           0       -1.562142   -0.756034   -0.660894
      5          1           0       -1.575935    1.003596   -0.278648
      6          1           0       -1.506272   -0.208095    1.039105
 ---------------------------------------------------------------------

 SCF Done:  E(RB2PLYPD3) =  -132.531756460     A.U. after   11 cycles
 E2(B2PLYPD3) =    -0.1818126569D+00 E(B2PLYPD3) =    -0.13271356911690D+03

 The electronic state is 1-A.
 Alpha  occ. eigenvalues --  -14.84527 -10.67355 -10.66525  -1.03691  -0.89402
 Alpha  occ. eigenvalues --   -0.60121  -0.54517  -0.52938  -0.44876  -0.38737
 Alpha  occ. eigenvalues --   -0.38456
 Alpha virt. eigenvalues --    0.03640   0.07090   0.07607   0.10083   0.11316
 Alpha virt. eigenvalues --    0.11659   0.15520   0.16039   0.16500   0.20116
 Alpha virt. eigenvalues --    0.20188   0.25853   0.32561   0.33881   0.34833

 Mulliken charges:
               1
     1  C   -0.086312
     2  C    0.003058
     3  N   -0.212081
     4  H    0.102226
     5  H    0.093822
     6  H    0.099287
 Sum of Mulliken charges =   0.00000

 Dipole moment (field-independent basis, Debye):
    X=             -4.1277    Y=              0.0047    Z=             -0.0071  Tot=              4.1277
 Quadrupole moment (field-independent basis, Debye-Ang):
   XX=            -21.0512   YY=            -17.7877   ZZ=            -17.7888
   XY=              0.0030   XZ=             -0.0630   YZ=              0.0611

 Normal termination of Gaussian 09 at Wed Aug 26 15:10:12 2020.
