 Gaussian 09, Revision D.01,
 Gaussian 09:  ES64L-G09RevD.01 24-Apr-2013

 --------------------
 #p B2PLYPD3/Def2QZVP
 --------------------

 ------------
 cyanomethane
 ------------
 Symbolic Z-matrix:
 Charge =  0 Multiplicity = 1

                         Standard orientation:
 ---------------------------------------------------------------------
 Center     Atomic      Atomic             Coordinates (Angstroms)
 Number     Number       Type             X           Y           Z
 ---------------------------------------------------------------------
      1          6           0       -1.180089   -0.002612   -0.006450
      2          6           0        0.278321    0.014019    0.042722
      3          7           0        1.414171   -0.008457   -0.032475
      4          1           0       -1.598536   -0.837497   -0.625665
      5          1           0       -1.532941    0.983417   -0.378568
      6          1           0       -1.357108   -0.155159    1.013926
 ---------------------------------------------------------------------

 SCF Done:  E(RB2PLYPD3) =  -132.528141404     A.U. after   12 cycles
 E2(B2PLYPD3) =    -0.1794044862D+00 E(B2PLYPD3) =    -0.13270754589000D+03

 The electronic state is 1-A.
 Alpha  occ. eigenvalues --  -14.83533 -10.67196 -10.65557  -1.04669  -0.89461
 Alpha  occ. eigenvalues --   -0.58514  -0.55073  -0.53414  -0.44532  -0.39338
 Alpha  occ. eigenvalues --   -0.39202
 Alpha virt. eigenvalues --    0.03631   0.07617   0.09105   0.10188   0.11604
 Alpha virt. eigenvalues --    0.11678   0.14908   0.15412   0.17142   0.20042
 Alpha virt. eigenvalues --    0.20097   0.25444   0.32823   0.34335   0.34614

 Mulliken charges:
               1
     1  C   -0.109012
     2  C   -0.004862
     3  N   -0.199674
     4  H    0.101891
     5  H    0.103825
     6  H    0.107831
 Sum of Mulliken charges =   0.00000

 Dipole moment (field-independent basis, Debye):
    X=             -4.0556    Y=              0.0072    Z=              0.0710  Tot=              4.0562
 Quadrupole moment (field-independent basis, Debye-Ang):
   XX=            -21.3452   YY=            -17.5616   ZZ=            -17.6403
   XY=              0.0855   XZ=              0.3306   YZ=             -0.0327

 Normal termination of Gaussian 09 at Wed Aug 26 21:59:27 2020.
