 Gaussian 09, Revision D.01,
 Gaussian 09:  ES64L-G09RevD.01 24-Apr-2013

 --------------------
 #p B2PLYPD3/Def2QZVP
 --------------------

 ------------
 cyanomethane
 ------------
 Symbolic Z-matrix:
 Charge =  0 Multiplicity = 1

                         Standard orientation:
 ---------------------------------------------------------------------
 Center     Atomic      Atomic             Coordinates (Angstroms)
 Number     Number       Type             X           Y           Z
 ---------------------------------------------------------------------
      1          6           0       -1.181143   -0.014065   -0.017744
      2          6           0        0.279641    0.071325    0.012884
      3          7           0        1.419857   -0.037338   -0.010047
      4          1           0       -1.436797   -0.138111    0.933485
      5          1           0       -1.569818   -0.828763   -0.500225
      6          1           0       -1.523371    0.884676   -0.333771
 ---------------------------------------------------------------------

 SCF Done:  E(RB2PLYPD3) =  -132.519089529     A.U. after   12 cycles
 E2(B2PLYPD3) =    -0.1790558523D+00 E(B2PLYPD3) =    -0.13269814538100D+03

 The electronic state is 1-A.
 Alpha  occ. eigenvalues --  -14.83878 -10.65852 -10.64591  -1.04486  -0.91192
 Alpha  occ. eigenvalues --   -0.60314  -0.56551  -0.54920  -0.44707  -0.39541
 Alpha  occ. eigenvalues --   -0.39278
 Alpha virt. eigenvalues --    0.03937   0.08468   0.09585   0.10051   0.11176
 Alpha virt. eigenvalues --    0.11609   0.15301   0.15754   0.17427   0.19983
 Alpha virt. eigenvalues --    0.20218   0.25642   0.33438   0.35342   0.36185

 Mulliken charges:
               1
     1  C   -0.066430
     2  C   -0.001076
     3  N   -0.203876
     4  H    0.089262
     5  H    0.089756
     6  H    0.092364
 Sum of Mulliken charges =   0.00000

 Dipole moment (field-independent basis, Debye):
    X=             -4.1087    Y=              0.0418    Z=              0.0817  Tot=              4.1097
 Quadrupole moment (field-independent basis, Debye-Ang):
   XX=            -20.8106   YY=            -17.4069   ZZ=            -17.7995
   XY=              0.2573   XZ=             -0.0150   YZ=             -0.0268

 Normal termination of Gaussian 09 at Wed Aug 26 23:33:24 2020.
