 Gaussian 09, Revision D.01,
 Gaussian 09:  ES64L-G09RevD.01 24-Apr-2013

 --------------------
 #p B2PLYPD3/Def2QZVP
 --------------------

 ------------
 cyanomethane
 ------------
 Symbolic Z-matrix:
 Charge =  0 Multiplicity = 1

                         Standard orientation:
 ---------------------------------------------------------------------
 Center     Atomic      Atomic             Coordinates (Angstroms)
 Number     Number       Type             X           Y           Z
 ---------------------------------------------------------------------
      1          6           0       -1.162667    0.020113    0.000997
      2          6           0        0.272640    0.017409   -0.014859
      3          7           0        1.434043   -0.017705    0.010968
      4          1           0       -1.472499    0.959945   -0.307300
      5          1           0       -1.627935   -0.254260    0.996877
      6          1           0       -1.597701   -0.806882   -0.683183
 ---------------------------------------------------------------------

 SCF Done:  E(RB2PLYPD3) =  -132.526769141     A.U. after   12 cycles
 E2(B2PLYPD3) =    -0.1815687743D+00 E(B2PLYPD3) =    -0.13270833791541D+03

 The electronic state is 1-A.
 Alpha  occ. eigenvalues --  -14.84477 -10.67467 -10.66477  -1.03926  -0.89319
 Alpha  occ. eigenvalues --   -0.60224  -0.55311  -0.51615  -0.44927  -0.38981
 Alpha  occ. eigenvalues --   -0.38494
 Alpha virt. eigenvalues --    0.03532   0.06548   0.08092   0.10092   0.11193
 Alpha virt. eigenvalues --    0.11900   0.15456   0.16221   0.16782   0.20002
 Alpha virt. eigenvalues --    0.20266   0.25745   0.32431   0.33395   0.35135

 Mulliken charges:
               1
     1  C   -0.082670
     2  C    0.002394
     3  N   -0.208866
     4  H    0.105490
     5  H    0.093132
     6  H    0.090520
 Sum of Mulliken charges =   0.00000

 Dipole moment (field-independent basis, Debye):
    X=             -4.1263    Y=              0.0172    Z=             -0.0076  Tot=              4.1263
 Quadrupole moment (field-independent basis, Debye-Ang):
   XX=            -20.9313   YY=            -17.6796   ZZ=            -17.9722
   XY=              0.2367   XZ=             -0.1347   YZ=             -0.0853

 Normal termination of Gaussian 09 at Wed Aug 26 11:00:24 2020.
