 Gaussian 09, Revision D.01,
 Gaussian 09:  ES64L-G09RevD.01 24-Apr-2013

 --------------------
 #p B2PLYPD3/Def2QZVP
 --------------------

 ------------
 cyanomethane
 ------------
 Symbolic Z-matrix:
 Charge =  0 Multiplicity = 1

                         Standard orientation:
 ---------------------------------------------------------------------
 Center     Atomic      Atomic             Coordinates (Angstroms)
 Number     Number       Type             X           Y           Z
 ---------------------------------------------------------------------
      1          6           0       -1.188411   -0.015028   -0.008823
      2          6           0        0.292552    0.037796   -0.011124
      3          7           0        1.427688   -0.019543    0.008538
      4          1           0       -1.564146   -0.011150    1.015570
      5          1           0       -1.539173   -0.904512   -0.488616
      6          1           0       -1.515342    0.915855   -0.467039
 ---------------------------------------------------------------------

 SCF Done:  E(RB2PLYPD3) =  -132.534494050     A.U. after   11 cycles
 E2(B2PLYPD3) =    -0.1789411735D+00 E(B2PLYPD3) =    -0.13271343522395D+03

 The electronic state is 1-A.
 Alpha  occ. eigenvalues --  -14.83646 -10.67122 -10.65724  -1.04746  -0.88923
 Alpha  occ. eigenvalues --   -0.59012  -0.54891  -0.53119  -0.44634  -0.39685
 Alpha  occ. eigenvalues --   -0.39439
 Alpha virt. eigenvalues --    0.03762   0.08256   0.08651   0.10202   0.11378
 Alpha virt. eigenvalues --    0.11683   0.15262   0.15883   0.16859   0.19921
 Alpha virt. eigenvalues --    0.20074   0.25036   0.32784   0.34228   0.35267

 Mulliken charges:
               1
     1  C   -0.089851
     2  C   -0.007003
     3  N   -0.196729
     4  H    0.093021
     5  H    0.102535
     6  H    0.098026
 Sum of Mulliken charges =   0.00000

 Dipole moment (field-independent basis, Debye):
    X=             -4.0990    Y=              0.0341    Z=              0.0121  Tot=              4.0992
 Quadrupole moment (field-independent basis, Debye-Ang):
   XX=            -21.0693   YY=            -17.5158   ZZ=            -17.8308
   XY=              0.1230   XZ=             -0.1462   YZ=              0.0267

 Normal termination of Gaussian 09 at Wed Aug 26 15:15:20 2020.
