 Gaussian 09, Revision D.01,
 Gaussian 09:  ES64L-G09RevD.01 24-Apr-2013

 --------------------
 #p B2PLYPD3/Def2QZVP
 --------------------

 ------------
 cyanomethane
 ------------
 Symbolic Z-matrix:
 Charge =  0 Multiplicity = 1

                         Standard orientation:
 ---------------------------------------------------------------------
 Center     Atomic      Atomic             Coordinates (Angstroms)
 Number     Number       Type             X           Y           Z
 ---------------------------------------------------------------------
      1          6           0       -1.184196   -0.003023   -0.002976
      2          6           0        0.283508    0.011938    0.006483
      3          7           0        1.433937   -0.002636   -0.004351
      4          1           0       -1.513917   -0.335813    0.954721
      5          1           0       -1.527533   -0.696430   -0.745541
      6          1           0       -1.591980    0.997207   -0.199766
 ---------------------------------------------------------------------

 SCF Done:  E(RB2PLYPD3) =  -132.535555686     A.U. after   12 cycles
 E2(B2PLYPD3) =    -0.1799745063D+00 E(B2PLYPD3) =    -0.13271553019184D+03

 The electronic state is 1-A.
 Alpha  occ. eigenvalues --  -14.84054 -10.66899 -10.66137  -1.04231  -0.89304
 Alpha  occ. eigenvalues --   -0.59470  -0.54336  -0.54015  -0.44726  -0.39229
 Alpha  occ. eigenvalues --   -0.39191
 Alpha virt. eigenvalues --    0.03808   0.08028   0.08373   0.10220   0.11402
 Alpha virt. eigenvalues --    0.11450   0.15349   0.16060   0.16575   0.20060
 Alpha virt. eigenvalues --    0.20088   0.25154   0.32693   0.34774   0.34899

 Mulliken charges:
               1
     1  C   -0.083861
     2  C   -0.003542
     3  N   -0.204462
     4  H    0.097291
     5  H    0.098240
     6  H    0.096334
 Sum of Mulliken charges =   0.00000

 Dipole moment (field-independent basis, Debye):
    X=             -4.1282    Y=             -0.0119    Z=              0.0165  Tot=              4.1283
 Quadrupole moment (field-independent basis, Debye-Ang):
   XX=            -21.0078   YY=            -17.6780   ZZ=            -17.7640
   XY=             -0.0064   XZ=              0.0215   YZ=              0.0064

 Normal termination of Gaussian 09 at Wed Aug 26 22:46:13 2020.
