 Gaussian 09, Revision D.01,
 Gaussian 09:  ES64L-G09RevD.01 24-Apr-2013

 --------------------
 #p B2PLYPD3/Def2QZVP
 --------------------

 ------------
 cyanomethane
 ------------
 Symbolic Z-matrix:
 Charge =  0 Multiplicity = 1

                         Standard orientation:
 ---------------------------------------------------------------------
 Center     Atomic      Atomic             Coordinates (Angstroms)
 Number     Number       Type             X           Y           Z
 ---------------------------------------------------------------------
      1          6           0       -1.214942    0.020942   -0.003847
      2          6           0        0.276103    0.002530    0.048962
      3          7           0        1.447949   -0.010826   -0.017527
      4          1           0       -1.384439    1.009781   -0.199126
      5          1           0       -1.633242   -0.405394    0.885104
      6          1           0       -1.484926   -0.669441   -0.833982
 ---------------------------------------------------------------------

 SCF Done:  E(RB2PLYPD3) =  -132.524722818     A.U. after   12 cycles
 E2(B2PLYPD3) =    -0.1821090296D+00 E(B2PLYPD3) =    -0.13270683184790D+03

 The electronic state is 1-A.
 Alpha  occ. eigenvalues --  -14.84547 -10.67049 -10.66738  -1.03171  -0.89546
 Alpha  occ. eigenvalues --   -0.58578  -0.56540  -0.53202  -0.44539  -0.38768
 Alpha  occ. eigenvalues --   -0.38458
 Alpha virt. eigenvalues --    0.03684   0.07701   0.08693   0.10239   0.10722
 Alpha virt. eigenvalues --    0.11231   0.14760   0.15504   0.16036   0.20119
 Alpha virt. eigenvalues --    0.20232   0.24679   0.32107   0.33656   0.35877

 Mulliken charges:
               1
     1  C   -0.097841
     2  C   -0.003275
     3  N   -0.217424
     4  H    0.115580
     5  H    0.102034
     6  H    0.100926
 Sum of Mulliken charges =   0.00000

 Dipole moment (field-independent basis, Debye):
    X=             -4.1578    Y=             -0.0116    Z=              0.0144  Tot=              4.1579
 Quadrupole moment (field-independent basis, Debye-Ang):
   XX=            -21.3203   YY=            -17.5696   ZZ=            -17.8849
   XY=              0.2674   XZ=             -0.0333   YZ=             -0.0649

 Normal termination of Gaussian 09 at Wed Aug 26 23:52:25 2020.
