 Gaussian 09, Revision D.01,
 Gaussian 09:  ES64L-G09RevD.01 24-Apr-2013

 --------------------
 #p B2PLYPD3/Def2QZVP
 --------------------

 ------------
 cyanomethane
 ------------
 Symbolic Z-matrix:
 Charge =  0 Multiplicity = 1

                         Standard orientation:
 ---------------------------------------------------------------------
 Center     Atomic      Atomic             Coordinates (Angstroms)
 Number     Number       Type             X           Y           Z
 ---------------------------------------------------------------------
      1          6           0        1.173433   -0.004951   -0.001186
      2          6           0       -0.277309    0.037416   -0.002568
      3          7           0       -1.442235   -0.023021   -0.001096
      4          1           0        1.541253    0.886582   -0.453538
      5          1           0        1.638108   -0.862577   -0.534644
      6          1           0        1.539536   -0.057648    1.018379
 ---------------------------------------------------------------------

 SCF Done:  E(RB2PLYPD3) =  -132.532234569     A.U. after   12 cycles
 E2(B2PLYPD3) =    -0.1816154379D+00 E(B2PLYPD3) =    -0.13271385000717D+03

 The electronic state is 1-A.
 Alpha  occ. eigenvalues --  -14.84651 -10.66998 -10.66711  -1.03738  -0.89360
 Alpha  occ. eigenvalues --   -0.60465  -0.54363  -0.53020  -0.44961  -0.38854
 Alpha  occ. eigenvalues --   -0.38770
 Alpha virt. eigenvalues --    0.03666   0.07131   0.07995   0.10078   0.11251
 Alpha virt. eigenvalues --    0.11525   0.15500   0.15964   0.17082   0.20078
 Alpha virt. eigenvalues --    0.20235   0.25565   0.32716   0.34485   0.34814

 Mulliken charges:
               1
     1  C   -0.073347
     2  C    0.003310
     3  N   -0.210774
     4  H    0.094854
     5  H    0.092006
     6  H    0.093952
 Sum of Mulliken charges =   0.00000

 Dipole moment (field-independent basis, Debye):
    X=              4.1490    Y=              0.0399    Z=              0.0101  Tot=              4.1492
 Quadrupole moment (field-independent basis, Debye-Ang):
   XX=            -20.8128   YY=            -17.8397   ZZ=            -17.8493
   XY=             -0.1719   XZ=             -0.0300   YZ=             -0.0368

 Normal termination of Gaussian 09 at Wed Aug 26 14:46:38 2020.
