 Gaussian 09, Revision D.01,
 Gaussian 09:  ES64L-G09RevD.01 24-Apr-2013

 --------------------
 #p B2PLYPD3/Def2QZVP
 --------------------

 ------------
 cyanomethane
 ------------
 Symbolic Z-matrix:
 Charge =  0 Multiplicity = 1

                         Standard orientation:
 ---------------------------------------------------------------------
 Center     Atomic      Atomic             Coordinates (Angstroms)
 Number     Number       Type             X           Y           Z
 ---------------------------------------------------------------------
      1          6           0        1.175550    0.001335    0.007708
      2          6           0       -0.276188    0.001252   -0.006389
      3          7           0       -1.430607   -0.000256   -0.001056
      4          1           0        1.565440   -0.783091   -0.667390
      5          1           0        1.490251   -0.193321    1.007459
      6          1           0        1.562384    0.962680   -0.340591
 ---------------------------------------------------------------------

 SCF Done:  E(RB2PLYPD3) =  -132.535160522     A.U. after   11 cycles
 E2(B2PLYPD3) =    -0.1804209617D+00 E(B2PLYPD3) =    -0.13271558148348D+03

 The electronic state is 1-A.
 Alpha  occ. eigenvalues --  -14.84131 -10.67042 -10.66172  -1.04105  -0.89394
 Alpha  occ. eigenvalues --   -0.59594  -0.54675  -0.53519  -0.44746  -0.39066
 Alpha  occ. eigenvalues --   -0.38957
 Alpha virt. eigenvalues --    0.03773   0.07737   0.08161   0.10182   0.11415
 Alpha virt. eigenvalues --    0.11552   0.15413   0.16156   0.16361   0.20085
 Alpha virt. eigenvalues --    0.20119   0.25432   0.32746   0.34360   0.34912

 Mulliken charges:
               1
     1  C   -0.086617
     2  C   -0.002071
     3  N   -0.206663
     4  H    0.096007
     5  H    0.101725
     6  H    0.097619
 Sum of Mulliken charges =   0.00000

 Dipole moment (field-independent basis, Debye):
    X=              4.1222    Y=             -0.0005    Z=              0.0045  Tot=              4.1222
 Quadrupole moment (field-independent basis, Debye-Ang):
   XX=            -21.0646   YY=            -17.7535   ZZ=            -17.6939
   XY=              0.0056   XZ=             -0.0659   YZ=             -0.0248

 Normal termination of Gaussian 09 at Thu Aug 27 00:12:59 2020.
