 Gaussian 09, Revision D.01,
 Gaussian 09:  ES64L-G09RevD.01 24-Apr-2013

 --------------------
 #p B2PLYPD3/Def2QZVP
 --------------------

 ------------
 cyanomethane
 ------------
 Symbolic Z-matrix:
 Charge =  0 Multiplicity = 1

                         Standard orientation:
 ---------------------------------------------------------------------
 Center     Atomic      Atomic             Coordinates (Angstroms)
 Number     Number       Type             X           Y           Z
 ---------------------------------------------------------------------
      1          6           0        1.180291   -0.004435   -0.000926
      2          6           0       -0.271181    0.022959    0.006177
      3          7           0       -1.432332   -0.013446   -0.006110
      4          1           0        1.503564    1.016978   -0.131360
      5          1           0        1.571867   -0.635062   -0.800593
      6          1           0        1.496231   -0.398937    0.943223
 ---------------------------------------------------------------------

 SCF Done:  E(RB2PLYPD3) =  -132.534077335     A.U. after   12 cycles
 E2(B2PLYPD3) =    -0.1809804690D+00 E(B2PLYPD3) =    -0.13271505780428D+03

 The electronic state is 1-A.
 Alpha  occ. eigenvalues --  -14.84283 -10.66846 -10.66327  -1.03788  -0.89654
 Alpha  occ. eigenvalues --   -0.59461  -0.54835  -0.54063  -0.44716  -0.38821
 Alpha  occ. eigenvalues --   -0.38809
 Alpha virt. eigenvalues --    0.03785   0.07717   0.08238   0.10138   0.11303
 Alpha virt. eigenvalues --    0.11426   0.15399   0.15715   0.16471   0.20124
 Alpha virt. eigenvalues --    0.20171   0.25448   0.32781   0.34637   0.34708

 Mulliken charges:
               1
     1  C   -0.088451
     2  C   -0.001541
     3  N   -0.211024
     4  H    0.100870
     5  H    0.099033
     6  H    0.101113
 Sum of Mulliken charges =   0.00000

 Dipole moment (field-independent basis, Debye):
    X=              4.1280    Y=              0.0146    Z=              0.0151  Tot=              4.1280
 Quadrupole moment (field-independent basis, Debye-Ang):
   XX=            -21.1463   YY=            -17.6730   ZZ=            -17.7459
   XY=             -0.1158   XZ=             -0.0702   YZ=             -0.0185

 Normal termination of Gaussian 09 at Wed Aug 26 21:10:52 2020.
