 Gaussian 09, Revision D.01,
 Gaussian 09:  ES64L-G09RevD.01 24-Apr-2013

 --------------------
 #p B2PLYPD3/Def2QZVP
 --------------------

 ------------
 cyanomethane
 ------------
 Symbolic Z-matrix:
 Charge =  0 Multiplicity = 1

                         Standard orientation:
 ---------------------------------------------------------------------
 Center     Atomic      Atomic             Coordinates (Angstroms)
 Number     Number       Type             X           Y           Z
 ---------------------------------------------------------------------
      1          6           0       -1.171224   -0.006261   -0.000873
      2          6           0        0.276671    0.003731    0.010900
      3          7           0        1.429962   -0.003451   -0.006806
      4          1           0       -1.531568   -0.001540    0.996718
      5          1           0       -1.581511   -0.852946   -0.517054
      6          1           0       -1.529334    0.893822   -0.492184
 ---------------------------------------------------------------------

 SCF Done:  E(RB2PLYPD3) =  -132.535282030     A.U. after   11 cycles
 E2(B2PLYPD3) =    -0.1801721931D+00 E(B2PLYPD3) =    -0.13271545422348D+03

 The electronic state is 1-A.
 Alpha  occ. eigenvalues --  -14.84149 -10.66512 -10.66174  -1.04187  -0.89740
 Alpha  occ. eigenvalues --   -0.60215  -0.54514  -0.53978  -0.44803  -0.39135
 Alpha  occ. eigenvalues --   -0.39034
 Alpha virt. eigenvalues --    0.03845   0.07909   0.08228   0.10168   0.11436
 Alpha virt. eigenvalues --    0.11544   0.15535   0.16106   0.16739   0.20089
 Alpha virt. eigenvalues --    0.20115   0.25531   0.32981   0.34651   0.35131

 Mulliken charges:
               1
     1  C   -0.075209
     2  C   -0.001249
     3  N   -0.206234
     4  H    0.094775
     5  H    0.094730
     6  H    0.093186
 Sum of Mulliken charges =   0.00000

 Dipole moment (field-independent basis, Debye):
    X=             -4.1316    Y=              0.0118    Z=              0.0150  Tot=              4.1316
 Quadrupole moment (field-independent basis, Debye-Ang):
   XX=            -20.9062   YY=            -17.7332   ZZ=            -17.7343
   XY=              0.0389   XZ=              0.0463   YZ=              0.0120

 Normal termination of Gaussian 09 at Wed Aug 26 23:58:33 2020.
