 Gaussian 09, Revision D.01,
 Gaussian 09:  ES64L-G09RevD.01 24-Apr-2013

 --------------------
 #p B2PLYPD3/Def2QZVP
 --------------------

 ------------
 cyanomethane
 ------------
 Symbolic Z-matrix:
 Charge =  0 Multiplicity = 1

                         Standard orientation:
 ---------------------------------------------------------------------
 Center     Atomic      Atomic             Coordinates (Angstroms)
 Number     Number       Type             X           Y           Z
 ---------------------------------------------------------------------
      1          6           0       -1.183557   -0.015346    0.015926
      2          6           0        0.287543    0.017033   -0.032391
      3          7           0        1.423652   -0.005925    0.009215
      4          1           0       -1.436534   -0.308327    0.906874
      5          1           0       -1.584592   -0.646965   -0.701332
      6          1           0       -1.568354    0.986649   -0.171251
 ---------------------------------------------------------------------

 SCF Done:  E(RB2PLYPD3) =  -132.524673044     A.U. after   11 cycles
 E2(B2PLYPD3) =    -0.1783437145D+00 E(B2PLYPD3) =    -0.13270301675830D+03

 The electronic state is 1-A.
 Alpha  occ. eigenvalues --  -14.83648 -10.65689 -10.65400  -1.04779  -0.90438
 Alpha  occ. eigenvalues --   -0.59895  -0.56381  -0.54011  -0.44661  -0.39769
 Alpha  occ. eigenvalues --   -0.39549
 Alpha virt. eigenvalues --    0.04007   0.08612   0.09227   0.10303   0.11379
 Alpha virt. eigenvalues --    0.11560   0.15477   0.16263   0.16636   0.20005
 Alpha virt. eigenvalues --    0.20029   0.25180   0.32876   0.34887   0.36227

 Mulliken charges:
               1
     1  C   -0.073591
     2  C   -0.006082
     3  N   -0.198563
     4  H    0.100819
     5  H    0.089677
     6  H    0.087740
 Sum of Mulliken charges =   0.00000

 Dipole moment (field-independent basis, Debye):
    X=             -4.1147    Y=             -0.0020    Z=             -0.0037  Tot=              4.1147
 Quadrupole moment (field-independent basis, Debye-Ang):
   XX=            -20.8364   YY=            -17.6120   ZZ=            -17.6388
   XY=              0.0339   XZ=              0.0295   YZ=             -0.0179

 Normal termination of Gaussian 09 at Wed Aug 26 20:59:37 2020.
