 Gaussian 09, Revision D.01,
 Gaussian 09:  ES64L-G09RevD.01 24-Apr-2013

 --------------------
 #p B2PLYPD3/Def2QZVP
 --------------------

 ------------
 cyanomethane
 ------------
 Symbolic Z-matrix:
 Charge =  0 Multiplicity = 1

                         Standard orientation:
 ---------------------------------------------------------------------
 Center     Atomic      Atomic             Coordinates (Angstroms)
 Number     Number       Type             X           Y           Z
 ---------------------------------------------------------------------
      1          6           0       -1.178963    0.004703   -0.003406
      2          6           0        0.278782    0.014937   -0.031289
      3          7           0        1.445837   -0.006241    0.008296
      4          1           0       -1.625204   -0.842972   -0.592820
      5          1           0       -1.642570    0.956185   -0.312424
      6          1           0       -1.452000   -0.187363    1.055341
 ---------------------------------------------------------------------

 SCF Done:  E(RB2PLYPD3) =  -132.531339891     A.U. after   12 cycles
 E2(B2PLYPD3) =    -0.1820438023D+00 E(B2PLYPD3) =    -0.13271338369336D+03

 The electronic state is 1-A.
 Alpha  occ. eigenvalues --  -14.84656 -10.67884 -10.66805  -1.03639  -0.88719
 Alpha  occ. eigenvalues --   -0.59917  -0.53591  -0.52828  -0.44914  -0.38852
 Alpha  occ. eigenvalues --   -0.38585
 Alpha virt. eigenvalues --    0.03590   0.07135   0.07460   0.10179   0.11232
 Alpha virt. eigenvalues --    0.11583   0.15263   0.15864   0.17026   0.20113
 Alpha virt. eigenvalues --    0.20181   0.25354   0.32196   0.33836   0.34757

 Mulliken charges:
               1
     1  C   -0.087353
     2  C    0.004464
     3  N   -0.211300
     4  H    0.096248
     5  H    0.099323
     6  H    0.098618
 Sum of Mulliken charges =   0.00000

 Dipole moment (field-independent basis, Debye):
    X=             -4.1509    Y=             -0.0026    Z=              0.0248  Tot=              4.1510
 Quadrupole moment (field-independent basis, Debye-Ang):
   XX=            -20.9502   YY=            -17.7888   ZZ=            -17.9478
   XY=              0.0246   XZ=              0.0189   YZ=             -0.0164

 Normal termination of Gaussian 09 at Wed Aug 26 11:58:10 2020.
