 Gaussian 09, Revision D.01,
 Gaussian 09:  ES64L-G09RevD.01 24-Apr-2013

 --------------------
 #p B2PLYPD3/Def2QZVP
 --------------------

 ------------
 cyanomethane
 ------------
 Symbolic Z-matrix:
 Charge =  0 Multiplicity = 1

                         Standard orientation:
 ---------------------------------------------------------------------
 Center     Atomic      Atomic             Coordinates (Angstroms)
 Number     Number       Type             X           Y           Z
 ---------------------------------------------------------------------
      1          6           0        1.165252    0.001873   -0.005727
      2          6           0       -0.273674   -0.023456    0.019290
      3          7           0       -1.434251    0.017300   -0.009652
      4          1           0        1.514326   -0.718904   -0.706455
      5          1           0        1.542812   -0.253879    0.958277
      6          1           0        1.633146    0.981184   -0.265637
 ---------------------------------------------------------------------

 SCF Done:  E(RB2PLYPD3) =  -132.532530245     A.U. after   12 cycles
 E2(B2PLYPD3) =    -0.1811021380D+00 E(B2PLYPD3) =    -0.13271363238281D+03

 The electronic state is 1-A.
 Alpha  occ. eigenvalues --  -14.84460 -10.66695 -10.66468  -1.03939  -0.89704
 Alpha  occ. eigenvalues --   -0.60617  -0.54602  -0.53221  -0.44925  -0.38911
 Alpha  occ. eigenvalues --   -0.38817
 Alpha virt. eigenvalues --    0.03715   0.07256   0.08127   0.10096   0.11381
 Alpha virt. eigenvalues --    0.11576   0.15592   0.15954   0.17095   0.20099
 Alpha virt. eigenvalues --    0.20206   0.25755   0.32913   0.34505   0.34951

 Mulliken charges:
               1
     1  C   -0.072179
     2  C    0.002346
     3  N   -0.209355
     4  H    0.095347
     5  H    0.092590
     6  H    0.091251
 Sum of Mulliken charges =   0.00000

 Dipole moment (field-independent basis, Debye):
    X=              4.1410    Y=             -0.0413    Z=              0.0234  Tot=              4.1413
 Quadrupole moment (field-independent basis, Debye-Ang):
   XX=            -20.8140   YY=            -17.7958   ZZ=            -17.8111
   XY=              0.1454   XZ=             -0.0302   YZ=              0.0344

 Normal termination of Gaussian 09 at Wed Aug 26 11:38:29 2020.
