 Gaussian 09, Revision D.01,
 Gaussian 09:  ES64L-G09RevD.01 24-Apr-2013

 --------------------
 #p B2PLYPD3/Def2QZVP
 --------------------

 ------------
 cyanomethane
 ------------
 Symbolic Z-matrix:
 Charge =  0 Multiplicity = 1

                         Standard orientation:
 ---------------------------------------------------------------------
 Center     Atomic      Atomic             Coordinates (Angstroms)
 Number     Number       Type             X           Y           Z
 ---------------------------------------------------------------------
      1          6           0        1.170250    0.013196   -0.016438
      2          6           0       -0.278666   -0.035105   -0.015565
      3          7           0       -1.425557    0.017178    0.009530
      4          1           0        1.545614    1.044540   -0.086285
      5          1           0        1.546733   -0.629791   -0.761963
      6          1           0        1.537050   -0.403543    0.973558
 ---------------------------------------------------------------------

 SCF Done:  E(RB2PLYPD3) =  -132.533016335     A.U. after   12 cycles
 E2(B2PLYPD3) =    -0.1800879886D+00 E(B2PLYPD3) =    -0.13271310432382D+03

 The electronic state is 1-A.
 Alpha  occ. eigenvalues --  -14.83987 -10.67213 -10.66000  -1.04375  -0.89234
 Alpha  occ. eigenvalues --   -0.59649  -0.55028  -0.52652  -0.44760  -0.39323
 Alpha  occ. eigenvalues --   -0.38920
 Alpha virt. eigenvalues --    0.03658   0.07512   0.08345   0.10140   0.11344
 Alpha virt. eigenvalues --    0.11841   0.15456   0.15859   0.16868   0.19990
 Alpha virt. eigenvalues --    0.20143   0.25587   0.32761   0.33695   0.35242

 Mulliken charges:
               1
     1  C   -0.088152
     2  C   -0.001278
     3  N   -0.203242
     4  H    0.101792
     5  H    0.100397
     6  H    0.090483
 Sum of Mulliken charges =   0.00000

 Dipole moment (field-independent basis, Debye):
    X=              4.1027    Y=             -0.0401    Z=             -0.0009  Tot=              4.1028
 Quadrupole moment (field-independent basis, Debye-Ang):
   XX=            -21.0518   YY=            -17.5993   ZZ=            -17.8412
   XY=              0.0570   XZ=              0.0847   YZ=              0.0670

 Normal termination of Gaussian 09 at Wed Aug 26 12:29:23 2020.
