 Gaussian 09, Revision D.01,
 Gaussian 09:  ES64L-G09RevD.01 24-Apr-2013

 --------------------
 #p B2PLYPD3/Def2QZVP
 --------------------

 ------------
 cyanomethane
 ------------
 Symbolic Z-matrix:
 Charge =  0 Multiplicity = 1

                         Standard orientation:
 ---------------------------------------------------------------------
 Center     Atomic      Atomic             Coordinates (Angstroms)
 Number     Number       Type             X           Y           Z
 ---------------------------------------------------------------------
      1          6           0       -1.179983   -0.002171   -0.010093
      2          6           0        0.282165    0.010770    0.014007
      3          7           0        1.436407   -0.002149   -0.005829
      4          1           0       -1.554520   -0.193093    0.995017
      5          1           0       -1.517880   -0.803431   -0.640563
      6          1           0       -1.595543    0.959973   -0.337136
 ---------------------------------------------------------------------

 SCF Done:  E(RB2PLYPD3) =  -132.535356698     A.U. after   12 cycles
 E2(B2PLYPD3) =    -0.1804427195D+00 E(B2PLYPD3) =    -0.13271579941706D+03

 The electronic state is 1-A.
 Alpha  occ. eigenvalues --  -14.84213 -10.67104 -10.66295  -1.04117  -0.89172
 Alpha  occ. eigenvalues --   -0.59739  -0.54317  -0.53455  -0.44798  -0.39166
 Alpha  occ. eigenvalues --   -0.39031
 Alpha virt. eigenvalues --    0.03763   0.07835   0.08056   0.10194   0.11366
 Alpha virt. eigenvalues --    0.11512   0.15367   0.16099   0.16695   0.20064
 Alpha virt. eigenvalues --    0.20107   0.25278   0.32665   0.34419   0.34995

 Mulliken charges:
               1
     1  C   -0.081959
     2  C   -0.001233
     3  N   -0.205934
     4  H    0.093455
     5  H    0.099169
     6  H    0.096503
 Sum of Mulliken charges =   0.00000

 Dipole moment (field-independent basis, Debye):
    X=             -4.1333    Y=             -0.0094    Z=              0.0226  Tot=              4.1334
 Quadrupole moment (field-independent basis, Debye-Ang):
   XX=            -20.9605   YY=            -17.6887   ZZ=            -17.8388
   XY=             -0.0168   XZ=             -0.0132   YZ=              0.0221

 Normal termination of Gaussian 09 at Wed Aug 26 23:07:35 2020.
