 Gaussian 09, Revision D.01,
 Gaussian 09:  ES64L-G09RevD.01 24-Apr-2013

 --------------------
 #p B2PLYPD3/Def2QZVP
 --------------------

 ------------
 cyanomethane
 ------------
 Symbolic Z-matrix:
 Charge =  0 Multiplicity = 1

                         Standard orientation:
 ---------------------------------------------------------------------
 Center     Atomic      Atomic             Coordinates (Angstroms)
 Number     Number       Type             X           Y           Z
 ---------------------------------------------------------------------
      1          6           0        1.191068    0.009876    0.004082
      2          6           0       -0.281013   -0.028324   -0.018305
      3          7           0       -1.431198    0.011119    0.007366
      4          1           0        1.480803    1.004316    0.023673
      5          1           0        1.560235   -0.472360   -0.847345
      6          1           0        1.517015   -0.499100    0.857450
 ---------------------------------------------------------------------

 SCF Done:  E(RB2PLYPD3) =  -132.532216981     A.U. after   11 cycles
 E2(B2PLYPD3) =    -0.1795931270D+00 E(B2PLYPD3) =    -0.13271181010829D+03

 The electronic state is 1-A.
 Alpha  occ. eigenvalues --  -14.83993 -10.66057 -10.65832  -1.04165  -0.90154
 Alpha  occ. eigenvalues --   -0.59407  -0.55550  -0.54932  -0.44644  -0.39276
 Alpha  occ. eigenvalues --   -0.39230
 Alpha virt. eigenvalues --    0.03958   0.08683   0.08709   0.10249   0.11275
 Alpha virt. eigenvalues --    0.11308   0.15349   0.16070   0.16298   0.20071
 Alpha virt. eigenvalues --    0.20102   0.25107   0.32913   0.35247   0.35489

 Mulliken charges:
               1
     1  C   -0.075909
     2  C   -0.005794
     3  N   -0.206282
     4  H    0.098865
     5  H    0.093636
     6  H    0.095485
 Sum of Mulliken charges =   0.00000

 Dipole moment (field-independent basis, Debye):
    X=              4.1338    Y=             -0.0188    Z=             -0.0088  Tot=              4.1339
 Quadrupole moment (field-independent basis, Debye-Ang):
   XX=            -20.9976   YY=            -17.6146   ZZ=            -17.6895
   XY=              0.0033   XZ=              0.0120   YZ=             -0.0069

 Normal termination of Gaussian 09 at Wed Aug 26 14:15:09 2020.
