 Gaussian 09, Revision D.01,
 Gaussian 09:  ES64L-G09RevD.01 24-Apr-2013

 --------------------
 #p B2PLYPD3/Def2QZVP
 --------------------

 ------------
 cyanomethane
 ------------
 Symbolic Z-matrix:
 Charge =  0 Multiplicity = 1

                         Standard orientation:
 ---------------------------------------------------------------------
 Center     Atomic      Atomic             Coordinates (Angstroms)
 Number     Number       Type             X           Y           Z
 ---------------------------------------------------------------------
      1          6           0        1.193594   -0.004562   -0.005785
      2          6           0       -0.282578    0.011513   -0.020479
      3          7           0       -1.439687   -0.000064    0.018061
      4          1           0        1.615001   -0.240900    0.958279
      5          1           0        1.579560    0.970880   -0.277200
      6          1           0        1.417158   -0.771234   -0.649922
 ---------------------------------------------------------------------

 SCF Done:  E(RB2PLYPD3) =  -132.530067255     A.U. after   12 cycles
 E2(B2PLYPD3) =    -0.1805313423D+00 E(B2PLYPD3) =    -0.13271059859740D+03

 The electronic state is 1-A.
 Alpha  occ. eigenvalues --  -14.84254 -10.66533 -10.66369  -1.03930  -0.89687
 Alpha  occ. eigenvalues --   -0.59564  -0.55870  -0.53189  -0.44715  -0.39164
 Alpha  occ. eigenvalues --   -0.38980
 Alpha virt. eigenvalues --    0.03827   0.07731   0.08816   0.10224   0.11069
 Alpha virt. eigenvalues --    0.11477   0.15192   0.15821   0.16768   0.20048
 Alpha virt. eigenvalues --    0.20182   0.24993   0.32557   0.34589   0.35520

 Mulliken charges:
               1
     1  C   -0.082045
     2  C   -0.002460
     3  N   -0.208578
     4  H    0.091235
     5  H    0.097978
     6  H    0.103870
 Sum of Mulliken charges =   0.00000

 Dipole moment (field-independent basis, Debye):
    X=              4.1454    Y=             -0.0175    Z=             -0.0099  Tot=              4.1455
 Quadrupole moment (field-independent basis, Debye-Ang):
   XX=            -20.9831   YY=            -17.5837   ZZ=            -17.8873
   XY=              0.0594   XZ=              0.2600   YZ=              0.0625

 Normal termination of Gaussian 09 at Wed Aug 26 15:51:30 2020.
