 Gaussian 09, Revision D.01,
 Gaussian 09:  ES64L-G09RevD.01 24-Apr-2013

 --------------------
 #p B2PLYPD3/Def2QZVP
 --------------------

 ------------
 cyanomethane
 ------------
 Symbolic Z-matrix:
 Charge =  0 Multiplicity = 1

                         Standard orientation:
 ---------------------------------------------------------------------
 Center     Atomic      Atomic             Coordinates (Angstroms)
 Number     Number       Type             X           Y           Z
 ---------------------------------------------------------------------
      1          6           0        1.197934   -0.020048    0.006887
      2          6           0       -0.291928   -0.061702    0.007624
      3          7           0       -1.439319    0.033351   -0.005299
      4          1           0        1.537030    0.190125    1.002200
      5          1           0        1.538236    0.967360   -0.606635
      6          1           0        1.563933   -0.900433   -0.445540
 ---------------------------------------------------------------------

 SCF Done:  E(RB2PLYPD3) =  -132.524521952     A.U. after   12 cycles
 E2(B2PLYPD3) =    -0.1807071067D+00 E(B2PLYPD3) =    -0.13270522905894D+03

 The electronic state is 1-A.
 Alpha  occ. eigenvalues --  -14.84118 -10.68157 -10.66253  -1.04163  -0.88317
 Alpha  occ. eigenvalues --   -0.58619  -0.55789  -0.51135  -0.44695  -0.39479
 Alpha  occ. eigenvalues --   -0.38808
 Alpha virt. eigenvalues --    0.03212   0.07309   0.08665   0.10194   0.10873
 Alpha virt. eigenvalues --    0.11770   0.15056   0.16099   0.16307   0.19880
 Alpha virt. eigenvalues --    0.20156   0.24836   0.31485   0.32866   0.35756

 Mulliken charges:
               1
     1  C   -0.101737
     2  C   -0.001512
     3  N   -0.203243
     4  H    0.104362
     5  H    0.092016
     6  H    0.110114
 Sum of Mulliken charges =   0.00000

 Dipole moment (field-independent basis, Debye):
    X=              4.1037    Y=             -0.0357    Z=              0.0397  Tot=              4.1041
 Quadrupole moment (field-independent basis, Debye-Ang):
   XX=            -21.2109   YY=            -17.6272   ZZ=            -17.8818
   XY=              0.2076   XZ=              0.0225   YZ=              0.1727

 Normal termination of Gaussian 09 at Wed Aug 26 16:39:17 2020.
