 Gaussian 09, Revision D.01,
 Gaussian 09:  ES64L-G09RevD.01 24-Apr-2013

 --------------------
 #p B2PLYPD3/Def2QZVP
 --------------------

 ------------
 cyanomethane
 ------------
 Symbolic Z-matrix:
 Charge =  0 Multiplicity = 1

                         Standard orientation:
 ---------------------------------------------------------------------
 Center     Atomic      Atomic             Coordinates (Angstroms)
 Number     Number       Type             X           Y           Z
 ---------------------------------------------------------------------
      1          6           0       -1.176709   -0.008076    0.007127
      2          6           0        0.289149   -0.007758   -0.038165
      3          7           0        1.436904    0.010790    0.021107
      4          1           0       -1.580031   -0.259292    0.988732
      5          1           0       -1.505707   -0.724819   -0.698335
      6          1           0       -1.647232    1.003588   -0.251917
 ---------------------------------------------------------------------

 SCF Done:  E(RB2PLYPD3) =  -132.531802749     A.U. after   12 cycles
 E2(B2PLYPD3) =    -0.1802826156D+00 E(B2PLYPD3) =    -0.13271208536484D+03

 The electronic state is 1-A.
 Alpha  occ. eigenvalues --  -14.84192 -10.67405 -10.66272  -1.04391  -0.88831
 Alpha  occ. eigenvalues --   -0.59915  -0.54362  -0.52339  -0.44884  -0.39344
 Alpha  occ. eigenvalues --   -0.39174
 Alpha virt. eigenvalues --    0.03616   0.07263   0.08374   0.10147   0.11340
 Alpha virt. eigenvalues --    0.11691   0.15399   0.16105   0.17125   0.19960
 Alpha virt. eigenvalues --    0.20147   0.25317   0.32449   0.34264   0.34932

 Mulliken charges:
               1
     1  C   -0.081117
     2  C    0.000287
     3  N   -0.202039
     4  H    0.095209
     5  H    0.098041
     6  H    0.089619
 Sum of Mulliken charges =   0.00000

 Dipole moment (field-independent basis, Debye):
    X=             -4.1179    Y=             -0.0359    Z=             -0.0247  Tot=              4.1181
 Quadrupole moment (field-independent basis, Debye-Ang):
   XX=            -20.8481   YY=            -17.8022   ZZ=            -17.8157
   XY=             -0.1195   XZ=             -0.1661   YZ=              0.0554

 Normal termination of Gaussian 09 at Wed Aug 26 11:03:25 2020.
