 Gaussian 09, Revision D.01,
 Gaussian 09:  ES64L-G09RevD.01 24-Apr-2013

 --------------------
 #p B2PLYPD3/Def2QZVP
 --------------------

 ------------
 cyanomethane
 ------------
 Symbolic Z-matrix:
 Charge =  0 Multiplicity = 1

                         Standard orientation:
 ---------------------------------------------------------------------
 Center     Atomic      Atomic             Coordinates (Angstroms)
 Number     Number       Type             X           Y           Z
 ---------------------------------------------------------------------
      1          6           0       -1.179019    0.005194    0.009024
      2          6           0        0.275751    0.029423    0.016701
      3          7           0        1.423411   -0.011662   -0.008474
      4          1           0       -1.503927   -0.502922    0.890794
      5          1           0       -1.471091   -0.618626   -0.883121
      6          1           0       -1.569250    0.995481   -0.102707
 ---------------------------------------------------------------------

 SCF Done:  E(RB2PLYPD3) =  -132.533961035     A.U. after   11 cycles
 E2(B2PLYPD3) =    -0.1799489091D+00 E(B2PLYPD3) =    -0.13271390994400D+03

 The electronic state is 1-A.
 Alpha  occ. eigenvalues --  -14.83861 -10.67085 -10.65904  -1.04272  -0.89412
 Alpha  occ. eigenvalues --   -0.59068  -0.55338  -0.53320  -0.44620  -0.39266
 Alpha  occ. eigenvalues --   -0.38905
 Alpha virt. eigenvalues --    0.03720   0.07947   0.08424   0.10195   0.11299
 Alpha virt. eigenvalues --    0.11761   0.15362   0.15845   0.16328   0.20021
 Alpha virt. eigenvalues --    0.20148   0.25382   0.32820   0.33640   0.35377

 Mulliken charges:
               1
     1  C   -0.096171
     2  C   -0.003822
     3  N   -0.204722
     4  H    0.103656
     5  H    0.097707
     6  H    0.103351
 Sum of Mulliken charges =   0.00000

 Dipole moment (field-independent basis, Debye):
    X=             -4.1004    Y=              0.0014    Z=              0.0052  Tot=              4.1004
 Quadrupole moment (field-independent basis, Debye-Ang):
   XX=            -21.2286   YY=            -17.6005   ZZ=            -17.7140
   XY=              0.0273   XZ=              0.0473   YZ=             -0.0659

 Normal termination of Gaussian 09 at Wed Aug 26 11:56:44 2020.
