 Gaussian 09, Revision D.01,
 Gaussian 09:  ES64L-G09RevD.01 24-Apr-2013

 --------------------
 #p B2PLYPD3/Def2QZVP
 --------------------

 ------------
 cyanomethane
 ------------
 Symbolic Z-matrix:
 Charge =  0 Multiplicity = 1

                         Standard orientation:
 ---------------------------------------------------------------------
 Center     Atomic      Atomic             Coordinates (Angstroms)
 Number     Number       Type             X           Y           Z
 ---------------------------------------------------------------------
      1          6           0       -1.188051    0.024307   -0.001789
      2          6           0        0.277260   -0.006006    0.033467
      3          7           0        1.440543   -0.000451   -0.020915
      4          1           0       -1.494501   -0.264144    0.970328
      5          1           0       -1.584461   -0.802270   -0.698566
      6          1           0       -1.540091    0.959761   -0.315424
 ---------------------------------------------------------------------

 SCF Done:  E(RB2PLYPD3) =  -132.529268836     A.U. after   12 cycles
 E2(B2PLYPD3) =    -0.1814034128D+00 E(B2PLYPD3) =    -0.13271067224863D+03

 The electronic state is 1-A.
 Alpha  occ. eigenvalues --  -14.84450 -10.67163 -10.66539  -1.03683  -0.89334
 Alpha  occ. eigenvalues --   -0.59424  -0.55756  -0.52550  -0.44768  -0.39021
 Alpha  occ. eigenvalues --   -0.38610
 Alpha virt. eigenvalues --    0.03616   0.07377   0.08379   0.10114   0.11051
 Alpha virt. eigenvalues --    0.11519   0.15298   0.15579   0.16785   0.20062
 Alpha virt. eigenvalues --    0.20204   0.25240   0.32298   0.33674   0.35546

 Mulliken charges:
               1
     1  C   -0.088381
     2  C    0.000095
     3  N   -0.211236
     4  H    0.100775
     5  H    0.092138
     6  H    0.106609
 Sum of Mulliken charges =   0.00000

 Dipole moment (field-independent basis, Debye):
    X=             -4.1354    Y=             -0.0114    Z=              0.0478  Tot=              4.1357
 Quadrupole moment (field-independent basis, Debye-Ang):
   XX=            -21.1015   YY=            -17.6690   ZZ=            -17.8535
   XY=              0.0618   XZ=              0.1332   YZ=             -0.1062

 Normal termination of Gaussian 09 at Wed Aug 26 11:59:26 2020.
