 Gaussian 09, Revision D.01,
 Gaussian 09:  ES64L-G09RevD.01 24-Apr-2013

 --------------------
 #p B2PLYPD3/Def2QZVP
 --------------------

 ------------
 cyanomethane
 ------------
 Symbolic Z-matrix:
 Charge =  0 Multiplicity = 1

                         Standard orientation:
 ---------------------------------------------------------------------
 Center     Atomic      Atomic             Coordinates (Angstroms)
 Number     Number       Type             X           Y           Z
 ---------------------------------------------------------------------
      1          6           0        1.177630   -0.003684   -0.002285
      2          6           0       -0.278482    0.021360   -0.002057
      3          7           0       -1.440670   -0.008229    0.000864
      4          1           0        1.598287    0.946240   -0.367614
      5          1           0        1.539796   -0.825950   -0.629210
      6          1           0        1.551721   -0.168743    1.016824
 ---------------------------------------------------------------------

 SCF Done:  E(RB2PLYPD3) =  -132.534535426     A.U. after   11 cycles
 E2(B2PLYPD3) =    -0.1812978875D+00 E(B2PLYPD3) =    -0.13271583331328D+03

 The electronic state is 1-A.
 Alpha  occ. eigenvalues --  -14.84472 -10.67410 -10.66555  -1.03827  -0.89026
 Alpha  occ. eigenvalues --   -0.59883  -0.53769  -0.53479  -0.44866  -0.38901
 Alpha  occ. eigenvalues --   -0.38842
 Alpha virt. eigenvalues --    0.03697   0.07597   0.07611   0.10159   0.11353
 Alpha virt. eigenvalues --    0.11461   0.15383   0.16289   0.16458   0.20093
 Alpha virt. eigenvalues --    0.20139   0.25382   0.32552   0.34393   0.34630

 Mulliken charges:
               1
     1  C   -0.082982
     2  C    0.001089
     3  N   -0.209236
     4  H    0.096391
     5  H    0.098388
     6  H    0.096351
 Sum of Mulliken charges =   0.00000

 Dipole moment (field-independent basis, Debye):
    X=              4.1405    Y=              0.0031    Z=              0.0064  Tot=              4.1405
 Quadrupole moment (field-independent basis, Debye-Ang):
   XX=            -20.9671   YY=            -17.7758   ZZ=            -17.8415
   XY=             -0.0180   XZ=              0.0163   YZ=              0.0072

 Normal termination of Gaussian 09 at Thu Aug 27 00:01:21 2020.
