 Gaussian 09, Revision D.01,
 Gaussian 09:  ES64L-G09RevD.01 24-Apr-2013

 --------------------
 #p B2PLYPD3/Def2QZVP
 --------------------

 ------------
 cyanomethane
 ------------
 Symbolic Z-matrix:
 Charge =  0 Multiplicity = 1

                         Standard orientation:
 ---------------------------------------------------------------------
 Center     Atomic      Atomic             Coordinates (Angstroms)
 Number     Number       Type             X           Y           Z
 ---------------------------------------------------------------------
      1          6           0       -1.155033   -0.001334   -0.006312
      2          6           0        0.265544   -0.035793    0.006645
      3          7           0        1.432165    0.020487   -0.002548
      4          1           0       -1.555876   -0.384288    0.903167
      5          1           0       -1.547429   -0.551367   -0.797677
      6          1           0       -1.584916    1.015013   -0.089649
 ---------------------------------------------------------------------

 SCF Done:  E(RB2PLYPD3) =  -132.530635773     A.U. after   12 cycles
 E2(B2PLYPD3) =    -0.1815417091D+00 E(B2PLYPD3) =    -0.13271217748177D+03

 The electronic state is 1-A.
 Alpha  occ. eigenvalues --  -14.84631 -10.66582 -10.66153  -1.03750  -0.90264
 Alpha  occ. eigenvalues --   -0.61395  -0.55033  -0.53315  -0.44990  -0.38775
 Alpha  occ. eigenvalues --   -0.38558
 Alpha virt. eigenvalues --    0.03750   0.07204   0.07947   0.10055   0.11313
 Alpha virt. eigenvalues --    0.11651   0.15743   0.16273   0.16868   0.20119
 Alpha virt. eigenvalues --    0.20240   0.26066   0.33151   0.34410   0.35307

 Mulliken charges:
               1
     1  C   -0.060990
     2  C    0.004193
     3  N   -0.212641
     4  H    0.089386
     5  H    0.092666
     6  H    0.087387
 Sum of Mulliken charges =   0.00000

 Dipole moment (field-independent basis, Debye):
    X=             -4.1550    Y=             -0.0318    Z=              0.0085  Tot=              4.1551
 Quadrupole moment (field-independent basis, Debye-Ang):
   XX=            -20.7182   YY=            -17.8419   ZZ=            -17.7834
   XY=             -0.1324   XZ=             -0.0035   YZ=              0.0343

 Normal termination of Gaussian 09 at Wed Aug 26 13:30:52 2020.
