 Gaussian 09, Revision D.01,
 Gaussian 09:  ES64L-G09RevD.01 24-Apr-2013

 --------------------
 #p B2PLYPD3/Def2QZVP
 --------------------

 ------------
 cyanomethane
 ------------
 Symbolic Z-matrix:
 Charge =  0 Multiplicity = 1

                         Standard orientation:
 ---------------------------------------------------------------------
 Center     Atomic      Atomic             Coordinates (Angstroms)
 Number     Number       Type             X           Y           Z
 ---------------------------------------------------------------------
      1          6           0       -1.198804    0.013099    0.017486
      2          6           0        0.262082   -0.071151   -0.020210
      3          7           0        1.441584    0.043531    0.008037
      4          1           0       -1.451844   -0.248076    0.944447
      5          1           0       -1.419990   -0.709606   -0.705756
      6          1           0       -1.598923    1.001278   -0.278608
 ---------------------------------------------------------------------

 SCF Done:  E(RB2PLYPD3) =  -132.517269103     A.U. after   13 cycles
 E2(B2PLYPD3) =    -0.1831055127D+00 E(B2PLYPD3) =    -0.13270037461555D+03

 The electronic state is 1-A.
 Alpha  occ. eigenvalues --  -14.84918 -10.66977 -10.66095  -1.02889  -0.90540
 Alpha  occ. eigenvalues --   -0.59347  -0.56643  -0.54118  -0.44699  -0.38441
 Alpha  occ. eigenvalues --   -0.38151
 Alpha virt. eigenvalues --    0.03536   0.07320   0.08743   0.09887   0.10875
 Alpha virt. eigenvalues --    0.11149   0.14732   0.15400   0.16829   0.20230
 Alpha virt. eigenvalues --    0.20303   0.25518   0.32659   0.34243   0.35593

 Mulliken charges:
               1
     1  C   -0.093533
     2  C    0.002636
     3  N   -0.222111
     4  H    0.108544
     5  H    0.103547
     6  H    0.100916
 Sum of Mulliken charges =   0.00000

 Dipole moment (field-independent basis, Debye):
    X=             -4.1304    Y=             -0.0671    Z=             -0.0156  Tot=              4.1310
 Quadrupole moment (field-independent basis, Debye-Ang):
   XX=            -21.2539   YY=            -17.7167   ZZ=            -17.7123
   XY=             -0.3144   XZ=             -0.0148   YZ=             -0.0156

 Normal termination of Gaussian 09 at Wed Aug 26 22:21:58 2020.
