 Gaussian 09, Revision D.01,
 Gaussian 09:  ES64L-G09RevD.01 24-Apr-2013

 --------------------
 #p B2PLYPD3/Def2QZVP
 --------------------

 ------------
 cyanomethane
 ------------
 Symbolic Z-matrix:
 Charge =  0 Multiplicity = 1

                         Standard orientation:
 ---------------------------------------------------------------------
 Center     Atomic      Atomic             Coordinates (Angstroms)
 Number     Number       Type             X           Y           Z
 ---------------------------------------------------------------------
      1          6           0        1.160534    0.017493    0.009316
      2          6           0       -0.261826   -0.002973   -0.046744
      3          7           0       -1.434228    0.001101    0.023231
      4          1           0        1.568791    1.018361   -0.124941
      5          1           0        1.537432   -0.686805   -0.786925
      6          1           0        1.541124   -0.426382    0.973820
 ---------------------------------------------------------------------

 SCF Done:  E(RB2PLYPD3) =  -132.529149953     A.U. after   12 cycles
 E2(B2PLYPD3) =    -0.1826766102D+00 E(B2PLYPD3) =    -0.13271182656277D+03

 The electronic state is 1-A.
 Alpha  occ. eigenvalues --  -14.84733 -10.67606 -10.66710  -1.03435  -0.89360
 Alpha  occ. eigenvalues --   -0.60161  -0.54448  -0.52666  -0.44921  -0.38530
 Alpha  occ. eigenvalues --   -0.38169
 Alpha virt. eigenvalues --    0.03551   0.06793   0.07271   0.09997   0.11265
 Alpha virt. eigenvalues --    0.11686   0.15558   0.15676   0.16811   0.20138
 Alpha virt. eigenvalues --    0.20247   0.26029   0.32574   0.33556   0.34740

 Mulliken charges:
               1
     1  C   -0.088859
     2  C    0.005454
     3  N   -0.215016
     4  H    0.104616
     5  H    0.095480
     6  H    0.098324
 Sum of Mulliken charges =   0.00000

 Dipole moment (field-independent basis, Debye):
    X=              4.1307    Y=             -0.0220    Z=             -0.0225  Tot=              4.1308
 Quadrupole moment (field-independent basis, Debye-Ang):
   XX=            -21.0860   YY=            -17.6897   ZZ=            -17.9424
   XY=             -0.0241   XZ=              0.1375   YZ=             -0.0199

 Normal termination of Gaussian 09 at Wed Aug 26 11:02:33 2020.
