 Gaussian 09, Revision D.01,
 Gaussian 09:  ES64L-G09RevD.01 24-Apr-2013

 --------------------
 #p B2PLYPD3/Def2QZVP
 --------------------

 ------------
 cyanomethane
 ------------
 Symbolic Z-matrix:
 Charge =  0 Multiplicity = 1

                         Standard orientation:
 ---------------------------------------------------------------------
 Center     Atomic      Atomic             Coordinates (Angstroms)
 Number     Number       Type             X           Y           Z
 ---------------------------------------------------------------------
      1          6           0       -1.206202   -0.002260    0.008226
      2          6           0        0.291504    0.043999   -0.002614
      3          7           0        1.442724   -0.020934   -0.009053
      4          1           0       -1.396063   -0.340569    0.930392
      5          1           0       -1.620861   -0.739313   -0.696905
      6          1           0       -1.593955    0.975986   -0.203787
 ---------------------------------------------------------------------

 SCF Done:  E(RB2PLYPD3) =  -132.526738625     A.U. after   12 cycles
 E2(B2PLYPD3) =    -0.1801114991D+00 E(B2PLYPD3) =    -0.13270685012371D+03

 The electronic state is 1-A.
 Alpha  occ. eigenvalues --  -14.84131 -10.66603 -10.66287  -1.04073  -0.89520
 Alpha  occ. eigenvalues --   -0.58873  -0.56011  -0.53324  -0.44649  -0.39376
 Alpha  occ. eigenvalues --   -0.39180
 Alpha virt. eigenvalues --    0.03768   0.07936   0.09107   0.10281   0.11013
 Alpha virt. eigenvalues --    0.11393   0.15123   0.15592   0.16887   0.20001
 Alpha virt. eigenvalues --    0.20152   0.24634   0.32243   0.34650   0.35705

 Mulliken charges:
               1
     1  C   -0.088530
     2  C   -0.005151
     3  N   -0.205698
     4  H    0.106593
     5  H    0.092644
     6  H    0.100142
 Sum of Mulliken charges =   0.00000

 Dipole moment (field-independent basis, Debye):
    X=             -4.1453    Y=              0.0052    Z=              0.0399  Tot=              4.1455
 Quadrupole moment (field-independent basis, Debye-Ang):
   XX=            -20.9932   YY=            -17.5975   ZZ=            -17.8422
   XY=              0.1389   XZ=              0.1619   YZ=             -0.0781

 Normal termination of Gaussian 09 at Wed Aug 26 21:33:11 2020.
