 Gaussian 09, Revision D.01,
 Gaussian 09:  ES64L-G09RevD.01 24-Apr-2013

 --------------------
 #p B2PLYPD3/Def2QZVP
 --------------------

 ------------
 cyanomethane
 ------------
 Symbolic Z-matrix:
 Charge =  0 Multiplicity = 1

                         Standard orientation:
 ---------------------------------------------------------------------
 Center     Atomic      Atomic             Coordinates (Angstroms)
 Number     Number       Type             X           Y           Z
 ---------------------------------------------------------------------
      1          6           0        1.190054   -0.003493   -0.019505
      2          6           0       -0.291413   -0.033736   -0.010649
      3          7           0       -1.433817    0.015546    0.010936
      4          1           0        1.600205   -0.186411    1.025258
      5          1           0        1.500348    1.012239   -0.271326
      6          1           0        1.544322   -0.711272   -0.649557
 ---------------------------------------------------------------------

 SCF Done:  E(RB2PLYPD3) =  -132.530022294     A.U. after   12 cycles
 E2(B2PLYPD3) =    -0.1794849857D+00 E(B2PLYPD3) =    -0.13270950728015D+03

 The electronic state is 1-A.
 Alpha  occ. eigenvalues --  -14.83889 -10.67043 -10.65992  -1.04495  -0.89099
 Alpha  occ. eigenvalues --   -0.59310  -0.55677  -0.52410  -0.44697  -0.39635
 Alpha  occ. eigenvalues --   -0.39209
 Alpha virt. eigenvalues --    0.03683   0.07769   0.08963   0.10255   0.11114
 Alpha virt. eigenvalues --    0.11745   0.15241   0.16347   0.16421   0.19927
 Alpha virt. eigenvalues --    0.20111   0.24930   0.32455   0.33893   0.35492

 Mulliken charges:
               1
     1  C   -0.086443
     2  C   -0.004958
     3  N   -0.200297
     4  H    0.089436
     5  H    0.098740
     6  H    0.103523
 Sum of Mulliken charges =   0.00000

 Dipole moment (field-independent basis, Debye):
    X=              4.1170    Y=             -0.0121    Z=             -0.0142  Tot=              4.1170
 Quadrupole moment (field-independent basis, Debye-Ang):
   XX=            -21.0009   YY=            -17.6441   ZZ=            -17.7860
   XY=              0.0657   XZ=              0.1303   YZ=              0.0903

 Normal termination of Gaussian 09 at Wed Aug 26 10:30:49 2020.
