 Gaussian 09, Revision D.01,
 Gaussian 09:  ES64L-G09RevD.01 24-Apr-2013

 --------------------
 #p B2PLYPD3/Def2QZVP
 --------------------

 ------------
 cyanomethane
 ------------
 Symbolic Z-matrix:
 Charge =  0 Multiplicity = 1

                         Standard orientation:
 ---------------------------------------------------------------------
 Center     Atomic      Atomic             Coordinates (Angstroms)
 Number     Number       Type             X           Y           Z
 ---------------------------------------------------------------------
      1          6           0       -1.173170   -0.007246    0.002911
      2          6           0        0.275094    0.032379    0.003433
      3          7           0        1.445081   -0.021043   -0.005862
      4          1           0       -1.516760    1.022767   -0.126143
      5          1           0       -1.551548   -0.397680    0.904162
      6          1           0       -1.658798   -0.628581   -0.775045
 ---------------------------------------------------------------------

 SCF Done:  E(RB2PLYPD3) =  -132.530303411     A.U. after   12 cycles
 E2(B2PLYPD3) =    -0.1820472829D+00 E(B2PLYPD3) =    -0.13271235069433D+03

 The electronic state is 1-A.
 Alpha  occ. eigenvalues --  -14.84794 -10.66926 -10.66858  -1.03567  -0.89486
 Alpha  occ. eigenvalues --   -0.60855  -0.54379  -0.52916  -0.44994  -0.38745
 Alpha  occ. eigenvalues --   -0.38643
 Alpha virt. eigenvalues --    0.03697   0.07038   0.07829   0.10031   0.11230
 Alpha virt. eigenvalues --    0.11527   0.15428   0.16057   0.17119   0.20081
 Alpha virt. eigenvalues --    0.20297   0.25589   0.32614   0.34396   0.34933

 Mulliken charges:
               1
     1  C   -0.070814
     2  C    0.005258
     3  N   -0.213042
     4  H    0.094005
     5  H    0.094565
     6  H    0.090028
 Sum of Mulliken charges =   0.00000

 Dipole moment (field-independent basis, Debye):
    X=             -4.1595    Y=              0.0164    Z=              0.0269  Tot=              4.1596
 Quadrupole moment (field-independent basis, Debye-Ang):
   XX=            -20.7782   YY=            -17.7569   ZZ=            -17.9804
   XY=              0.2252   XZ=              0.0516   YZ=             -0.0449

 Normal termination of Gaussian 09 at Wed Aug 26 10:51:01 2020.
