 Gaussian 09, Revision D.01,
 Gaussian 09:  ES64L-G09RevD.01 24-Apr-2013

 --------------------
 #p B2PLYPD3/Def2QZVP
 --------------------

 ------------
 cyanomethane
 ------------
 Symbolic Z-matrix:
 Charge =  0 Multiplicity = 1

                         Standard orientation:
 ---------------------------------------------------------------------
 Center     Atomic      Atomic             Coordinates (Angstroms)
 Number     Number       Type             X           Y           Z
 ---------------------------------------------------------------------
      1          6           0       -1.182847    0.000621    0.002720
      2          6           0        0.284315    0.026994   -0.003116
      3          7           0        1.434879   -0.008690    0.002277
      4          1           0       -1.550280   -0.223699    0.987692
      5          1           0       -1.486327   -0.838866   -0.657076
      6          1           0       -1.616354    0.957701   -0.344179
 ---------------------------------------------------------------------

 SCF Done:  E(RB2PLYPD3) =  -132.534703440     A.U. after   12 cycles
 E2(B2PLYPD3) =    -0.1802867111D+00 E(B2PLYPD3) =    -0.13271499015105D+03

 The electronic state is 1-A.
 Alpha  occ. eigenvalues --  -14.84091 -10.67460 -10.66194  -1.04223  -0.88880
 Alpha  occ. eigenvalues --   -0.59410  -0.53915  -0.53471  -0.44747  -0.39233
 Alpha  occ. eigenvalues --   -0.39072
 Alpha virt. eigenvalues --    0.03702   0.07866   0.08024   0.10212   0.11364
 Alpha virt. eigenvalues --    0.11597   0.15281   0.16069   0.16603   0.20019
 Alpha virt. eigenvalues --    0.20113   0.25182   0.32530   0.34140   0.34880

 Mulliken charges:
               1
     1  C   -0.090099
     2  C   -0.001755
     3  N   -0.204198
     4  H    0.098474
     5  H    0.098694
     6  H    0.098884
 Sum of Mulliken charges =   0.00000

 Dipole moment (field-independent basis, Debye):
    X=             -4.1218    Y=             -0.0088    Z=              0.0123  Tot=              4.1218
 Quadrupole moment (field-independent basis, Debye-Ang):
   XX=            -21.0495   YY=            -17.6586   ZZ=            -17.8403
   XY=              0.0020   XZ=             -0.0668   YZ=             -0.0156

 Normal termination of Gaussian 09 at Wed Aug 26 12:37:47 2020.
