 Gaussian 09, Revision D.01,
 Gaussian 09:  ES64L-G09RevD.01 24-Apr-2013

 --------------------
 #p B2PLYPD3/Def2QZVP
 --------------------

 ------------
 cyanomethane
 ------------
 Symbolic Z-matrix:
 Charge =  0 Multiplicity = 1

                         Standard orientation:
 ---------------------------------------------------------------------
 Center     Atomic      Atomic             Coordinates (Angstroms)
 Number     Number       Type             X           Y           Z
 ---------------------------------------------------------------------
      1          6           0        1.188945    0.007625   -0.014746
      2          6           0       -0.289793   -0.028931   -0.005222
      3          7           0       -1.432062    0.009759    0.007555
      4          1           0        1.589018    0.016647    1.021886
      5          1           0        1.464048    0.897798   -0.475930
      6          1           0        1.576459   -0.854920   -0.479027
 ---------------------------------------------------------------------

 SCF Done:  E(RB2PLYPD3) =  -132.533137741     A.U. after   11 cycles
 E2(B2PLYPD3) =    -0.1792410369D+00 E(B2PLYPD3) =    -0.13271237877816D+03

 The electronic state is 1-A.
 Alpha  occ. eigenvalues --  -14.83842 -10.66654 -10.65935  -1.04515  -0.89374
 Alpha  occ. eigenvalues --   -0.59325  -0.55655  -0.53098  -0.44678  -0.39594
 Alpha  occ. eigenvalues --   -0.39319
 Alpha virt. eigenvalues --    0.03821   0.08153   0.08837   0.10277   0.11253
 Alpha virt. eigenvalues --    0.11620   0.15269   0.16338   0.16433   0.19967
 Alpha virt. eigenvalues --    0.20088   0.24982   0.32661   0.34370   0.35722

 Mulliken charges:
               1
     1  C   -0.081641
     2  C   -0.005945
     3  N   -0.200529
     4  H    0.089200
     5  H    0.101859
     6  H    0.097055
 Sum of Mulliken charges =   0.00000

 Dipole moment (field-independent basis, Debye):
    X=              4.1230    Y=             -0.0112    Z=             -0.0059  Tot=              4.1231
 Quadrupole moment (field-independent basis, Debye-Ang):
   XX=            -20.9627   YY=            -17.5934   ZZ=            -17.7999
   XY=             -0.0222   XZ=              0.1204   YZ=             -0.0194

 Normal termination of Gaussian 09 at Wed Aug 26 16:11:55 2020.
