 Gaussian 09, Revision D.01,
 Gaussian 09:  ES64L-G09RevD.01 24-Apr-2013

 --------------------
 #p B2PLYPD3/Def2QZVP
 --------------------

 ------------
 cyanomethane
 ------------
 Symbolic Z-matrix:
 Charge =  0 Multiplicity = 1

                         Standard orientation:
 ---------------------------------------------------------------------
 Center     Atomic      Atomic             Coordinates (Angstroms)
 Number     Number       Type             X           Y           Z
 ---------------------------------------------------------------------
      1          6           0       -1.184928    0.013790   -0.003423
      2          6           0        0.295615    0.014066   -0.055577
      3          7           0        1.447023   -0.002526    0.030226
      4          1           0       -1.570461   -0.392938    0.977675
      5          1           0       -1.537592   -0.732104   -0.705364
      6          1           0       -1.685235    0.975589   -0.129897
 ---------------------------------------------------------------------

 SCF Done:  E(RB2PLYPD3) =  -132.530525718     A.U. after   12 cycles
 E2(B2PLYPD3) =    -0.1809184424D+00 E(B2PLYPD3) =    -0.13271144416051D+03

 The electronic state is 1-A.
 Alpha  occ. eigenvalues --  -14.84437 -10.67701 -10.66615  -1.04200  -0.88425
 Alpha  occ. eigenvalues --   -0.60076  -0.54195  -0.51748  -0.44963  -0.39429
 Alpha  occ. eigenvalues --   -0.38985
 Alpha virt. eigenvalues --    0.03517   0.07286   0.08066   0.10146   0.11118
 Alpha virt. eigenvalues --    0.11724   0.15314   0.16061   0.17463   0.19969
 Alpha virt. eigenvalues --    0.20162   0.25080   0.32378   0.33655   0.35321

 Mulliken charges:
               1
     1  C   -0.077578
     2  C    0.004466
     3  N   -0.203934
     4  H    0.086819
     5  H    0.092721
     6  H    0.097507
 Sum of Mulliken charges =   0.00000

 Dipole moment (field-independent basis, Debye):
    X=             -4.1398    Y=             -0.0343    Z=             -0.0236  Tot=              4.1400
 Quadrupole moment (field-independent basis, Debye-Ang):
   XX=            -20.7404   YY=            -17.7091   ZZ=            -18.0677
   XY=              0.0024   XZ=             -0.2398   YZ=              0.0414

 Normal termination of Gaussian 09 at Wed Aug 26 20:27:47 2020.
