 Gaussian 09, Revision D.01,
 Gaussian 09:  ES64L-G09RevD.01 24-Apr-2013

 --------------------
 #p B2PLYPD3/Def2QZVP
 --------------------

 ------------
 cyanomethane
 ------------
 Symbolic Z-matrix:
 Charge =  0 Multiplicity = 1

                         Standard orientation:
 ---------------------------------------------------------------------
 Center     Atomic      Atomic             Coordinates (Angstroms)
 Number     Number       Type             X           Y           Z
 ---------------------------------------------------------------------
      1          6           0        1.178197   -0.009493    0.001546
      2          6           0       -0.270428    0.000410   -0.023966
      3          7           0       -1.437833    0.002127    0.011052
      4          1           0        1.562303    0.987855   -0.298708
      5          1           0        1.537385   -0.753495   -0.652119
      6          1           0        1.518532   -0.194752    1.007983
 ---------------------------------------------------------------------

 SCF Done:  E(RB2PLYPD3) =  -132.533176791     A.U. after   11 cycles
 E2(B2PLYPD3) =    -0.1815195776D+00 E(B2PLYPD3) =    -0.13271469636855D+03

 The electronic state is 1-A.
 Alpha  occ. eigenvalues --  -14.84523 -10.66832 -10.66572  -1.03590  -0.89660
 Alpha  occ. eigenvalues --   -0.59897  -0.54998  -0.53609  -0.44810  -0.38791
 Alpha  occ. eigenvalues --   -0.38613
 Alpha virt. eigenvalues --    0.03769   0.07518   0.08007   0.10142   0.11185
 Alpha virt. eigenvalues --    0.11456   0.15437   0.16159   0.16225   0.20124
 Alpha virt. eigenvalues --    0.20197   0.25497   0.32649   0.34313   0.35084

 Mulliken charges:
               1
     1  C   -0.081610
     2  C    0.000320
     3  N   -0.213118
     4  H    0.095185
     5  H    0.100722
     6  H    0.098500
 Sum of Mulliken charges =   0.00000

 Dipole moment (field-independent basis, Debye):
    X=              4.1450    Y=             -0.0057    Z=             -0.0034  Tot=              4.1450
 Quadrupole moment (field-independent basis, Debye-Ang):
   XX=            -21.0410   YY=            -17.7446   ZZ=            -17.7774
   XY=              0.0308   XZ=              0.0615   YZ=              0.0435

 Normal termination of Gaussian 09 at Wed Aug 26 23:58:45 2020.
