 Gaussian 09, Revision D.01,
 Gaussian 09:  ES64L-G09RevD.01 24-Apr-2013

 --------------------
 #p B2PLYPD3/Def2QZVP
 --------------------

 ------------
 cyanomethane
 ------------
 Symbolic Z-matrix:
 Charge =  0 Multiplicity = 1

                         Standard orientation:
 ---------------------------------------------------------------------
 Center     Atomic      Atomic             Coordinates (Angstroms)
 Number     Number       Type             X           Y           Z
 ---------------------------------------------------------------------
      1          6           0        1.165108   -0.006526    0.000955
      2          6           0       -0.273702    0.025981   -0.006139
      3          7           0       -1.431657   -0.011373    0.002987
      4          1           0        1.577730    0.963913   -0.346793
      5          1           0        1.543074   -0.805838   -0.663551
      6          1           0        1.552357   -0.195196    1.020536
 ---------------------------------------------------------------------

 SCF Done:  E(RB2PLYPD3) =  -132.534144561     A.U. after   11 cycles
 E2(B2PLYPD3) =    -0.1810820165D+00 E(B2PLYPD3) =    -0.13271522657795D+03

 The electronic state is 1-A.
 Alpha  occ. eigenvalues --  -14.84327 -10.67486 -10.66337  -1.04022  -0.89125
 Alpha  occ. eigenvalues --   -0.59990  -0.53575  -0.53459  -0.44865  -0.38859
 Alpha  occ. eigenvalues --   -0.38843
 Alpha virt. eigenvalues --    0.03665   0.07435   0.07527   0.10116   0.11531
 Alpha virt. eigenvalues --    0.11592   0.15506   0.16234   0.16516   0.20085
 Alpha virt. eigenvalues --    0.20133   0.25709   0.32731   0.34312   0.34371

 Mulliken charges:
               1
     1  C   -0.086039
     2  C    0.001402
     3  N   -0.207504
     4  H    0.095963
     5  H    0.098534
     6  H    0.097643
 Sum of Mulliken charges =   0.00000

 Dipole moment (field-independent basis, Debye):
    X=              4.1201    Y=              0.0119    Z=             -0.0016  Tot=              4.1201
 Quadrupole moment (field-independent basis, Debye-Ang):
   XX=            -21.0040   YY=            -17.7769   ZZ=            -17.7927
   XY=             -0.0443   XZ=              0.0206   YZ=              0.0075

 Normal termination of Gaussian 09 at Wed Aug 26 21:54:07 2020.
