 Gaussian 09, Revision D.01,
 Gaussian 09:  ES64L-G09RevD.01 24-Apr-2013

 --------------------
 #p B2PLYPD3/Def2QZVP
 --------------------

 ------------
 cyanomethane
 ------------
 Symbolic Z-matrix:
 Charge =  0 Multiplicity = 1

                         Standard orientation:
 ---------------------------------------------------------------------
 Center     Atomic      Atomic             Coordinates (Angstroms)
 Number     Number       Type             X           Y           Z
 ---------------------------------------------------------------------
      1          6           0       -1.179478   -0.023945   -0.013807
      2          6           0        0.298913    0.081728   -0.008078
      3          7           0        1.416642   -0.040731    0.006944
      4          1           0       -1.561352   -0.097402    0.953678
      5          1           0       -1.530311   -0.807447   -0.503608
      6          1           0       -1.541437    0.843269   -0.367367
 ---------------------------------------------------------------------

 SCF Done:  E(RB2PLYPD3) =  -132.519867847     A.U. after   12 cycles
 E2(B2PLYPD3) =    -0.1773108271D+00 E(B2PLYPD3) =    -0.13269717867380D+03

 The electronic state is 1-A.
 Alpha  occ. eigenvalues --  -14.83421 -10.65400 -10.64709  -1.05361  -0.90586
 Alpha  occ. eigenvalues --   -0.60450  -0.56291  -0.54023  -0.44745  -0.40232
 Alpha  occ. eigenvalues --   -0.39973
 Alpha virt. eigenvalues --    0.03949   0.08938   0.09584   0.10143   0.11379
 Alpha virt. eigenvalues --    0.11690   0.15664   0.16020   0.17610   0.19790
 Alpha virt. eigenvalues --    0.20073   0.25490   0.33529   0.35395   0.36279

 Mulliken charges:
               1
     1  C   -0.055755
     2  C   -0.003955
     3  N   -0.189778
     4  H    0.076814
     5  H    0.088351
     6  H    0.084323
 Sum of Mulliken charges =   0.00000

 Dipole moment (field-independent basis, Debye):
    X=             -4.0864    Y=              0.0774    Z=              0.0109  Tot=              4.0871
 Quadrupole moment (field-independent basis, Debye-Ang):
   XX=            -20.5868   YY=            -17.4947   ZZ=            -17.7260
   XY=              0.2159   XZ=             -0.1198   YZ=              0.0346

 Normal termination of Gaussian 09 at Wed Aug 26 22:09:00 2020.
