 Gaussian 09, Revision D.01,
 Gaussian 09:  ES64L-G09RevD.01 24-Apr-2013

 --------------------
 #p B2PLYPD3/Def2QZVP
 --------------------

 ------------
 cyanomethane
 ------------
 Symbolic Z-matrix:
 Charge =  0 Multiplicity = 1

                         Standard orientation:
 ---------------------------------------------------------------------
 Center     Atomic      Atomic             Coordinates (Angstroms)
 Number     Number       Type             X           Y           Z
 ---------------------------------------------------------------------
      1          6           0        1.158560   -0.009207    0.000216
      2          6           0       -0.277247    0.039075    0.016192
      3          7           0       -1.430501   -0.022181   -0.011783
      4          1           0        1.546086    1.018473   -0.149987
      5          1           0        1.632114   -0.645837   -0.803544
      6          1           0        1.547434   -0.396574    0.937563
 ---------------------------------------------------------------------

 SCF Done:  E(RB2PLYPD3) =  -132.532086038     A.U. after   12 cycles
 E2(B2PLYPD3) =    -0.1809390652D+00 E(B2PLYPD3) =    -0.13271302510334D+03

 The electronic state is 1-A.
 Alpha  occ. eigenvalues --  -14.84334 -10.67412 -10.66322  -1.04233  -0.89106
 Alpha  occ. eigenvalues --   -0.60484  -0.53853  -0.52600  -0.44957  -0.39014
 Alpha  occ. eigenvalues --   -0.38890
 Alpha virt. eigenvalues --    0.03596   0.07026   0.07818   0.10043   0.11518
 Alpha virt. eigenvalues --    0.11749   0.15598   0.16049   0.17178   0.20025
 Alpha virt. eigenvalues --    0.20198   0.25868   0.32866   0.34089   0.34586

 Mulliken charges:
               1
     1  C   -0.079550
     2  C    0.003257
     3  N   -0.205051
     4  H    0.093173
     5  H    0.092403
     6  H    0.095767
 Sum of Mulliken charges =   0.00000

 Dipole moment (field-independent basis, Debye):
    X=              4.1135    Y=              0.0294    Z=              0.0272  Tot=              4.1137
 Quadrupole moment (field-independent basis, Debye-Ang):
   XX=            -20.8442   YY=            -17.7853   ZZ=            -17.8636
   XY=             -0.1764   XZ=             -0.0997   YZ=             -0.0420

 Normal termination of Gaussian 09 at Wed Aug 26 10:26:05 2020.
