 Gaussian 09, Revision D.01,
 Gaussian 09:  ES64L-G09RevD.01 24-Apr-2013

 --------------------
 #p B2PLYPD3/Def2QZVP
 --------------------

 ------------
 cyanomethane
 ------------
 Symbolic Z-matrix:
 Charge =  0 Multiplicity = 1

                         Standard orientation:
 ---------------------------------------------------------------------
 Center     Atomic      Atomic             Coordinates (Angstroms)
 Number     Number       Type             X           Y           Z
 ---------------------------------------------------------------------
      1          6           0       -1.176560   -0.008232    0.013942
      2          6           0        0.278049    0.024285    0.009677
      3          7           0        1.423761   -0.015267   -0.008587
      4          1           0       -1.575283   -0.678762   -0.811628
      5          1           0       -1.486661    1.029465   -0.222125
      6          1           0       -1.513321   -0.340147    0.952149
 ---------------------------------------------------------------------

 SCF Done:  E(RB2PLYPD3) =  -132.532455060     A.U. after   12 cycles
 E2(B2PLYPD3) =    -0.1799299881D+00 E(B2PLYPD3) =    -0.13271238504808D+03

 The electronic state is 1-A.
 Alpha  occ. eigenvalues --  -14.83852 -10.67349 -10.65880  -1.04383  -0.89193
 Alpha  occ. eigenvalues --   -0.59125  -0.55054  -0.52916  -0.44657  -0.39295
 Alpha  occ. eigenvalues --   -0.38977
 Alpha virt. eigenvalues --    0.03665   0.07621   0.08477   0.10162   0.11415
 Alpha virt. eigenvalues --    0.11743   0.15379   0.15701   0.16626   0.20035
 Alpha virt. eigenvalues --    0.20111   0.25409   0.32705   0.33650   0.35071

 Mulliken charges:
               1
     1  C   -0.097649
     2  C   -0.003232
     3  N   -0.202913
     4  H    0.097266
     5  H    0.100195
     6  H    0.106332
 Sum of Mulliken charges =   0.00000

 Dipole moment (field-independent basis, Debye):
    X=             -4.0907    Y=              0.0283    Z=              0.0108  Tot=              4.0908
 Quadrupole moment (field-independent basis, Debye-Ang):
   XX=            -21.2138   YY=            -17.7005   ZZ=            -17.6471
   XY=              0.1355   XZ=              0.0924   YZ=             -0.0669

 Normal termination of Gaussian 09 at Wed Aug 26 12:34:08 2020.
