 Gaussian 09, Revision D.01,
 Gaussian 09:  ES64L-G09RevD.01 24-Apr-2013

 --------------------
 #p B2PLYPD3/Def2QZVP
 --------------------

 ------------
 cyanomethane
 ------------
 Symbolic Z-matrix:
 Charge =  0 Multiplicity = 1

                         Standard orientation:
 ---------------------------------------------------------------------
 Center     Atomic      Atomic             Coordinates (Angstroms)
 Number     Number       Type             X           Y           Z
 ---------------------------------------------------------------------
      1          6           0       -1.174974   -0.000201    0.002170
      2          6           0        0.271044   -0.015904   -0.007663
      3          7           0        1.431780    0.009503    0.001242
      4          1           0       -1.541462   -0.796349   -0.614228
      5          1           0       -1.560842    0.956627   -0.374349
      6          1           0       -1.496582   -0.130167    1.012843
 ---------------------------------------------------------------------

 SCF Done:  E(RB2PLYPD3) =  -132.534606536     A.U. after   12 cycles
 E2(B2PLYPD3) =    -0.1808822193D+00 E(B2PLYPD3) =    -0.13271548875577D+03

 The electronic state is 1-A.
 Alpha  occ. eigenvalues --  -14.84295 -10.66737 -10.66323  -1.03852  -0.89727
 Alpha  occ. eigenvalues --   -0.59785  -0.54789  -0.53976  -0.44763  -0.38874
 Alpha  occ. eigenvalues --   -0.38808
 Alpha virt. eigenvalues --    0.03800   0.07717   0.08139   0.10155   0.11340
 Alpha virt. eigenvalues --    0.11470   0.15468   0.15994   0.16398   0.20119
 Alpha virt. eigenvalues --    0.20161   0.25539   0.32838   0.34559   0.34896

 Mulliken charges:
               1
     1  C   -0.083193
     2  C   -0.001168
     3  N   -0.210370
     4  H    0.098492
     5  H    0.096678
     6  H    0.099560
 Sum of Mulliken charges =   0.00000

 Dipole moment (field-independent basis, Debye):
    X=             -4.1327    Y=             -0.0153    Z=              0.0054  Tot=              4.1328
 Quadrupole moment (field-independent basis, Debye-Ang):
   XX=            -21.0592   YY=            -17.7289   ZZ=            -17.7203
   XY=             -0.0676   XZ=              0.0229   YZ=              0.0154

 Normal termination of Gaussian 09 at Thu Aug 27 00:02:48 2020.
