 Gaussian 09, Revision D.01,
 Gaussian 09:  ES64L-G09RevD.01 24-Apr-2013

 --------------------
 #p B2PLYPD3/Def2QZVP
 --------------------

 ------------
 cyanomethane
 ------------
 Symbolic Z-matrix:
 Charge =  0 Multiplicity = 1

                         Standard orientation:
 ---------------------------------------------------------------------
 Center     Atomic      Atomic             Coordinates (Angstroms)
 Number     Number       Type             X           Y           Z
 ---------------------------------------------------------------------
      1          6           0        1.185907   -0.009266   -0.002683
      2          6           0       -0.287812    0.020634   -0.008400
      3          7           0       -1.434552   -0.007259    0.003831
      4          1           0        1.542108   -0.566106   -0.861429
      5          1           0        1.524094   -0.489130    0.931109
      6          1           0        1.587095    1.037838   -0.030006
 ---------------------------------------------------------------------

 SCF Done:  E(RB2PLYPD3) =  -132.534961136     A.U. after   11 cycles
 E2(B2PLYPD3) =    -0.1800011266D+00 E(B2PLYPD3) =    -0.13271496226235D+03

 The electronic state is 1-A.
 Alpha  occ. eigenvalues --  -14.83976 -10.67688 -10.66079  -1.04359  -0.88622
 Alpha  occ. eigenvalues --   -0.59034  -0.54028  -0.53195  -0.44711  -0.39321
 Alpha  occ. eigenvalues --   -0.39205
 Alpha virt. eigenvalues --    0.03676   0.07865   0.08129   0.10216   0.11433
 Alpha virt. eigenvalues --    0.11558   0.15241   0.16216   0.16378   0.20027
 Alpha virt. eigenvalues --    0.20056   0.25064   0.32457   0.34189   0.34713

 Mulliken charges:
               1
     1  C   -0.094097
     2  C   -0.003474
     3  N   -0.201735
     4  H    0.102117
     5  H    0.100289
     6  H    0.096901
 Sum of Mulliken charges =   0.00000

 Dipole moment (field-independent basis, Debye):
    X=              4.1126    Y=              0.0031    Z=             -0.0018  Tot=              4.1126
 Quadrupole moment (field-independent basis, Debye-Ang):
   XX=            -21.1021   YY=            -17.7424   ZZ=            -17.7268
   XY=             -0.0110   XZ=              0.0167   YZ=              0.0217

 Normal termination of Gaussian 09 at Wed Aug 26 16:32:19 2020.
