 Gaussian 09, Revision D.01,
 Gaussian 09:  ES64L-G09RevD.01 24-Apr-2013

 --------------------
 #p B2PLYPD3/Def2QZVP
 --------------------

 ------------
 cyanomethane
 ------------
 Symbolic Z-matrix:
 Charge =  0 Multiplicity = 1

                         Standard orientation:
 ---------------------------------------------------------------------
 Center     Atomic      Atomic             Coordinates (Angstroms)
 Number     Number       Type             X           Y           Z
 ---------------------------------------------------------------------
      1          6           0       -1.171171   -0.007193    0.011492
      2          6           0        0.281559    0.052142    0.007529
      3          7           0        1.418611   -0.018032   -0.012489
      4          1           0       -1.394408   -0.373908    0.894939
      5          1           0       -1.533140   -0.737326   -0.717336
      6          1           0       -1.665053    0.967761   -0.204309
 ---------------------------------------------------------------------

 SCF Done:  E(RB2PLYPD3) =  -132.525572619     A.U. after   12 cycles
 E2(B2PLYPD3) =    -0.1789803224D+00 E(B2PLYPD3) =    -0.13270455294130D+03

 The electronic state is 1-A.
 Alpha  occ. eigenvalues --  -14.83707 -10.66161 -10.65712  -1.04749  -0.90119
 Alpha  occ. eigenvalues --   -0.59748  -0.55867  -0.53257  -0.44702  -0.39576
 Alpha  occ. eigenvalues --   -0.39305
 Alpha virt. eigenvalues --    0.03820   0.07753   0.09133   0.10258   0.11460
 Alpha virt. eigenvalues --    0.11762   0.15562   0.15895   0.16984   0.19953
 Alpha virt. eigenvalues --    0.20115   0.25562   0.32686   0.34426   0.35815

 Mulliken charges:
               1
     1  C   -0.086683
     2  C   -0.003494
     3  N   -0.199548
     4  H    0.104679
     5  H    0.090287
     6  H    0.094759
 Sum of Mulliken charges =   0.00000

 Dipole moment (field-independent basis, Debye):
    X=             -4.0949    Y=             -0.0176    Z=              0.0389  Tot=              4.0951
 Quadrupole moment (field-independent basis, Debye-Ang):
   XX=            -20.9211   YY=            -17.5434   ZZ=            -17.7738
   XY=              0.0670   XZ=              0.1581   YZ=             -0.0787

 Normal termination of Gaussian 09 at Wed Aug 26 23:52:21 2020.
