 Gaussian 09, Revision D.01,
 Gaussian 09:  ES64L-G09RevD.01 24-Apr-2013

 --------------------
 #p B2PLYPD3/Def2QZVP
 --------------------

 ------------
 cyanomethane
 ------------
 Symbolic Z-matrix:
 Charge =  0 Multiplicity = 1

                         Standard orientation:
 ---------------------------------------------------------------------
 Center     Atomic      Atomic             Coordinates (Angstroms)
 Number     Number       Type             X           Y           Z
 ---------------------------------------------------------------------
      1          6           0       -1.175335    0.003076   -0.000114
      2          6           0        0.271627    0.016377   -0.017123
      3          7           0        1.425914   -0.017353    0.013314
      4          1           0       -1.391756    0.908520   -0.479102
      5          1           0       -1.582144   -0.018459    1.005684
      6          1           0       -1.585246   -0.885314   -0.516359
 ---------------------------------------------------------------------

 SCF Done:  E(RB2PLYPD3) =  -132.531071788     A.U. after   12 cycles
 E2(B2PLYPD3) =    -0.1805087915D+00 E(B2PLYPD3) =    -0.13271158057930D+03

 The electronic state is 1-A.
 Alpha  occ. eigenvalues --  -14.84085 -10.66728 -10.66117  -1.04076  -0.89841
 Alpha  occ. eigenvalues --   -0.59676  -0.55383  -0.53355  -0.44696  -0.38957
 Alpha  occ. eigenvalues --   -0.38897
 Alpha virt. eigenvalues --    0.03773   0.07487   0.08646   0.10151   0.11346
 Alpha virt. eigenvalues --    0.11617   0.15197   0.15748   0.16832   0.20070
 Alpha virt. eigenvalues --    0.20198   0.25545   0.32853   0.34480   0.34947

 Mulliken charges:
               1
     1  C   -0.089838
     2  C   -0.001741
     3  N   -0.208322
     4  H    0.105354
     5  H    0.096720
     6  H    0.097827
 Sum of Mulliken charges =   0.00000

 Dipole moment (field-independent basis, Debye):
    X=             -4.1131    Y=              0.0307    Z=             -0.0076  Tot=              4.1132
 Quadrupole moment (field-independent basis, Debye-Ang):
   XX=            -21.1197   YY=            -17.5944   ZZ=            -17.7914
   XY=              0.2385   XZ=             -0.1814   YZ=             -0.0493

 Normal termination of Gaussian 09 at Wed Aug 26 16:20:30 2020.
