 Gaussian 09, Revision D.01,
 Gaussian 09:  ES64L-G09RevD.01 24-Apr-2013

 --------------------
 #p B2PLYPD3/Def2QZVP
 --------------------

 ------------
 cyanomethane
 ------------
 Symbolic Z-matrix:
 Charge =  0 Multiplicity = 1

                         Standard orientation:
 ---------------------------------------------------------------------
 Center     Atomic      Atomic             Coordinates (Angstroms)
 Number     Number       Type             X           Y           Z
 ---------------------------------------------------------------------
      1          6           0        1.168292   -0.005909   -0.031271
      2          6           0       -0.286610   -0.059051   -0.001226
      3          7           0       -1.420573    0.036220   -0.002272
      4          1           0        1.633205    1.039146   -0.232747
      5          1           0        1.570415   -0.729178   -0.572469
      6          1           0        1.450296   -0.173744    1.016098
 ---------------------------------------------------------------------

 SCF Done:  E(RB2PLYPD3) =  -132.521911569     A.U. after   12 cycles
 E2(B2PLYPD3) =    -0.1793099350D+00 E(B2PLYPD3) =    -0.13270122150366D+03

 The electronic state is 1-A.
 Alpha  occ. eigenvalues --  -14.83761 -10.66750 -10.65799  -1.04846  -0.89576
 Alpha  occ. eigenvalues --   -0.60302  -0.55587  -0.51923  -0.44791  -0.39788
 Alpha  occ. eigenvalues --   -0.39042
 Alpha virt. eigenvalues --    0.03451   0.07416   0.09164   0.10151   0.11218
 Alpha virt. eigenvalues --    0.12080   0.15401   0.15598   0.17922   0.19970
 Alpha virt. eigenvalues --    0.20231   0.25640   0.32699   0.33343   0.35463

 Mulliken charges:
               1
     1  C   -0.084739
     2  C    0.000438
     3  N   -0.197476
     4  H    0.093523
     5  H    0.101264
     6  H    0.086991
 Sum of Mulliken charges =   0.00000

 Dipole moment (field-independent basis, Debye):
    X=              4.0920    Y=             -0.0780    Z=              0.0756  Tot=              4.0934
 Quadrupole moment (field-independent basis, Debye-Ang):
   XX=            -20.8623   YY=            -17.5614   ZZ=            -17.8795
   XY=              0.2330   XZ=              0.0481   YZ=              0.1285

 Normal termination of Gaussian 09 at Wed Aug 26 16:27:39 2020.
