 Gaussian 09, Revision D.01,
 Gaussian 09:  ES64L-G09RevD.01 24-Apr-2013

 --------------------
 #p B2PLYPD3/Def2QZVP
 --------------------

 ------------
 cyanomethane
 ------------
 Symbolic Z-matrix:
 Charge =  0 Multiplicity = 1

                         Standard orientation:
 ---------------------------------------------------------------------
 Center     Atomic      Atomic             Coordinates (Angstroms)
 Number     Number       Type             X           Y           Z
 ---------------------------------------------------------------------
      1          6           0        1.178760   -0.012268    0.001413
      2          6           0       -0.276348   -0.009524   -0.012649
      3          7           0       -1.437679    0.010650    0.008031
      4          1           0        1.491816   -0.751757   -0.674939
      5          1           0        1.558585   -0.193669    1.000472
      6          1           0        1.598879    1.001627   -0.314336
 ---------------------------------------------------------------------

 SCF Done:  E(RB2PLYPD3) =  -132.531848860     A.U. after   12 cycles
 E2(B2PLYPD3) =    -0.1811574460D+00 E(B2PLYPD3) =    -0.13271300630623D+03

 The electronic state is 1-A.
 Alpha  occ. eigenvalues --  -14.84395 -10.67199 -10.66458  -1.03841  -0.89310
 Alpha  occ. eigenvalues --   -0.59707  -0.55122  -0.52752  -0.44814  -0.38989
 Alpha  occ. eigenvalues --   -0.38742
 Alpha virt. eigenvalues --    0.03673   0.07269   0.08240   0.10157   0.11199
 Alpha virt. eigenvalues --    0.11578   0.15372   0.16059   0.16519   0.20066
 Alpha virt. eigenvalues --    0.20183   0.25375   0.32445   0.34004   0.35147

 Mulliken charges:
               1
     1  C   -0.085190
     2  C   -0.000192
     3  N   -0.209479
     4  H    0.103214
     5  H    0.098765
     6  H    0.092881
 Sum of Mulliken charges =   0.00000

 Dipole moment (field-independent basis, Debye):
    X=              4.1336    Y=             -0.0230    Z=             -0.0039  Tot=              4.1337
 Quadrupole moment (field-independent basis, Debye-Ang):
   XX=            -21.0290   YY=            -17.7776   ZZ=            -17.7684
   XY=              0.1218   XZ=              0.0880   YZ=              0.0698

 Normal termination of Gaussian 09 at Wed Aug 26 18:42:13 2020.
