 Gaussian 09, Revision D.01,
 Gaussian 09:  ES64L-G09RevD.01 24-Apr-2013

 --------------------
 #p B2PLYPD3/Def2QZVP
 --------------------

 ------------
 cyanomethane
 ------------
 Symbolic Z-matrix:
 Charge =  0 Multiplicity = 1

                         Standard orientation:
 ---------------------------------------------------------------------
 Center     Atomic      Atomic             Coordinates (Angstroms)
 Number     Number       Type             X           Y           Z
 ---------------------------------------------------------------------
      1          6           0        1.171573   -0.012063   -0.000164
      2          6           0       -0.272676    0.047667    0.006805
      3          7           0       -1.444004   -0.023269   -0.001279
      4          1           0        1.574162    1.029305   -0.075704
      5          1           0        1.542369   -0.597883   -0.841404
      6          1           0        1.598114   -0.482166    0.886220
 ---------------------------------------------------------------------

 SCF Done:  E(RB2PLYPD3) =  -132.531455334     A.U. after   11 cycles
 E2(B2PLYPD3) =    -0.1823939067D+00 E(B2PLYPD3) =    -0.13271384924057D+03

 The electronic state is 1-A.
 Alpha  occ. eigenvalues --  -14.84840 -10.67358 -10.66890  -1.03474  -0.89173
 Alpha  occ. eigenvalues --   -0.60494  -0.53611  -0.53312  -0.44989  -0.38599
 Alpha  occ. eigenvalues --   -0.38580
 Alpha virt. eigenvalues --    0.03650   0.07127   0.07292   0.10018   0.11276
 Alpha virt. eigenvalues --    0.11487   0.15472   0.16124   0.16767   0.20073
 Alpha virt. eigenvalues --    0.20248   0.25704   0.32482   0.34366   0.34597

 Mulliken charges:
               1
     1  C   -0.077840
     2  C    0.005164
     3  N   -0.213507
     4  H    0.094084
     5  H    0.096805
     6  H    0.095294
 Sum of Mulliken charges =   0.00000

 Dipole moment (field-independent basis, Debye):
    X=              4.1454    Y=              0.0062    Z=             -0.0002  Tot=              4.1454
 Quadrupole moment (field-independent basis, Debye-Ang):
   XX=            -20.8987   YY=            -17.7695   ZZ=            -17.9578
   XY=             -0.1710   XZ=              0.0282   YZ=              0.0031

 Normal termination of Gaussian 09 at Wed Aug 26 14:02:28 2020.
