 Gaussian 09, Revision D.01,
 Gaussian 09:  ES64L-G09RevD.01 24-Apr-2013

 --------------------
 #p B2PLYPD3/Def2QZVP
 --------------------

 ------------
 cyanomethane
 ------------
 Symbolic Z-matrix:
 Charge =  0 Multiplicity = 1

                         Standard orientation:
 ---------------------------------------------------------------------
 Center     Atomic      Atomic             Coordinates (Angstroms)
 Number     Number       Type             X           Y           Z
 ---------------------------------------------------------------------
      1          6           0        1.188937   -0.008867   -0.017757
      2          6           0       -0.277731    0.034260    0.016827
      3          7           0       -1.428101   -0.017867   -0.007137
      4          1           0        1.499046    0.994457   -0.195079
      5          1           0        1.517496   -0.694314   -0.738010
      6          1           0        1.512935   -0.327434    0.988626
 ---------------------------------------------------------------------

 SCF Done:  E(RB2PLYPD3) =  -132.533142706     A.U. after   12 cycles
 E2(B2PLYPD3) =    -0.1800523299D+00 E(B2PLYPD3) =    -0.13271319503580D+03

 The electronic state is 1-A.
 Alpha  occ. eigenvalues --  -14.83960 -10.66735 -10.66012  -1.04119  -0.89595
 Alpha  occ. eigenvalues --   -0.58983  -0.55446  -0.53915  -0.44603  -0.39212
 Alpha  occ. eigenvalues --   -0.38985
 Alpha virt. eigenvalues --    0.03811   0.08152   0.08599   0.10144   0.11251
 Alpha virt. eigenvalues --    0.11512   0.15310   0.15570   0.16475   0.20049
 Alpha virt. eigenvalues --    0.20145   0.25235   0.32755   0.34185   0.35382

 Mulliken charges:
               1
     1  C   -0.092620
     2  C   -0.004674
     3  N   -0.206634
     4  H    0.102005
     5  H    0.104854
     6  H    0.097069
 Sum of Mulliken charges =   0.00000

 Dipole moment (field-independent basis, Debye):
    X=              4.1073    Y=              0.0247    Z=              0.0169  Tot=              4.1074
 Quadrupole moment (field-independent basis, Debye-Ang):
   XX=            -21.2258   YY=            -17.6013   ZZ=            -17.6951
   XY=             -0.1141   XZ=             -0.0216   YZ=              0.0402

 Normal termination of Gaussian 09 at Wed Aug 26 13:52:34 2020.
