 Gaussian 09, Revision D.01,
 Gaussian 09:  ES64L-G09RevD.01 24-Apr-2013

 --------------------
 #p B2PLYPD3/Def2QZVP
 --------------------

 ------------
 cyanomethane
 ------------
 Symbolic Z-matrix:
 Charge =  0 Multiplicity = 1

                         Standard orientation:
 ---------------------------------------------------------------------
 Center     Atomic      Atomic             Coordinates (Angstroms)
 Number     Number       Type             X           Y           Z
 ---------------------------------------------------------------------
      1          6           0        1.179188    0.015292   -0.006071
      2          6           0       -0.281688    0.033252    0.001003
      3          7           0       -1.442290   -0.021477    0.000004
      4          1           0        1.540795    1.022941   -0.013996
      5          1           0        1.587452   -0.605149   -0.849931
      6          1           0        1.582779   -0.558715    0.894302
 ---------------------------------------------------------------------

 SCF Done:  E(RB2PLYPD3) =  -132.530199322     A.U. after   12 cycles
 E2(B2PLYPD3) =    -0.1815436073D+00 E(B2PLYPD3) =    -0.13271174292958D+03

 The electronic state is 1-A.
 Alpha  occ. eigenvalues --  -14.84489 -10.67864 -10.66583  -1.03860  -0.88679
 Alpha  occ. eigenvalues --   -0.59689  -0.54908  -0.51650  -0.44882  -0.39093
 Alpha  occ. eigenvalues --   -0.38622
 Alpha virt. eigenvalues --    0.03529   0.06946   0.07951   0.10123   0.11039
 Alpha virt. eigenvalues --    0.11802   0.15283   0.16302   0.16590   0.19954
 Alpha virt. eigenvalues --    0.20236   0.25300   0.32396   0.33392   0.35057

 Mulliken charges:
               1
     1  C   -0.085900
     2  C    0.001513
     3  N   -0.208023
     4  H    0.105080
     5  H    0.095358
     6  H    0.091972
 Sum of Mulliken charges =   0.00000

 Dipole moment (field-independent basis, Debye):
    X=              4.1336    Y=             -0.0031    Z=              0.0035  Tot=              4.1336
 Quadrupole moment (field-independent basis, Debye-Ang):
   XX=            -20.9937   YY=            -17.5991   ZZ=            -18.0698
   XY=             -0.2458   XZ=              0.0102   YZ=              0.0169

 Normal termination of Gaussian 09 at Wed Aug 26 13:32:45 2020.
