 Gaussian 09, Revision D.01,
 Gaussian 09:  ES64L-G09RevD.01 24-Apr-2013

 --------------------
 #p B2PLYPD3/Def2QZVP
 --------------------

 ------------
 cyanomethane
 ------------
 Symbolic Z-matrix:
 Charge =  0 Multiplicity = 1

                         Standard orientation:
 ---------------------------------------------------------------------
 Center     Atomic      Atomic             Coordinates (Angstroms)
 Number     Number       Type             X           Y           Z
 ---------------------------------------------------------------------
      1          6           0        1.176795    0.000263   -0.008960
      2          6           0       -0.277093    0.000137   -0.011820
      3          7           0       -1.428003    0.001720    0.005443
      4          1           0        1.526333   -0.851396   -0.585044
      5          1           0        1.507969   -0.116642    1.063876
      6          1           0        1.563512    0.953601   -0.392253
 ---------------------------------------------------------------------

 SCF Done:  E(RB2PLYPD3) =  -132.534434848     A.U. after   11 cycles
 E2(B2PLYPD3) =    -0.1803374880D+00 E(B2PLYPD3) =    -0.13271477233640D+03

 The electronic state is 1-A.
 Alpha  occ. eigenvalues --  -14.83996 -10.67547 -10.66046  -1.04207  -0.89032
 Alpha  occ. eigenvalues --   -0.59141  -0.54485  -0.53203  -0.44689  -0.39147
 Alpha  occ. eigenvalues --   -0.38913
 Alpha virt. eigenvalues --    0.03676   0.07712   0.08053   0.10177   0.11410
 Alpha virt. eigenvalues --    0.11696   0.15350   0.15930   0.16392   0.20049
 Alpha virt. eigenvalues --    0.20127   0.25374   0.32658   0.33758   0.34863

 Mulliken charges:
               1
     1  C   -0.097109
     2  C   -0.002275
     3  N   -0.204880
     4  H    0.103588
     5  H    0.098361
     6  H    0.102316
 Sum of Mulliken charges =   0.00000

 Dipole moment (field-independent basis, Debye):
    X=              4.1053    Y=             -0.0055    Z=              0.0006  Tot=              4.1053
 Quadrupole moment (field-independent basis, Debye-Ang):
   XX=            -21.1995   YY=            -17.6493   ZZ=            -17.7593
   XY=              0.0346   XZ=              0.0245   YZ=              0.0188

 Normal termination of Gaussian 09 at Wed Aug 26 23:41:11 2020.
