 Gaussian 09, Revision D.01,
 Gaussian 09:  ES64L-G09RevD.01 24-Apr-2013

 --------------------
 #p B2PLYPD3/Def2QZVP
 --------------------

 ------------
 cyanomethane
 ------------
 Symbolic Z-matrix:
 Charge =  0 Multiplicity = 1

                         Standard orientation:
 ---------------------------------------------------------------------
 Center     Atomic      Atomic             Coordinates (Angstroms)
 Number     Number       Type             X           Y           Z
 ---------------------------------------------------------------------
      1          6           0       -1.137335   -0.004783    0.018949
      2          6           0        0.258253    0.026651   -0.041422
      3          7           0        1.434507   -0.008987    0.008225
      4          1           0       -1.651461   -0.776049   -0.627269
      5          1           0       -1.696633    0.940068   -0.269050
      6          1           0       -1.418966   -0.232317    0.973588
 ---------------------------------------------------------------------

 SCF Done:  E(RB2PLYPD3) =  -132.521772735     A.U. after   12 cycles
 E2(B2PLYPD3) =    -0.1829555493D+00 E(B2PLYPD3) =    -0.13270472828456D+03

 The electronic state is 1-A.
 Alpha  occ. eigenvalues --  -14.84985 -10.66907 -10.66655  -1.03533  -0.90274
 Alpha  occ. eigenvalues --   -0.62104  -0.54822  -0.52183  -0.45155  -0.38424
 Alpha  occ. eigenvalues --   -0.38170
 Alpha virt. eigenvalues --    0.03685   0.06152   0.07202   0.10071   0.11559
 Alpha virt. eigenvalues --    0.11733   0.15716   0.16480   0.17114   0.20150
 Alpha virt. eigenvalues --    0.20328   0.26516   0.32373   0.34005   0.35435

 Mulliken charges:
               1
     1  C   -0.061422
     2  C    0.009924
     3  N   -0.216350
     4  H    0.084118
     5  H    0.084709
     6  H    0.099020
 Sum of Mulliken charges =   0.00000

 Dipole moment (field-independent basis, Debye):
    X=             -4.1718    Y=             -0.0125    Z=              0.0296  Tot=              4.1719
 Quadrupole moment (field-independent basis, Debye-Ang):
   XX=            -20.5575   YY=            -17.9537   ZZ=            -17.9170
   XY=              0.0283   XZ=              0.0685   YZ=             -0.0443

 Normal termination of Gaussian 09 at Wed Aug 26 19:45:40 2020.
