 Gaussian 09, Revision D.01,
 Gaussian 09:  ES64L-G09RevD.01 24-Apr-2013

 --------------------
 #p B2PLYPD3/Def2QZVP
 --------------------

 ------------
 cyanomethane
 ------------
 Symbolic Z-matrix:
 Charge =  0 Multiplicity = 1

                         Standard orientation:
 ---------------------------------------------------------------------
 Center     Atomic      Atomic             Coordinates (Angstroms)
 Number     Number       Type             X           Y           Z
 ---------------------------------------------------------------------
      1          6           0       -1.180122    0.016704   -0.008603
      2          6           0        0.298913   -0.020034   -0.067125
      3          7           0        1.434656    0.005355    0.029609
      4          1           0       -1.550450    1.056975   -0.022965
      5          1           0       -1.509636   -0.443413    0.993256
      6          1           0       -1.695247   -0.631072   -0.723182
 ---------------------------------------------------------------------

 SCF Done:  E(RB2PLYPD3) =  -132.530505345     A.U. after   12 cycles
 E2(B2PLYPD3) =    -0.1798183019D+00 E(B2PLYPD3) =    -0.13271032364643D+03

 The electronic state is 1-A.
 Alpha  occ. eigenvalues --  -14.83949 -10.68089 -10.66102  -1.04759  -0.88055
 Alpha  occ. eigenvalues --   -0.59592  -0.54070  -0.51509  -0.44846  -0.39740
 Alpha  occ. eigenvalues --   -0.39208
 Alpha virt. eigenvalues --    0.03451   0.07578   0.08050   0.10252   0.11306
 Alpha virt. eigenvalues --    0.11920   0.15202   0.16203   0.17260   0.19880
 Alpha virt. eigenvalues --    0.20051   0.25176   0.32443   0.33176   0.35240

 Mulliken charges:
               1
     1  C   -0.088951
     2  C    0.001658
     3  N   -0.196613
     4  H    0.100836
     5  H    0.089076
     6  H    0.093995
 Sum of Mulliken charges =   0.00000

 Dipole moment (field-independent basis, Debye):
    X=             -4.1036    Y=             -0.0336    Z=             -0.0152  Tot=              4.1038
 Quadrupole moment (field-independent basis, Debye-Ang):
   XX=            -20.8619   YY=            -17.6181   ZZ=            -18.0302
   XY=              0.0990   XZ=             -0.1473   YZ=              0.0376

 Normal termination of Gaussian 09 at Wed Aug 26 19:10:19 2020.
