 Gaussian 09, Revision D.01,
 Gaussian 09:  ES64L-G09RevD.01 24-Apr-2013

 --------------------
 #p B2PLYPD3/Def2QZVP
 --------------------

 ------------
 cyanomethane
 ------------
 Symbolic Z-matrix:
 Charge =  0 Multiplicity = 1

                         Standard orientation:
 ---------------------------------------------------------------------
 Center     Atomic      Atomic             Coordinates (Angstroms)
 Number     Number       Type             X           Y           Z
 ---------------------------------------------------------------------
      1          6           0       -1.149200   -0.009695   -0.012907
      2          6           0        0.285858   -0.024050    0.031603
      3          7           0        1.416229    0.011291   -0.020513
      4          1           0       -1.648805   -0.806449   -0.625215
      5          1           0       -1.571754    1.026435   -0.387689
      6          1           0       -1.512990   -0.096555    1.044323
 ---------------------------------------------------------------------

 SCF Done:  E(RB2PLYPD3) =  -132.527476046     A.U. after   12 cycles
 E2(B2PLYPD3) =    -0.1794844444D+00 E(B2PLYPD3) =    -0.13270696049070D+03

 The electronic state is 1-A.
 Alpha  occ. eigenvalues --  -14.83665 -10.68284 -10.65639  -1.05164  -0.88401
 Alpha  occ. eigenvalues --   -0.59885  -0.53166  -0.51904  -0.44861  -0.39538
 Alpha  occ. eigenvalues --   -0.39208
 Alpha virt. eigenvalues --    0.03414   0.07013   0.07790   0.10105   0.11865
 Alpha virt. eigenvalues --    0.12165   0.15594   0.15905   0.17563   0.19941
 Alpha virt. eigenvalues --    0.20090   0.25865   0.32659   0.33249   0.34411

 Mulliken charges:
               1
     1  C   -0.096889
     2  C    0.001536
     3  N   -0.191963
     4  H    0.099949
     5  H    0.092699
     6  H    0.094668
 Sum of Mulliken charges =   0.00000

 Dipole moment (field-independent basis, Debye):
    X=             -4.0594    Y=             -0.0187    Z=              0.0579  Tot=              4.0599
 Quadrupole moment (field-independent basis, Debye-Ang):
   XX=            -20.9385   YY=            -17.7535   ZZ=            -17.8021
   XY=             -0.0350   XZ=              0.1554   YZ=              0.0579

 Normal termination of Gaussian 09 at Wed Aug 26 22:40:17 2020.
