 Gaussian 09, Revision D.01,
 Gaussian 09:  ES64L-G09RevD.01 24-Apr-2013

 --------------------
 #p B2PLYPD3/Def2QZVP
 --------------------

 ------------
 cyanomethane
 ------------
 Symbolic Z-matrix:
 Charge =  0 Multiplicity = 1

                         Standard orientation:
 ---------------------------------------------------------------------
 Center     Atomic      Atomic             Coordinates (Angstroms)
 Number     Number       Type             X           Y           Z
 ---------------------------------------------------------------------
      1          6           0        1.185570   -0.013610   -0.022572
      2          6           0       -0.305575    0.029119    0.049871
      3          7           0       -1.440075   -0.009342   -0.028432
      4          1           0        1.674455    1.050950   -0.269864
      5          1           0        1.597951   -0.794444   -0.701378
      6          1           0        1.528153   -0.284169    1.006468
 ---------------------------------------------------------------------

 SCF Done:  E(RB2PLYPD3) =  -132.524630196     A.U. after   12 cycles
 E2(B2PLYPD3) =    -0.1800761207D+00 E(B2PLYPD3) =    -0.13270470631628D+03

 The electronic state is 1-A.
 Alpha  occ. eigenvalues --  -14.83954 -10.68971 -10.66124  -1.04860  -0.87313
 Alpha  occ. eigenvalues --   -0.58950  -0.52607  -0.51676  -0.44861  -0.39667
 Alpha  occ. eigenvalues --   -0.39432
 Alpha virt. eigenvalues --    0.03286   0.07060   0.07980   0.10133   0.11599
 Alpha virt. eigenvalues --    0.11666   0.15194   0.15663   0.17703   0.19937
 Alpha virt. eigenvalues --    0.20061   0.25069   0.31572   0.33404   0.34349

 Mulliken charges:
               1
     1  C   -0.100924
     2  C    0.001738
     3  N   -0.193602
     4  H    0.094332
     5  H    0.103376
     6  H    0.095079
 Sum of Mulliken charges =   0.00000

 Dipole moment (field-independent basis, Debye):
    X=              4.0857    Y=             -0.0245    Z=              0.0811  Tot=              4.0866
 Quadrupole moment (field-independent basis, Debye-Ang):
   XX=            -20.9627   YY=            -17.7123   ZZ=            -17.9737
   XY=             -0.0625   XZ=             -0.1522   YZ=              0.0407

 Normal termination of Gaussian 09 at Wed Aug 26 23:49:10 2020.
