 Gaussian 09, Revision D.01,
 Gaussian 09:  ES64L-G09RevD.01 24-Apr-2013

 --------------------
 #p B2PLYPD3/Def2QZVP
 --------------------

 ------------
 cyanomethane
 ------------
 Symbolic Z-matrix:
 Charge =  0 Multiplicity = 1

                         Standard orientation:
 ---------------------------------------------------------------------
 Center     Atomic      Atomic             Coordinates (Angstroms)
 Number     Number       Type             X           Y           Z
 ---------------------------------------------------------------------
      1          6           0        1.164154   -0.013573    0.006212
      2          6           0       -0.274102    0.039168    0.001691
      3          7           0       -1.436864   -0.020712   -0.001900
      4          1           0        1.549761    1.029571   -0.046169
      5          1           0        1.588249   -0.550595   -0.844696
      6          1           0        1.579723   -0.487563    0.856745
 ---------------------------------------------------------------------

 SCF Done:  E(RB2PLYPD3) =  -132.532106999     A.U. after   11 cycles
 E2(B2PLYPD3) =    -0.1814462315D+00 E(B2PLYPD3) =    -0.13271355323068D+03

 The electronic state is 1-A.
 Alpha  occ. eigenvalues --  -14.84586 -10.66881 -10.66603  -1.03863  -0.89513
 Alpha  occ. eigenvalues --   -0.60981  -0.53945  -0.53244  -0.44984  -0.38877
 Alpha  occ. eigenvalues --   -0.38735
 Alpha virt. eigenvalues --    0.03736   0.07339   0.07596   0.10023   0.11415
 Alpha virt. eigenvalues --    0.11576   0.15563   0.16194   0.17029   0.20057
 Alpha virt. eigenvalues --    0.20228   0.25800   0.32756   0.34300   0.35041

 Mulliken charges:
               1
     1  C   -0.070389
     2  C    0.004712
     3  N   -0.210042
     4  H    0.090583
     5  H    0.090811
     6  H    0.094326
 Sum of Mulliken charges =   0.00000

 Dipole moment (field-independent basis, Debye):
    X=              4.1392    Y=              0.0106    Z=              0.0028  Tot=              4.1392
 Quadrupole moment (field-independent basis, Debye-Ang):
   XX=            -20.7917   YY=            -17.7523   ZZ=            -17.9200
   XY=             -0.1819   XZ=             -0.0192   YZ=             -0.0277

 Normal termination of Gaussian 09 at Wed Aug 26 14:58:58 2020.
