 Gaussian 09, Revision D.01,
 Gaussian 09:  ES64L-G09RevD.01 24-Apr-2013

 --------------------
 #p B2PLYPD3/Def2QZVP
 --------------------

 ------------
 cyanomethane
 ------------
 Symbolic Z-matrix:
 Charge =  0 Multiplicity = 1

                         Standard orientation:
 ---------------------------------------------------------------------
 Center     Atomic      Atomic             Coordinates (Angstroms)
 Number     Number       Type             X           Y           Z
 ---------------------------------------------------------------------
      1          6           0        1.171621   -0.001120   -0.003127
      2          6           0       -0.280115   -0.011990    0.006135
      3          7           0       -1.427957    0.009636   -0.006424
      4          1           0        1.609283    0.925974   -0.440818
      5          1           0        1.539787   -0.857183   -0.545238
      6          1           0        1.497590   -0.057582    1.012976
 ---------------------------------------------------------------------

 SCF Done:  E(RB2PLYPD3) =  -132.534926461     A.U. after   12 cycles
 E2(B2PLYPD3) =    -0.1799063316D+00 E(B2PLYPD3) =    -0.13271483279221D+03

 The electronic state is 1-A.
 Alpha  occ. eigenvalues --  -14.83999 -10.66950 -10.66031  -1.04388  -0.89378
 Alpha  occ. eigenvalues --   -0.59813  -0.54466  -0.53434  -0.44772  -0.39236
 Alpha  occ. eigenvalues --   -0.39144
 Alpha virt. eigenvalues --    0.03759   0.07694   0.08376   0.10181   0.11502
 Alpha virt. eigenvalues --    0.11628   0.15488   0.15947   0.16891   0.20054
 Alpha virt. eigenvalues --    0.20101   0.25472   0.32852   0.34521   0.34867

 Mulliken charges:
               1
     1  C   -0.083100
     2  C   -0.002278
     3  N   -0.203100
     4  H    0.094287
     5  H    0.097492
     6  H    0.096699
 Sum of Mulliken charges =   0.00000

 Dipole moment (field-independent basis, Debye):
    X=              4.1161    Y=             -0.0218    Z=              0.0294  Tot=              4.1162
 Quadrupole moment (field-independent basis, Debye-Ang):
   XX=            -20.9667   YY=            -17.6945   ZZ=            -17.7614
   XY=              0.0939   XZ=             -0.0507   YZ=              0.0284

 Normal termination of Gaussian 09 at Wed Aug 26 10:25:37 2020.
